GROningen MAchine for Chemical Simulation
95940
    1G5    HO5'    1   6.047   6.245   3.071
    1G5     O5'    2   6.002   6.225   3.154
    1G5     C5'    3   5.976   6.353   3.219
    1G5     H5'    4   6.068   6.412   3.215
    1G5    H5''    5   5.950   6.333   3.323
    1G5     C4'    6   5.862   6.421   3.146
    1G5     H4'    7   5.865   6.523   3.185
    1G5     O4'    8   5.867   6.411   3.002
    1G5     C1'    9   5.735   6.398   2.948
    1G5     H1'   10   5.700   6.463   2.867
    1G5      N9   11   5.725   6.257   2.897
    1G5      C8   12   5.829   6.173   2.862
    1G5      H8   13   5.930   6.189   2.896
    1G5      N7   14   5.787   6.068   2.793
    1G5      C5   15   5.651   6.085   2.778
    1G5      C6   16   5.550   6.011   2.707
    1G5      O6   17   5.557   5.900   2.655
    1G5      N1   18   5.425   6.071   2.707
    1G5      H1   19   5.349   6.024   2.661
    1G5      C2   20   5.402   6.195   2.770
    1G5      N2   21   5.283   6.243   2.774
    1G5     H21   22   5.200   6.196   2.739
    1G5     H22   23   5.279   6.311   2.849
    1G5      N3   24   5.486   6.263   2.836
    1G5      C4   25   5.613   6.206   2.836
    1G5     C3'   26   5.727   6.371   3.185
    1G5     H3'   27   5.731   6.263   3.176
    1G5     C2'   28   5.650   6.427   3.071
    1G5     H2'   29   5.559   6.366   3.069
    1G5     O2'   30   5.618   6.566   3.077
    1G5    HO2'   31   5.606   6.584   3.171
    1G5     O3'   32   5.681   6.414   3.318
    2G        P   33   5.640   6.305   3.425
    2G      OP1   34   5.598   6.385   3.548
    2G      OP2   35   5.738   6.195   3.435
    2G      O5'   36   5.509   6.249   3.353
    2G      C5'   37   5.399   6.327   3.331
    2G      H5'   38   5.419   6.410   3.263
    2G     H5''   39   5.356   6.360   3.425
    2G      C4'   40   5.303   6.227   3.271
    2G      H4'   41   5.208   6.279   3.256
    2G      O4'   42   5.351   6.198   3.141
    2G      C1'   43   5.308   6.068   3.115
    2G      H1'   44   5.258   6.071   3.018
    2G       N9   45   5.427   5.974   3.104
    2G       C8   46   5.559   6.002   3.139
    2G       H8   47   5.595   6.085   3.198
    2G       N7   48   5.646   5.907   3.109
    2G       C5   49   5.567   5.818   3.034
    2G       C6   50   5.604   5.690   2.972
    2G       O6   51   5.707   5.623   2.976
    2G       N1   52   5.497   5.623   2.922
    2G       H1   53   5.504   5.524   2.900
    2G       C2   54   5.371   5.677   2.921
    2G       N2   55   5.281   5.602   2.871
    2G      H21   56   5.305   5.511   2.833
    2G      H22   57   5.184   5.628   2.886
    2G       N3   58   5.326   5.784   2.980
    2G       C4   59   5.429   5.853   3.036
    2G      C3'   60   5.265   6.101   3.348
    2G      H3'   61   5.350   6.048   3.389
    2G      C2'   62   5.217   6.025   3.228
    2G      H2'   63   5.215   5.917   3.243
    2G      O2'   64   5.080   6.055   3.187
    2G     HO2'   65   5.046   6.138   3.223
    2G      O3'   66   5.161   6.117   3.443
    3G        P   67   5.157   6.017   3.564
    3G      OP1   68   5.050   6.058   3.651
    3G      OP2   69   5.288   6.008   3.619
    3G      O5'   70   5.119   5.878   3.499
    3G      C5'   71   4.996   5.843   3.447
    3G      H5'   72   4.969   5.920   3.375
    3G     H5''   73   4.916   5.849   3.520
    3G      C4'   74   5.004   5.700   3.383
    3G      H4'   75   4.901   5.675   3.358
    3G      O4'   76   5.093   5.698   3.266
    3G      C1'   77   5.152   5.569   3.249
    3G      H1'   78   5.135   5.513   3.157
    3G       N9   79   5.303   5.576   3.266
    3G       C8   80   5.382   5.681   3.321
    3G       H8   81   5.336   5.765   3.372
    3G       N7   82   5.509   5.654   3.315
    3G       C5   83   5.519   5.535   3.242
    3G       C6   84   5.634   5.456   3.209
    3G       O6   85   5.755   5.461   3.246
    3G       N1   86   5.612   5.341   3.144
    3G       H1   87   5.692   5.285   3.115
    3G       C2   88   5.484   5.299   3.113
    3G       N2   89   5.485   5.190   3.034
    3G      H21   90   5.571   5.142   3.011
    3G      H22   91   5.398   5.138   3.028
    3G       N3   92   5.374   5.365   3.154
    3G       C4   93   5.397   5.478   3.220
    3G      C3'   94   5.049   5.589   3.471
    3G      H3'   95   5.141   5.625   3.517
    3G      C2'   96   5.094   5.491   3.361
    3G      H2'   97   5.162   5.416   3.401
    3G      O2'   98   4.972   5.425   3.327
    3G     HO2'   99   4.898   5.452   3.380
    3G      O3'  100   4.949   5.548   3.559
    4U        P  101   4.988   5.481   3.697
    4U      OP1  102   4.859   5.437   3.768
    4U      OP2  103   5.080   5.576   3.774
    4U      O5'  104   5.071   5.357   3.658
    4U      C5'  105   5.001   5.248   3.607
    4U      H5'  106   4.939   5.271   3.520
    4U     H5''  107   4.942   5.202   3.685
    4U      C4'  108   5.097   5.125   3.564
    4U      H4'  109   5.036   5.054   3.507
    4U      O4'  110   5.187   5.177   3.466
    4U      C1'  111   5.314   5.111   3.472
    4U      H1'  112   5.340   5.053   3.383
    4U       N1  113   5.428   5.215   3.497
    4U       C6  114   5.418   5.329   3.576
    4U       H6  115   5.330   5.339   3.638
    4U       C5  116   5.519   5.417   3.594
    4U       H5  117   5.502   5.506   3.653
    4U       C4  118   5.654   5.399   3.536
    4U       O4  119   5.747   5.477   3.539
    4U       N3  120   5.665   5.276   3.473
    4U       H3  121   5.746   5.249   3.419
    4U       C2  122   5.561   5.184   3.449
    4U       O2  123   5.583   5.084   3.390
    4U      C3'  124   5.185   5.072   3.673
    4U      H3'  125   5.226   5.147   3.740
    4U      C2'  126   5.301   5.013   3.585
    4U      H2'  127   5.391   5.017   3.646
    4U      O2'  128   5.277   4.886   3.541
    4U     HO2'  129   5.256   4.825   3.611
    4U      O3'  130   5.108   4.966   3.738
    5U        P  131   5.165   4.901   3.859
    5U      OP1  132   5.055   4.842   3.938
    5U      OP2  133   5.261   4.991   3.930
    5U      O5'  134   5.252   4.784   3.790
    5U      C5'  135   5.194   4.656   3.781
    5U      H5'  136   5.105   4.654   3.718
    5U     H5''  137   5.152   4.624   3.877
    5U      C4'  138   5.289   4.547   3.731
    5U      H4'  139   5.244   4.448   3.729
    5U      O4'  140   5.352   4.581   3.606
    5U      C1'  141   5.488   4.538   3.601
    5U      H1'  142   5.495   4.449   3.539
    5U       N1  143   5.592   4.635   3.564
    5U       C6  144   5.586   4.770   3.590
    5U       H6  145   5.504   4.806   3.651
    5U       C5  146   5.676   4.855   3.545
    5U       H5  147   5.659   4.961   3.561
    5U       C4  148   5.794   4.808   3.472
    5U       O4  149   5.874   4.873   3.411
    5U       N3  150   5.807   4.670   3.473
    5U       H3  151   5.884   4.620   3.431
    5U       C2  152   5.712   4.586   3.509
    5U       O2  153   5.733   4.468   3.484
    5U      C3'  154   5.404   4.540   3.832
    5U      H3'  155   5.445   4.635   3.867
    5U      C2'  156   5.509   4.475   3.741
    5U      H2'  157   5.607   4.508   3.775
    5U      O2'  158   5.499   4.335   3.736
    5U     HO2'  159   5.477   4.309   3.826
    5U      O3'  160   5.378   4.461   3.951
    6A        P  161   5.442   4.503   4.097
    6A      OP1  162   5.434   4.386   4.188
    6A      OP2  163   5.390   4.635   4.142
    6A      O5'  164   5.595   4.516   4.054
    6A      C5'  165   5.684   4.405   4.069
    6A      H5'  166   5.654   4.319   4.009
    6A     H5''  167   5.701   4.383   4.175
    6A      C4'  168   5.817   4.454   4.021
    6A      H4'  169   5.874   4.361   4.021
    6A      O4'  170   5.811   4.515   3.889
    6A      C1'  171   5.893   4.627   3.887
    6A      H1'  172   5.951   4.617   3.795
    6A       N9  173   5.816   4.747   3.873
    6A       C8  174   5.701   4.792   3.941
    6A       H8  175   5.649   4.737   4.018
    6A       N7  176   5.668   4.915   3.913
    6A       C5  177   5.777   4.958   3.840
    6A       C6  178   5.803   5.081   3.775
    6A       N6  179   5.733   5.200   3.773
    6A      H61  180   5.772   5.282   3.729
    6A      H62  181   5.652   5.197   3.833
    6A       N1  182   5.910   5.095   3.694
    6A       C2  183   5.995   4.994   3.699
    6A       H2  184   6.091   5.009   3.651
    6A       N3  185   5.984   4.874   3.753
    6A       C4  186   5.867   4.860   3.814
    6A      C3'  187   5.883   4.560   4.110
    6A      H3'  188   5.814   4.642   4.130
    6A      C2'  189   5.982   4.610   4.009
    6A      H2'  190   6.023   4.707   4.039
    6A      O2'  191   6.081   4.515   3.971
    6A     HO2'  192   6.106   4.457   4.043
    6A      O3'  193   5.942   4.502   4.224
    7G        P  194   5.994   4.596   4.343
    7G      OP1  195   6.065   4.511   4.444
    7G      OP2  196   5.867   4.662   4.382
    7G      O5'  197   6.097   4.703   4.272
    7G      C5'  198   6.235   4.677   4.246
    7G      H5'  199   6.231   4.617   4.155
    7G     H5''  200   6.283   4.621   4.326
    7G      C4'  201   6.297   4.813   4.214
    7G      H4'  202   6.398   4.787   4.181
    7G      O4'  203   6.216   4.859   4.099
    7G      C1'  204   6.219   5.007   4.099
    7G      H1'  205   6.273   5.048   4.014
    7G       N9  206   6.081   5.062   4.100
    7G       C8  207   5.965   4.998   4.147
    7G       H8  208   5.958   4.894   4.175
    7G       N7  209   5.859   5.073   4.130
    7G       C5  210   5.910   5.195   4.098
    7G       C6  211   5.841   5.325   4.083
    7G       O6  212   5.724   5.345   4.095
    7G       N1  213   5.924   5.430   4.054
    7G       H1  214   5.884   5.518   4.023
    7G       C2  215   6.059   5.409   4.029
    7G       N2  216   6.132   5.518   4.016
    7G      H21  217   6.090   5.610   4.014
    7G      H22  218   6.232   5.510   4.023
    7G       N3  219   6.126   5.296   4.043
    7G       C4  220   6.044   5.193   4.074
    7G      C3'  221   6.294   4.924   4.316
    7G      H3'  222   6.196   4.925   4.365
    7G      C2'  223   6.302   5.046   4.222
    7G      H2'  224   6.263   5.138   4.266
    7G      O2'  225   6.434   5.076   4.171
    7G     HO2'  226   6.497   5.035   4.231
    7G      O3'  227   6.407   4.936   4.404
    8G        P  228   6.388   4.970   4.559
    8G      OP1  229   6.520   4.978   4.624
    8G      OP2  230   6.281   4.880   4.607
    8G      O5'  231   6.334   5.124   4.567
    8G      C5'  232   6.410   5.239   4.527
    8G      H5'  233   6.470   5.212   4.440
    8G     H5''  234   6.475   5.260   4.612
    8G      C4'  235   6.321   5.357   4.508
    8G      H4'  236   6.393   5.435   4.482
    8G      O4'  237   6.241   5.357   4.398
    8G      C1'  238   6.124   5.432   4.421
    8G      H1'  239   6.114   5.503   4.338
    8G       N9  240   6.004   5.347   4.437
    8G       C8  241   5.994   5.215   4.473
    8G       H8  242   6.073   5.143   4.490
    8G       N7  243   5.872   5.168   4.485
    8G       C5  244   5.795   5.281   4.458
    8G       C6  245   5.658   5.290   4.416
    8G       O6  246   5.574   5.203   4.395
    8G       N1  247   5.615   5.423   4.388
    8G       H1  248   5.517   5.423   4.362
    8G       C2  249   5.700   5.527   4.373
    8G       N2  250   5.654   5.633   4.324
    8G      H21  251   5.554   5.649   4.322
    8G      H22  252   5.716   5.712   4.331
    8G       N3  253   5.834   5.521   4.383
    8G       C4  254   5.869   5.392   4.425
    8G      C3'  255   6.250   5.411   4.622
    8G      H3'  256   6.188   5.334   4.668
    8G      C2'  257   6.161   5.506   4.543
    8G      H2'  258   6.073   5.534   4.600
    8G      O2'  259   6.222   5.621   4.491
    8G     HO2'  260   6.267   5.611   4.407
    8G      O3'  261   6.328   5.474   4.722
    9G        P  262   6.281   5.484   4.867
    9G      OP1  263   6.393   5.552   4.943
    9G      OP2  264   6.227   5.352   4.909
    9G      O5'  265   6.155   5.584   4.862
    9G      C5'  266   6.167   5.718   4.827
    9G      H5'  267   6.210   5.724   4.727
    9G     H5''  268   6.228   5.769   4.901
    9G      C4'  269   6.028   5.785   4.819
    9G      H4'  270   6.044   5.890   4.796
    9G      O4'  271   5.947   5.734   4.714
    9G      C1'  272   5.815   5.718   4.757
    9G      H1'  273   5.749   5.757   4.680
    9G       N9  274   5.772   5.576   4.761
    9G       C8  275   5.841   5.466   4.803
    9G       H8  276   5.946   5.464   4.828
    9G       N7  277   5.788   5.352   4.774
    9G       C5  278   5.656   5.389   4.738
    9G       C6  279   5.541   5.310   4.717
    9G       O6  280   5.526   5.184   4.722
    9G       N1  281   5.423   5.387   4.696
    9G       H1  282   5.334   5.339   4.708
    9G       C2  283   5.434   5.524   4.682
    9G       N2  284   5.319   5.583   4.650
    9G      H21  285   5.232   5.532   4.641
    9G      H22  286   5.318   5.684   4.648
    9G       N3  287   5.539   5.602   4.702
    9G       C4  288   5.651   5.528   4.728
    9G      C3'  289   5.948   5.775   4.948
    9G      H3'  290   5.952   5.675   4.993
    9G      C2'  291   5.801   5.792   4.890
    9G      H2'  292   5.729   5.743   4.956
    9G      O2'  293   5.753   5.927   4.878
    9G     HO2'  294   5.658   5.912   4.871
    9G      O3'  295   5.980   5.887   5.030
   10U        P  296   5.979   5.869   5.188
   10U      OP1  297   5.991   6.005   5.245
   10U      OP2  298   6.071   5.759   5.227
   10U      O5'  299   5.837   5.811   5.226
   10U      C5'  300   5.715   5.889   5.236
   10U      H5'  301   5.703   5.944   5.143
   10U     H5''  302   5.730   5.949   5.325
   10U      C4'  303   5.585   5.802   5.252
   10U      H4'  304   5.504   5.870   5.277
   10U      O4'  305   5.552   5.716   5.142
   10U      C1'  306   5.481   5.602   5.191
   10U      H1'  307   5.381   5.607   5.148
   10U       N1  308   5.554   5.473   5.153
   10U       C6  309   5.687   5.466   5.162
   10U       H6  310   5.746   5.549   5.198
   10U       C5  311   5.754   5.345   5.133
   10U       H5  312   5.860   5.335   5.150
   10U       C4  313   5.685   5.224   5.094
   10U       O4  314   5.751   5.120   5.076
   10U       N3  315   5.553   5.246   5.063
   10U       H3  316   5.506   5.180   5.003
   10U       C2  317   5.489   5.369   5.085
   10U       O2  318   5.374   5.391   5.041
   10U      C3'  319   5.583   5.708   5.372
   10U      H3'  320   5.680   5.658   5.367
   10U      C2'  321   5.466   5.611   5.344
   10U      H2'  322   5.467   5.518   5.401
   10U      O2'  323   5.353   5.682   5.374
   10U     HO2'  324   5.354   5.702   5.468
   10U      O3'  325   5.563   5.778   5.490
   11U        P  326   5.582   5.697   5.626
   11U      OP1  327   5.634   5.796   5.714
   11U      OP2  328   5.662   5.568   5.606
   11U      O5'  329   5.439   5.657   5.676
   11U      C5'  330   5.374   5.763   5.732
   11U      H5'  331   5.373   5.856   5.675
   11U     H5''  332   5.409   5.785   5.832
   11U      C4'  333   5.232   5.707   5.733
   11U      H4'  334   5.170   5.789   5.770
   11U      O4'  335   5.183   5.679   5.604
   11U      C1'  336   5.063   5.594   5.616
   11U      H1'  337   4.974   5.656   5.604
   11U       N1  338   5.072   5.492   5.508
   11U       C6  339   5.154   5.382   5.513
   11U       H6  340   5.197   5.350   5.606
   11U       C5  341   5.175   5.298   5.407
   11U       H5  342   5.239   5.212   5.417
   11U       C4  343   5.131   5.339   5.276
   11U       O4  344   5.151   5.277   5.173
   11U       N3  345   5.071   5.461   5.269
   11U       H3  346   5.027   5.481   5.180
   11U       C2  347   5.028   5.528   5.379
   11U       O2  348   4.947   5.622   5.358
   11U      C3'  349   5.199   5.577   5.810
   11U      H3'  350   5.276   5.503   5.787
   11U      C2'  351   5.067   5.536   5.761
   11U      H2'  352   5.061   5.428   5.760
   11U      O2'  353   4.960   5.596   5.832
   11U     HO2'  354   4.979   5.570   5.922
   11U      O3'  355   5.206   5.611   5.947
   12A        P  356   5.188   5.501   6.059
   12A      OP1  357   5.271   5.531   6.171
   12A      OP2  358   5.199   5.367   5.997
   12A      O5'  359   5.037   5.509   6.114
   12A      C5'  360   4.990   5.620   6.188
   12A      H5'  361   5.020   5.716   6.145
   12A     H5''  362   5.034   5.612   6.287
   12A      C4'  363   4.837   5.615   6.210
   12A      H4'  364   4.792   5.704   6.255
   12A      O4'  365   4.767   5.609   6.084
   12A      C1'  366   4.694   5.488   6.073
   12A      H1'  367   4.595   5.507   6.030
   12A       N9  368   4.761   5.384   5.991
   12A       C8  369   4.851   5.282   6.020
   12A       H8  370   4.857   5.241   6.120
   12A       N7  371   4.897   5.215   5.916
   12A       C5  372   4.841   5.289   5.810
   12A       C6  373   4.841   5.270   5.670
   12A       N6  374   4.914   5.182   5.609
   12A      H61  375   4.893   5.173   5.510
   12A      H62  376   4.987   5.131   5.657
   12A       N1  377   4.768   5.339   5.584
   12A       C2  378   4.690   5.430   5.640
   12A       H2  379   4.626   5.487   5.574
   12A       N3  380   4.676   5.454   5.768
   12A       C4  381   4.751   5.383   5.853
   12A      C3'  382   4.799   5.494   6.288
   12A      H3'  383   4.888   5.431   6.286
   12A      C2'  384   4.671   5.441   6.215
   12A      H2'  385   4.669   5.332   6.226
   12A      O2'  386   4.549   5.485   6.272
   12A     HO2'  387   4.542   5.446   6.359
   12A      O3'  388   4.772   5.526   6.429
   13G        P  389   4.807   5.430   6.548
   13G      OP1  390   4.782   5.499   6.671
   13G      OP2  391   4.938   5.370   6.525
   13G      O5'  392   4.687   5.327   6.539
   13G      C5'  393   4.560   5.349   6.609
   13G      H5'  394   4.536   5.455   6.606
   13G     H5''  395   4.586   5.331   6.713
   13G      C4'  396   4.445   5.259   6.566
   13G      H4'  397   4.351   5.296   6.607
   13G      O4'  398   4.420   5.283   6.425
   13G      C1'  399   4.374   5.169   6.359
   13G      H1'  400   4.271   5.190   6.328
   13G       N9  401   4.453   5.132   6.246
   13G       C8  402   4.566   5.046   6.243
   13G       H8  403   4.598   4.990   6.329
   13G       N7  404   4.607   5.013   6.119
   13G       C5  405   4.525   5.097   6.038
   13G       C6  406   4.532   5.119   5.896
   13G       O6  407   4.601   5.062   5.812
   13G       N1  408   4.446   5.207   5.857
   13G       H1  409   4.432   5.211   5.757
   13G       C2  410   4.371   5.289   5.934
   13G       N2  411   4.302   5.378   5.872
   13G      H21  412   4.295   5.383   5.772
   13G      H22  413   4.254   5.448   5.928
   13G       N3  414   4.351   5.272   6.067
   13G       C4  415   4.435   5.171   6.114
   13G      C3'  416   4.463   5.108   6.576
   13G      H3'  417   4.569   5.098   6.556
   13G      C2'  418   4.370   5.058   6.465
   13G      H2'  419   4.398   4.962   6.422
   13G      O2'  420   4.238   5.053   6.521
   13G     HO2'  421   4.233   4.988   6.592
   13G      O3'  422   4.436   5.053   6.700
   14G        P  423   4.455   4.895   6.727
   14G      OP1  424   4.468   4.882   6.872
   14G      OP2  425   4.569   4.842   6.638
   14G      O5'  426   4.309   4.840   6.676
   14G      C5'  427   4.202   4.829   6.767
   14G      H5'  428   4.173   4.925   6.807
   14G     H5''  429   4.223   4.768   6.855
   14G      C4'  430   4.081   4.762   6.698
   14G      H4'  431   4.001   4.774   6.770
   14G      O4'  432   4.044   4.819   6.572
   14G      C1'  433   4.042   4.712   6.480
   14G      H1'  434   3.959   4.727   6.411
   14G       N9  435   4.164   4.726   6.392
   14G       C8  436   4.278   4.653   6.384
   14G       H8  437   4.303   4.579   6.459
   14G       N7  438   4.348   4.677   6.274
   14G       C5  439   4.277   4.776   6.209
   14G       C6  440   4.294   4.850   6.080
   14G       O6  441   4.382   4.844   5.994
   14G       N1  442   4.195   4.946   6.059
   14G       H1  443   4.202   5.005   5.977
   14G       C2  444   4.089   4.961   6.140
   14G       N2  445   4.002   5.052   6.102
   14G      H21  446   4.029   5.112   6.026
   14G      H22  447   3.918   5.069   6.156
   14G       N3  448   4.066   4.890   6.252
   14G       C4  449   4.165   4.808   6.285
   14G      C3'  450   4.110   4.614   6.684
   14G      H3'  451   4.216   4.589   6.673
   14G      C2'  452   4.023   4.587   6.561
   14G      H2'  453   4.077   4.509   6.508
   14G      O2'  454   3.876   4.570   6.566
   14G     HO2'  455   3.861   4.492   6.619
   14G      O3'  456   4.052   4.545   6.799
   15G        P  457   4.124   4.418   6.857
   15G      OP1  458   4.079   4.400   7.001
   15G      OP2  459   4.268   4.435   6.833
   15G      O5'  460   4.070   4.292   6.764
   15G      C5'  461   3.958   4.213   6.799
   15G      H5'  462   3.889   4.270   6.861
   15G     H5''  463   3.989   4.126   6.856
   15G      C4'  464   3.887   4.150   6.681
   15G      H4'  465   3.792   4.110   6.719
   15G      O4'  466   3.846   4.257   6.592
   15G      C1'  467   3.857   4.212   6.456
   15G      H1'  468   3.758   4.208   6.410
   15G       N9  469   3.949   4.294   6.375
   15G       C8  470   4.086   4.300   6.365
   15G       H8  471   4.156   4.232   6.413
   15G       N7  472   4.128   4.383   6.277
   15G       C5  473   4.010   4.443   6.231
   15G       C6  474   3.988   4.536   6.127
   15G       O6  475   4.066   4.572   6.040
   15G       N1  476   3.861   4.587   6.123
   15G       H1  477   3.847   4.657   6.052
   15G       C2  478   3.758   4.536   6.191
   15G       N2  479   3.639   4.579   6.161
   15G      H21  480   3.628   4.643   6.083
   15G      H22  481   3.558   4.531   6.199
   15G       N3  482   3.765   4.430   6.278
   15G       C4  483   3.900   4.390   6.293
   15G      C3'  484   3.959   4.043   6.599
   15G      H3'  485   4.067   4.051   6.597
   15G      C2'  486   3.902   4.066   6.461
   15G      H2'  487   3.984   4.046   6.392
   15G      O2'  488   3.795   3.985   6.433
   15G     HO2'  489   3.819   3.894   6.450
   15G      O3'  490   3.917   3.920   6.649
   16U        P  491   3.976   3.773   6.632
   16U      OP1  492   3.928   3.699   6.751
   16U      OP2  493   4.121   3.780   6.599
   16U      O5'  494   3.910   3.724   6.506
   16U      C5'  495   3.780   3.668   6.497
   16U      H5'  496   3.700   3.734   6.529
   16U     H5''  497   3.766   3.573   6.547
   16U      C4'  498   3.766   3.631   6.343
   16U      H4'  499   3.684   3.559   6.334
   16U      O4'  500   3.725   3.747   6.274
   16U      C1'  501   3.767   3.725   6.142
   16U      H1'  502   3.678   3.700   6.083
   16U       N1  503   3.819   3.855   6.105
   16U       C6  504   3.952   3.890   6.123
   16U       H6  505   4.020   3.815   6.162
   16U       C5  506   3.989   4.017   6.097
   16U       H5  507   4.090   4.048   6.119
   16U       C4  508   3.898   4.116   6.052
   16U       O4  509   3.926   4.234   6.028
   16U       N3  510   3.762   4.070   6.044
   16U       H3  511   3.690   4.131   6.007
   16U       C2  512   3.722   3.946   6.052
   16U       O2  513   3.599   3.922   6.031
   16U      C3'  514   3.889   3.567   6.276
   16U      H3'  515   3.977   3.624   6.304
   16U      C2'  516   3.860   3.603   6.128
   16U      H2'  517   3.949   3.627   6.069
   16U      O2'  518   3.795   3.493   6.067
   16U     HO2'  519   3.856   3.420   6.075
   16U      O3'  520   3.896   3.426   6.301
   17U        P  521   4.024   3.345   6.261
   17U      OP1  522   4.005   3.215   6.326
   17U      OP2  523   4.142   3.425   6.288
   17U      O5'  524   4.001   3.322   6.110
   17U      C5'  525   4.053   3.208   6.037
   17U      H5'  526   4.004   3.121   6.081
   17U     H5''  527   4.162   3.208   6.034
   17U      C4'  528   4.026   3.227   5.884
   17U      H4'  529   4.045   3.133   5.833
   17U      O4'  530   3.892   3.269   5.853
   17U      C1'  531   3.905   3.336   5.730
   17U      H1'  532   3.858   3.274   5.654
   17U       N1  533   3.834   3.466   5.737
   17U       C6  534   3.891   3.590   5.777
   17U       H6  535   3.988   3.598   5.825
   17U       C5  536   3.818   3.708   5.774
   17U       H5  537   3.872   3.798   5.797
   17U       C4  538   3.687   3.711   5.720
   17U       O4  539   3.620   3.808   5.692
   17U       N3  540   3.629   3.584   5.708
   17U       H3  541   3.529   3.577   5.699
   17U       C2  542   3.703   3.460   5.705
   17U       O2  543   3.638   3.361   5.682
   17U      C3'  544   4.110   3.330   5.825
   17U      H3'  545   4.096   3.419   5.887
   17U      C2'  546   4.048   3.354   5.684
   17U      H2'  547   4.072   3.454   5.647
   17U      O2'  548   4.079   3.254   5.600
   17U     HO2'  549   4.141   3.286   5.534
   17U      O3'  550   4.246   3.290   5.824
   18A        P  551   4.359   3.392   5.782
   18A      OP1  552   4.498   3.334   5.806
   18A      OP2  553   4.323   3.523   5.845
   18A      O5'  554   4.344   3.408   5.622
   18A      C5'  555   4.428   3.341   5.520
   18A      H5'  556   4.430   3.234   5.537
   18A     H5''  557   4.533   3.369   5.529
   18A      C4'  558   4.374   3.375   5.382
   18A      H4'  559   4.443   3.324   5.315
   18A      O4'  560   4.241   3.326   5.364
   18A      C1'  561   4.169   3.429   5.294
   18A      H1'  562   4.123   3.379   5.209
   18A       N9  563   4.065   3.498   5.373
   18A       C8  564   4.055   3.620   5.431
   18A       H8  565   4.140   3.678   5.461
   18A       N7  566   3.934   3.663   5.448
   18A       C5  567   3.853   3.560   5.397
   18A       C6  568   3.712   3.533   5.377
   18A       N6  569   3.615   3.622   5.392
   18A      H61  570   3.522   3.582   5.402
   18A      H62  571   3.632   3.721   5.397
   18A       N1  572   3.662   3.417   5.337
   18A       C2  573   3.753   3.321   5.321
   18A       H2  574   3.718   3.222   5.295
   18A       N3  575   3.889   3.326   5.338
   18A       C4  576   3.934   3.451   5.376
   18A      C3'  577   4.380   3.522   5.347
   18A      H3'  578   4.350   3.571   5.439
   18A      C2'  579   4.272   3.528   5.245
   18A      H2'  580   4.220   3.623   5.233
   18A      O2'  581   4.300   3.485   5.114
   18A     HO2'  582   4.286   3.551   5.046
   18A      O3'  583   4.508   3.582   5.314
   19G        P  584   4.546   3.735   5.343
   19G      OP1  585   4.684   3.762   5.275
   19G      OP2  586   4.532   3.766   5.482
   19G      O5'  587   4.438   3.820   5.265
   19G      C5'  588   4.412   3.806   5.125
   19G      H5'  589   4.378   3.704   5.110
   19G     H5''  590   4.500   3.829   5.065
   19G      C4'  591   4.302   3.896   5.074
   19G      H4'  592   4.288   3.883   4.966
   19G      O4'  593   4.180   3.857   5.137
   19G      C1'  594   4.107   3.981   5.164
   19G      H1'  595   4.009   3.961   5.122
   19G       N9  596   4.090   3.995   5.314
   19G       C8  597   4.178   4.014   5.417
   19G       H8  598   4.285   4.010   5.400
   19G       N7  599   4.130   4.028   5.536
   19G       C5  600   3.992   4.007   5.511
   19G       C6  601   3.884   4.007   5.604
   19G       O6  602   3.881   4.019   5.729
   19G       N1  603   3.761   3.975   5.545
   19G       H1  604   3.682   3.950   5.602
   19G       C2  605   3.740   3.958   5.417
   19G       N2  606   3.614   3.927   5.380
   19G      H21  607   3.542   3.923   5.451
   19G      H22  608   3.586   3.938   5.283
   19G       N3  609   3.833   3.977   5.321
   19G       C4  610   3.964   3.995   5.374
   19G      C3'  611   4.325   4.041   5.097
   19G      H3'  612   4.376   4.062   5.191
   19G      C2'  613   4.181   4.097   5.093
   19G      H2'  614   4.153   4.192   5.140
   19G      O2'  615   4.124   4.111   4.959
   19G     HO2'  616   4.198   4.140   4.906
   19G      O3'  617   4.391   4.083   4.984
   20G        P  618   4.522   4.161   5.000
   20G      OP1  619   4.559   4.221   4.874
   20G      OP2  620   4.623   4.080   5.074
   20G      O5'  621   4.469   4.288   5.093
   20G      C5'  622   4.381   4.390   5.042
   20G      H5'  623   4.291   4.337   5.014
   20G     H5''  624   4.430   4.434   4.955
   20G      C4'  625   4.339   4.494   5.143
   20G      H4'  626   4.290   4.573   5.086
   20G      O4'  627   4.246   4.440   5.238
   20G      C1'  628   4.281   4.497   5.368
   20G      H1'  629   4.196   4.559   5.396
   20G       N9  630   4.305   4.393   5.469
   20G       C8  631   4.418   4.311   5.493
   20G       H8  632   4.507   4.321   5.432
   20G       N7  633   4.418   4.255   5.609
   20G       C5  634   4.294   4.283   5.659
   20G       C6  635   4.227   4.232   5.778
   20G       O6  636   4.266   4.163   5.867
   20G       N1  637   4.100   4.282   5.800
   20G       H1  638   4.071   4.286   5.897
   20G       C2  639   4.033   4.355   5.704
   20G       N2  640   3.925   4.414   5.746
   20G      H21  641   3.877   4.386   5.830
   20G      H22  642   3.881   4.478   5.682
   20G       N3  643   4.085   4.390   5.587
   20G       C4  644   4.219   4.354   5.570
   20G      C3'  645   4.461   4.553   5.212
   20G      H3'  646   4.542   4.484   5.236
   20G      C2'  647   4.394   4.598   5.348
   20G      H2'  648   4.460   4.600   5.435
   20G      O2'  649   4.326   4.718   5.328
   20G     HO2'  650   4.386   4.792   5.340
   20G      O3'  651   4.510   4.670   5.136
   21G3       P  652   4.637   4.748   5.181
   21G3     OP1  653   4.689   4.793   5.049
   21G3     OP2  654   4.719   4.679   5.278
   21G3     O5'  655   4.577   4.879   5.262
   21G3     C5'  656   4.510   4.980   5.191
   21G3     H5'  657   4.432   4.938   5.127
   21G3    H5''  658   4.579   5.032   5.125
   21G3     C4'  659   4.455   5.079   5.294
   21G3     H4'  660   4.407   5.169   5.257
   21G3     O4'  661   4.347   5.025   5.373
   21G3     C1'  662   4.372   5.046   5.513
   21G3     H1'  663   4.288   5.091   5.566
   21G3      N9  664   4.400   4.911   5.570
   21G3      C8  665   4.517   4.850   5.587
   21G3      H8  666   4.605   4.895   5.542
   21G3      N7  667   4.511   4.744   5.662
   21G3      C5  668   4.376   4.735   5.697
   21G3      C6  669   4.308   4.646   5.790
   21G3      O6  670   4.349   4.546   5.854
   21G3      N1  671   4.175   4.660   5.789
   21G3      H1  672   4.129   4.630   5.874
   21G3      C2  673   4.111   4.749   5.708
   21G3      N2  674   3.989   4.773   5.738
   21G3     H21  675   3.939   4.709   5.798
   21G3     H22  676   3.948   4.857   5.699
   21G3      N3  677   4.168   4.836   5.625
   21G3      C4  678   4.303   4.826   5.617
   21G3     C3'  679   4.556   5.131   5.390
   21G3     H3'  680   4.646   5.068   5.395
   21G3     C2'  681   4.489   5.145   5.528
   21G3     H2'  682   4.565   5.115   5.601
   21G3     O2'  683   4.440   5.272   5.561
   21G3    HO2'  684   4.420   5.328   5.485
   21G3     O3'  685   4.611   5.253   5.340
   21G3    HO3'  686   4.686   5.280   5.394
   22Cl-    Cl-  687   0.264   3.610   9.157
   23Cl-    Cl-  688   7.519   1.421   0.887
   24Cl-    Cl-  689   3.030   1.275   4.340
   25Cl-    Cl-  690   9.266   9.039   6.853
   26Cl-    Cl-  691   9.559   1.739   5.347
   27Cl-    Cl-  692   1.764   5.702   4.602
   28Cl-    Cl-  693   2.838   5.806   6.229
   29Cl-    Cl-  694   1.243   2.725   0.288
   30Cl-    Cl-  695   3.589   3.350   2.395
   31Cl-    Cl-  696   8.833   0.616   1.805
   32Cl-    Cl-  697   4.455   7.255   2.641
   33Cl-    Cl-  698   2.909   8.382   7.622
   34Cl-    Cl-  699   1.413   3.354   4.563
   35Cl-    Cl-  700   4.911   1.957   1.379
   36Cl-    Cl-  701   8.971   9.342   2.179
   37Cl-    Cl-  702   0.275   7.310   6.969
   38Cl-    Cl-  703   6.051   4.700   7.016
   39Cl-    Cl-  704   2.820   2.706   6.427
   40Cl-    Cl-  705   4.224   2.538   6.667
   41Cl-    Cl-  706   5.197   2.157   6.116
   42Cl-    Cl-  707   4.803   6.872   2.773
   43Cl-    Cl-  708   9.481   5.263   7.288
   44Cl-    Cl-  709   7.453   7.290   9.323
   45Cl-    Cl-  710   0.922   6.494   5.354
   46Cl-    Cl-  711   4.312   4.514   9.639
   47Cl-    Cl-  712   4.056   5.226   2.003
   48Cl-    Cl-  713   9.684   4.394   2.317
   49Cl-    Cl-  714   7.746   4.632   7.654
   50Cl-    Cl-  715   4.800   7.167   6.970
   51Cl-    Cl-  716   7.561   2.000   6.286
   52Cl-    Cl-  717   8.102   3.542   8.372
   53Cl-    Cl-  718   7.805   3.571   4.299
   54Cl-    Cl-  719   4.481   6.167   4.721
   55Cl-    Cl-  720   2.458   3.040   9.216
   56Cl-    Cl-  721   4.072   8.635   1.560
   57Cl-    Cl-  722   3.412   8.932   9.650
   58Cl-    Cl-  723   9.679   7.436   1.627
   59Cl-    Cl-  724   2.133   7.784   9.714
   60Cl-    Cl-  725   4.333   2.626   8.563
   61Cl-    Cl-  726   1.554   7.617   3.429
   62Cl-    Cl-  727   0.144   0.060   6.813
   63Cl-    Cl-  728   7.267   2.168   4.778
   64Cl-    Cl-  729   8.346   3.963   1.659
   65Cl-    Cl-  730   6.127   3.258   8.652
   66Cl-    Cl-  731   0.859   1.605   5.786
   67Cl-    Cl-  732   4.101   2.500   3.200
   68Cl-    Cl-  733   0.072   8.562   2.539
   69Cl-    Cl-  734   0.957   8.887   1.901
   70Cl-    Cl-  735   1.731   1.489   0.271
   71Cl-    Cl-  736   2.930   2.502   4.008
   72Cl-    Cl-  737   0.340   0.049   2.201
   73Cl-    Cl-  738   3.472   6.541   7.347
   74Cl-    Cl-  739   7.852   7.918   8.491
   75Cl-    Cl-  740   6.761   1.603   9.480
   76Cl-    Cl-  741   2.980   0.811   0.162
   77Cl-    Cl-  742   5.764   0.129   7.628
   78Cl-    Cl-  743   5.630   4.895   8.717
   79Cl-    Cl-  744   7.357   9.226   3.063
   80Cl-    Cl-  745   7.678   2.425   2.677
   81Cl-    Cl-  746   4.134   7.118   2.058
   82Cl-    Cl-  747   1.817   7.454   5.380
   83Cl-    Cl-  748   3.560   7.040   6.503
   84Cl-    Cl-  749   8.561   1.723   4.165
   85Cl-    Cl-  750   1.185   1.872   5.468
   86Cl-    Cl-  751   7.873   6.337   1.092
   87Cl-    Cl-  752   3.070   6.380   2.254
   88Cl-    Cl-  753   0.428   3.160   1.084
   89Cl-    Cl-  754   9.755   8.919   8.058
   90Cl-    Cl-  755   7.900   6.115   3.385
   91Cl-    Cl-  756   5.918   2.322   0.253
   92Cl-    Cl-  757   7.962   5.041   5.511
   93Cl-    Cl-  758   4.216   2.613   3.848
   94Cl-    Cl-  759   3.732   0.765   0.725
   95Cl-    Cl-  760   4.213   9.231   8.388
   96Cl-    Cl-  761   4.759   0.398   6.894
   97Cl-    Cl-  762   2.114   6.901   4.407
   98Cl-    Cl-  763   5.054   0.655   2.302
   99Cl-    Cl-  764   9.755   8.913   5.257
  100Cl-    Cl-  765   9.100   3.077   7.906
  101Cl-    Cl-  766   8.870   4.817   2.858
  102Cl-    Cl-  767   0.893   9.405   0.607
  103Cl-    Cl-  768   9.515   7.103   3.369
  104Cl-    Cl-  769   3.565   9.524   3.554
  105Cl-    Cl-  770   5.250   2.215   3.796
  106Cl-    Cl-  771   6.840   4.725   2.490
  107K+      K+  772   4.637   8.174   5.830
  108K+      K+  773   5.376   1.559   0.815
  109K+      K+  774   8.149   8.577   5.013
  110K+      K+  775   4.107   5.648   6.346
  111K+      K+  776   1.037   5.386   6.285
  112K+      K+  777   7.215   1.578   8.794
  113K+      K+  778   7.706   0.509   0.822
  114K+      K+  779   4.760   2.633   6.322
  115K+      K+  780   4.848   4.902   6.012
  116K+      K+  781   0.871   1.173   6.107
  117K+      K+  782   4.042   7.825   7.222
  118K+      K+  783   2.612   1.654   8.344
  119K+      K+  784   4.651   0.735   1.442
  120K+      K+  785   7.965   3.318   5.843
  121K+      K+  786   2.713   2.833   5.692
  122K+      K+  787   4.741   5.172   4.720
  123K+      K+  788   7.597   1.160   2.468
  124K+      K+  789   9.537   6.089   3.149
  125K+      K+  790   7.032   5.688   8.173
  126K+      K+  791   3.823   5.937   6.392
  127K+      K+  792   8.701   4.972   8.938
  128K+      K+  793   1.879   8.654   2.475
  129K+      K+  794   9.621   0.758   8.028
  130K+      K+  795   5.901   5.329   5.784
  131K+      K+  796   9.640   8.321   2.297
  132K+      K+  797   5.211   6.832   3.176
  133K+      K+  798   6.581   3.445   6.334
  134K+      K+  799   5.692   4.735   4.766
  135K+      K+  800   5.002   5.363   8.680
  136K+      K+  801   8.588   2.239   1.738
  137K+      K+  802   6.656   5.032   5.354
  138K+      K+  803   6.067   4.901   4.768
  139K+      K+  804   2.846   7.020   9.776
  140K+      K+  805   5.903   6.150   4.974
  141K+      K+  806   0.277   9.000   7.650
  142K+      K+  807   1.900   7.966   5.658
  143K+      K+  808   5.043   6.785   8.736
  144K+      K+  809   1.048   4.088   4.636
  145K+      K+  810   3.995   7.021   2.358
  146K+      K+  811   4.792   3.900   5.084
  147K+      K+  812   8.663   3.876   4.286
  148K+      K+  813   1.103   5.888   3.823
  149K+      K+  814   6.619   4.067   7.957
  150K+      K+  815   8.997   4.005   1.221
  151K+      K+  816   0.819   5.503   6.605
  152K+      K+  817   3.460   5.367   5.123
  153K+      K+  818   5.586   5.094   4.148
  154K+      K+  819   4.895   0.936   0.568
  155K+      K+  820   9.199   1.536   2.249
  156K+      K+  821   3.925   1.299   0.245
  157K+      K+  822   9.571   8.757   7.767
  158K+      K+  823   4.618   8.642   1.678
  159K+      K+  824   7.123   5.075   3.036
  160K+      K+  825   9.071   9.557   1.501
  161K+      K+  826   0.452   8.516   0.161
  162K+      K+  827   5.209   9.546   2.717
  163K+      K+  828   1.250   0.134   9.246
  164K+      K+  829   6.591   9.049   7.981
  165K+      K+  830   6.908   2.177   8.340
  166K+      K+  831   0.886   4.550   1.846
  167K+      K+  832   8.955   0.666   5.151
  168K+      K+  833   3.235   2.844   2.033
  169K+      K+  834   2.105   0.392   5.404
  170K+      K+  835   7.241   7.088   9.078
  171K+      K+  836   0.005   6.204   8.263
  172K+      K+  837   5.598   0.609   7.578
  173K+      K+  838   0.501   2.284   1.386
  174K+      K+  839   4.348   4.472   6.094
  175K+      K+  840   4.688   4.559   5.748
  176K+      K+  841   8.361   5.908   2.116
  177K+      K+  842   8.710   8.142   3.610
  178K+      K+  843   9.699   5.688   3.681
  179K+      K+  844   8.674   1.698   3.609
  180K+      K+  845   4.352   3.944   5.946
  181K+      K+  846   3.417   5.673   1.447
  182K+      K+  847   5.735   5.710   3.451
  183K+      K+  848   6.480   4.325   6.248
  184K+      K+  849   3.900   4.628   9.153
  185K+      K+  850   5.944   5.564   3.089
  186K+      K+  851   2.843   2.327   7.233
  187K+      K+  852   7.650   8.662   2.227
  188K+      K+  853   6.902   0.372   2.959
  189K+      K+  854   0.710   9.254   2.582
  190K+      K+  855   5.128   4.173   4.944
  191K+      K+  856   0.299   5.326   8.236
  192K+      K+  857   1.018   3.417   0.362
  193K+      K+  858   6.657   0.491   4.943
  194K+      K+  859   5.912   6.737   4.293
  195K+      K+  860   4.198   6.562   0.877
  196K+      K+  861   7.278   4.827   5.993
  197K+      K+  862   1.098   7.335   2.054
  198K+      K+  863   4.645   7.782   8.032
  199K+      K+  864   3.939   2.840   8.201
  200K+      K+  865   5.624   3.987   1.028
  201K+      K+  866   4.064   2.582   4.576
  202K+      K+  867   4.486   3.949   3.257
  203K+      K+  868   5.298   8.971   0.246
  204K+      K+  869   6.820   3.602   3.416
  205K+      K+  870   0.061   2.081   0.450
  206K+      K+  871   1.944   2.403   9.200
  207K+      K+  872   6.112   3.331   9.221
  208K+      K+  873   3.365   9.146   3.059
  209K+      K+  874   3.751   2.063   4.137
  210K+      K+  875   3.682   8.062   2.254
  211K+      K+  876   3.637   1.683   6.860
  212WAT      O  877   9.614   3.182   2.335
  212WAT     H1  878   9.642   3.095   2.296
  212WAT     H2  879   9.635   3.184   2.432
  213WAT      O  880   7.199   5.676   3.730
  213WAT     H1  881   7.200   5.595   3.789
  213WAT     H2  882   7.288   5.686   3.686
  214WAT      O  883   6.384   5.376   4.065
  214WAT     H1  884   6.449   5.359   4.139
  214WAT     H2  885   6.302   5.321   4.081
  215WAT      O  886   0.742   0.240   3.753
  215WAT     H1  887   0.758   0.205   3.845
  215WAT     H2  888   0.810   0.201   3.691
  216WAT      O  889   9.560   8.971   2.630
  216WAT     H1  890   9.641   8.949   2.575
  216WAT     H2  891   9.530   8.888   2.679
  217WAT      O  892   9.044   4.399   7.899
  217WAT     H1  893   9.036   4.497   7.915
  217WAT     H2  894   9.103   4.358   7.968
  218WAT      O  895   9.630   1.453   3.469
  218WAT     H1  896   9.614   1.542   3.427
  218WAT     H2  897   9.653   1.465   3.566
  219WAT      O  898   4.593   1.907   1.077
  219WAT     H1  899   4.652   1.976   1.119
  219WAT     H2  900   4.555   1.847   1.148
  220WAT      O  901   7.437   3.372   6.623
  220WAT     H1  902   7.500   3.428   6.570
  220WAT     H2  903   7.479   3.282   6.639
  221WAT      O  904   2.664   9.113   9.502
  221WAT     H1  905   2.635   9.018   9.507
  221WAT     H2  906   2.743   9.121   9.442
  222WAT      O  907   9.516   0.129   9.730
  222WAT     H1  908   9.486   0.115   9.635
  222WAT     H2  909   9.596   0.189   9.730
  223WAT      O  910   6.970   8.417   5.236
  223WAT     H1  911   6.908   8.343   5.264
  223WAT     H2  912   7.022   8.449   5.315
  224WAT      O  913   9.607   9.044   9.498
  224WAT     H1  914   9.573   9.136   9.482
  224WAT     H2  915   9.669   9.018   9.424
  225WAT      O  916   8.057   0.566   6.273
  225WAT     H1  917   8.034   0.662   6.254
  225WAT     H2  918   8.032   0.544   6.367
  226WAT      O  919   0.500   4.092   8.277
  226WAT     H1  920   0.538   4.099   8.370
  226WAT     H2  921   0.524   4.003   8.238
  227WAT      O  922   5.338   9.763   7.862
  227WAT     H1  923   5.405   9.714   7.917
  227WAT     H2  924   5.382   9.800   7.780
  228WAT      O  925   4.879   7.221   1.446
  228WAT     H1  926   4.914   7.227   1.540
  228WAT     H2  927   4.908   7.135   1.405
  229WAT      O  928   6.877   5.491   3.217
  229WAT     H1  929   6.818   5.411   3.228
  229WAT     H2  930   6.973   5.465   3.230
  230WAT      O  931   2.384   3.234   7.800
  230WAT     H1  932   2.364   3.332   7.807
  230WAT     H2  933   2.324   3.184   7.862
  231WAT      O  934   0.663   9.777   2.551
  231WAT     H1  935   0.583   9.721   2.575
  231WAT     H2  936   0.713   9.800   2.635
  232WAT      O  937   1.095   4.386   7.262
  232WAT     H1  938   1.115   4.293   7.231
  232WAT     H2  939   1.035   4.382   7.342
  233WAT      O  940   4.291   7.244   6.486
  233WAT     H1  941   4.315   7.173   6.419
  233WAT     H2  942   4.361   7.316   6.483
  234WAT      O  943   3.483   0.330   4.238
  234WAT     H1  944   3.440   0.405   4.188
  234WAT     H2  945   3.495   0.251   4.178
  235WAT      O  946   4.193   6.908   1.808
  235WAT     H1  947   4.288   6.932   1.786
  235WAT     H2  948   4.161   6.965   1.884
  236WAT      O  949   5.782   0.862   3.012
  236WAT     H1  950   5.799   0.793   3.084
  236WAT     H2  951   5.759   0.949   3.055
  237WAT      O  952   4.756   4.315   7.101
  237WAT     H1  953   4.847   4.357   7.092
  237WAT     H2  954   4.701   4.338   7.021
  238WAT      O  955   8.509   6.474   4.460
  238WAT     H1  956   8.561   6.437   4.382
  238WAT     H2  957   8.419   6.503   4.429
  239WAT      O  958   7.710   4.480   8.045
  239WAT     H1  959   7.639   4.474   7.975
  239WAT     H2  960   7.796   4.507   8.002
  240WAT      O  961   7.690   3.875   8.495
  240WAT     H1  962   7.705   3.957   8.549
  240WAT     H2  963   7.622   3.817   8.539
  241WAT      O  964   9.725   0.249   5.348
  241WAT     H1  965   9.776   0.318   5.400
  241WAT     H2  966   9.755   0.248   5.253
  242WAT      O  967   4.252   6.823   0.181
  242WAT     H1  968   4.256   6.852   0.085
  242WAT     H2  969   4.196   6.888   0.232
  243WAT      O  970   2.367   3.624   4.380
  243WAT     H1  971   2.358   3.622   4.479
  243WAT     H2  972   2.280   3.598   4.338
  244WAT      O  973   7.786   0.359   2.747
  244WAT     H1  974   7.877   0.359   2.787
  244WAT     H2  975   7.784   0.420   2.668
  245WAT      O  976   1.974   2.186   9.645
  245WAT     H1  977   1.889   2.202   9.695
  245WAT     H2  978   1.993   2.088   9.641
  246WAT      O  979   3.104   8.157   1.618
  246WAT     H1  980   3.026   8.214   1.593
  246WAT     H2  981   3.109   8.078   1.557
  247WAT      O  982   7.675   7.424   8.937
  247WAT     H1  983   7.752   7.459   8.990
  247WAT     H2  984   7.682   7.456   8.843
  248WAT      O  985   8.438   0.701   8.262
  248WAT     H1  986   8.514   0.681   8.325
  248WAT     H2  987   8.351   0.676   8.305
  249WAT      O  988   3.580   2.700   3.978
  249WAT     H1  989   3.608   2.620   3.926
  249WAT     H2  990   3.483   2.695   3.999
  250WAT      O  991   6.005   5.820   7.732
  250WAT     H1  992   6.051   5.868   7.656
  250WAT     H2  993   6.052   5.842   7.818
  251WAT      O  994   5.568   3.336   1.803
  251WAT     H1  995   5.575   3.237   1.795
  251WAT     H2  996   5.472   3.363   1.808
  252WAT      O  997   7.507   5.086   1.034
  252WAT     H1  998   7.527   5.016   0.965
  252WAT     H2  999   7.592   5.118   1.076
  253WAT      O 1000   1.559   5.942   0.469
  253WAT     H1 1001   1.559   5.963   0.567
  253WAT     H2 1002   1.512   6.015   0.419
  254WAT      O 1003   6.817   6.499   5.695
  254WAT     H1 1004   6.847   6.555   5.618
  254WAT     H2 1005   6.808   6.404   5.666
  255WAT      O 1006   7.477   8.519   8.960
  255WAT     H1 1007   7.463   8.614   8.990
  255WAT     H2 1008   7.572   8.493   8.976
  256WAT      O 1009   8.199   0.210   9.828
  256WAT     H1 1010   8.236   0.208   9.921
  256WAT     H2 1011   8.136   0.133   9.816
  257WAT      O 1012   7.870   9.137   1.758
  257WAT     H1 1013   7.927   9.178   1.829
  257WAT     H2 1014   7.921   9.133   1.672
  258WAT      O 1015   3.269   9.621   2.230
  258WAT     H1 1016   3.185   9.601   2.280
  258WAT     H2 1017   3.250   9.689   2.159
  259WAT      O 1018   7.452   7.068   0.936
  259WAT     H1 1019   7.385   7.124   0.984
  259WAT     H2 1020   7.533   7.056   0.993
  260WAT      O 1021   8.476   0.543   2.513
  260WAT     H1 1022   8.450   0.522   2.607
  260WAT     H2 1023   8.395   0.571   2.461
  261WAT      O 1024   3.924   1.533   2.192
  261WAT     H1 1025   3.960   1.481   2.269
  261WAT     H2 1026   3.991   1.602   2.165
  262WAT      O 1027   9.237   0.022   0.609
  262WAT     H1 1028   9.184   0.033   0.525
  262WAT     H2 1029   9.185   0.059   0.686
  263WAT      O 1030   5.647   3.035   0.307
  263WAT     H1 1031   5.732   2.992   0.339
  263WAT     H2 1032   5.609   2.981   0.232
  264WAT      O 1033   0.525   1.428   2.395
  264WAT     H1 1034   0.470   1.502   2.357
  264WAT     H2 1035   0.470   1.377   2.462
  265WAT      O 1036   4.522   4.163   7.195
  265WAT     H1 1037   4.608   4.208   7.171
  265WAT     H2 1038   4.453   4.183   7.126
  266WAT      O 1039   9.106   3.929   9.244
  266WAT     H1 1040   9.045   3.902   9.319
  266WAT     H2 1041   9.152   4.015   9.267
  267WAT      O 1042   3.105   5.663   4.185
  267WAT     H1 1043   3.063   5.573   4.173
  267WAT     H2 1044   3.200   5.651   4.214
  268WAT      O 1045   6.360   6.214   1.278
  268WAT     H1 1046   6.348   6.115   1.280
  268WAT     H2 1047   6.451   6.236   1.244
  269WAT      O 1048   0.888   2.531   5.260
  269WAT     H1 1049   0.949   2.558   5.186
  269WAT     H2 1050   0.929   2.554   5.348
  270WAT      O 1051   0.388   3.941   1.186
  270WAT     H1 1052   0.359   4.012   1.249
  270WAT     H2 1053   0.376   3.972   1.092
  271WAT      O 1054   3.276   0.909   5.916
  271WAT     H1 1055   3.256   0.812   5.901
  271WAT     H2 1056   3.264   0.958   5.830
  272WAT      O 1057   0.246   5.045   7.957
  272WAT     H1 1058   0.308   5.074   7.884
  272WAT     H2 1059   0.298   5.031   8.042
  273WAT      O 1060   8.351   2.824   4.063
  273WAT     H1 1061   8.337   2.896   4.130
  273WAT     H2 1062   8.428   2.767   4.091
  274WAT      O 1063   9.429   0.962   6.756
  274WAT     H1 1064   9.458   0.894   6.689
  274WAT     H2 1065   9.456   1.053   6.726
  275WAT      O 1066   2.090   1.712   4.797
  275WAT     H1 1067   2.138   1.631   4.832
  275WAT     H2 1068   2.153   1.768   4.744
  276WAT      O 1069   9.423   7.261   8.257
  276WAT     H1 1070   9.475   7.304   8.184
  276WAT     H2 1071   9.414   7.163   8.238
  277WAT      O 1072   3.257   8.139   7.879
  277WAT     H1 1073   3.169   8.180   7.854
  277WAT     H2 1074   3.321   8.211   7.905
  278WAT      O 1075   1.446   3.978   0.936
  278WAT     H1 1076   1.430   3.942   0.845
  278WAT     H2 1077   1.520   3.928   0.980
  279WAT      O 1078   0.952   3.237   3.915
  279WAT     H1 1079   1.020   3.165   3.930
  279WAT     H2 1080   0.860   3.196   3.916
  280WAT      O 1081   3.683   2.869   4.456
  280WAT     H1 1082   3.635   2.882   4.542
  280WAT     H2 1083   3.625   2.816   4.394
  281WAT      O 1084   4.011   5.795   1.539
  281WAT     H1 1085   3.977   5.750   1.622
  281WAT     H2 1086   3.939   5.798   1.470
  282WAT      O 1087   5.479   8.798   0.138
  282WAT     H1 1088   5.468   8.798   0.038
  282WAT     H2 1089   5.573   8.822   0.161
  283WAT      O 1090   9.328   0.285   7.773
  283WAT     H1 1091   9.322   0.270   7.675
  283WAT     H2 1092   9.386   0.215   7.814
  284WAT      O 1093   8.882   2.632   0.492
  284WAT     H1 1094   8.855   2.728   0.499
  284WAT     H2 1095   8.811   2.581   0.443
  285WAT      O 1096   0.797   4.563   2.251
  285WAT     H1 1097   0.734   4.582   2.326
  285WAT     H2 1098   0.809   4.464   2.242
  286WAT      O 1099   7.754   3.697   8.802
  286WAT     H1 1100   7.674   3.715   8.744
  286WAT     H2 1101   7.735   3.728   8.895
  287WAT      O 1102   6.084   5.531   7.891
  287WAT     H1 1103   6.057   5.459   7.827
  287WAT     H2 1104   6.003   5.565   7.939
  288WAT      O 1105   2.815   6.173   5.506
  288WAT     H1 1106   2.856   6.219   5.585
  288WAT     H2 1107   2.880   6.105   5.471
  289WAT      O 1108   7.880   0.394   0.976
  289WAT     H1 1109   7.950   0.438   1.033
  289WAT     H2 1110   7.925   0.337   0.907
  290WAT      O 1111   1.302   8.032   3.275
  290WAT     H1 1112   1.233   8.098   3.304
  290WAT     H2 1113   1.333   7.979   3.354
  291WAT      O 1114   6.418   7.486   3.038
  291WAT     H1 1115   6.436   7.438   3.124
  291WAT     H2 1116   6.392   7.420   2.967
  292WAT      O 1117   1.170   9.552   0.631
  292WAT     H1 1118   1.090   9.492   0.628
  292WAT     H2 1119   1.163   9.613   0.710
  293WAT      O 1120   0.342   1.648   0.569
  293WAT     H1 1121   0.386   1.689   0.489
  293WAT     H2 1122   0.317   1.720   0.634
  294WAT      O 1123   9.580   5.949   3.902
  294WAT     H1 1124   9.524   6.031   3.910
  294WAT     H2 1125   9.522   5.871   3.879
  295WAT      O 1126   9.294   2.256   2.336
  295WAT     H1 1127   9.337   2.172   2.368
  295WAT     H2 1128   9.235   2.293   2.408
  296WAT      O 1129   0.440   5.124   8.957
  296WAT     H1 1130   0.393   5.101   8.872
  296WAT     H2 1131   0.539   5.116   8.943
  297WAT      O 1132   9.554   0.961   6.380
  297WAT     H1 1133   9.474   1.004   6.338
  297WAT     H2 1134   9.525   0.908   6.460
  298WAT      O 1135   9.018   4.794   4.667
  298WAT     H1 1136   9.040   4.697   4.675
  298WAT     H2 1137   9.037   4.840   4.754
  299WAT      O 1138   0.927   5.145   9.230
  299WAT     H1 1139   0.836   5.187   9.231
  299WAT     H2 1140   0.923   5.056   9.275
  300WAT      O 1141   3.132   7.786   9.790
  300WAT     H1 1142   3.117   7.798   9.889
  300WAT     H2 1143   3.088   7.861   9.741
  301WAT      O 1144   7.934   6.286   1.398
  301WAT     H1 1145   7.904   6.301   1.304
  301WAT     H2 1146   7.988   6.201   1.403
  302WAT      O 1147   5.424   1.035   2.111
  302WAT     H1 1148   5.379   0.990   2.187
  302WAT     H2 1149   5.414   1.134   2.120
  303WAT      O 1150   8.618   5.871   1.138
  303WAT     H1 1151   8.672   5.787   1.141
  303WAT     H2 1152   8.571   5.877   1.049
  304WAT      O 1153   5.810   6.932   2.059
  304WAT     H1 1154   5.838   6.888   1.973
  304WAT     H2 1155   5.880   6.996   2.088
  305WAT      O 1156   3.348   6.279   3.234
  305WAT     H1 1157   3.346   6.186   3.270
  305WAT     H2 1158   3.387   6.278   3.142
  306WAT      O 1159   2.698   2.254   2.849
  306WAT     H1 1160   2.794   2.254   2.820
  306WAT     H2 1161   2.693   2.279   2.946
  307WAT      O 1162   5.600   3.077   1.755
  307WAT     H1 1163   5.571   3.055   1.662
  307WAT     H2 1164   5.695   3.051   1.768
  308WAT      O 1165   9.410   4.997   3.902
  308WAT     H1 1166   9.495   4.947   3.918
  308WAT     H2 1167   9.386   4.993   3.805
  309WAT      O 1168   4.825   1.082   4.324
  309WAT     H1 1169   4.779   1.144   4.260
  309WAT     H2 1170   4.855   1.134   4.404
  310WAT      O 1171   7.184   5.437   7.583
  310WAT     H1 1172   7.147   5.393   7.501
  310WAT     H2 1173   7.110   5.484   7.631
  311WAT      O 1174   3.807   6.261   8.019
  311WAT     H1 1175   3.834   6.352   7.986
  311WAT     H2 1176   3.763   6.270   8.108
  312WAT      O 1177   0.348   7.734   3.510
  312WAT     H1 1178   0.435   7.728   3.462
  312WAT     H2 1179   0.328   7.646   3.553
  313WAT      O 1180   0.371   7.497   1.005
  313WAT     H1 1181   0.417   7.582   1.028
  313WAT     H2 1182   0.438   7.426   0.984
  314WAT      O 1183   6.365   5.102   1.846
  314WAT     H1 1184   6.307   5.027   1.815
  314WAT     H2 1185   6.419   5.072   1.925
  315WAT      O 1186   5.170   9.153   7.991
  315WAT     H1 1187   5.117   9.101   8.058
  315WAT     H2 1188   5.190   9.095   7.912
  316WAT      O 1189   0.282   7.759   1.326
  316WAT     H1 1190   0.327   7.842   1.360
  316WAT     H2 1191   0.351   7.693   1.298
  317WAT      O 1192   4.802   3.697   3.627
  317WAT     H1 1193   4.731   3.637   3.664
  317WAT     H2 1194   4.850   3.650   3.553
  318WAT      O 1195   1.519   7.193   1.707
  318WAT     H1 1196   1.605   7.244   1.714
  318WAT     H2 1197   1.528   7.122   1.638
  319WAT      O 1198   4.786   1.554   6.467
  319WAT     H1 1199   4.754   1.649   6.474
  319WAT     H2 1200   4.775   1.523   6.373
  320WAT      O 1201   5.564   6.992   7.071
  320WAT     H1 1202   5.523   6.905   7.101
  320WAT     H2 1203   5.657   6.999   7.107
  321WAT      O 1204   8.291   8.785   0.348
  321WAT     H1 1205   8.349   8.850   0.300
  321WAT     H2 1206   8.196   8.815   0.344
  322WAT      O 1207   2.167   5.993   4.679
  322WAT     H1 1208   2.091   5.949   4.726
  322WAT     H2 1209   2.134   6.041   4.598
  323WAT      O 1210   5.915   3.507   4.761
  323WAT     H1 1211   5.950   3.595   4.730
  323WAT     H2 1212   5.818   3.500   4.736
  324WAT      O 1213   5.610   3.338   6.643
  324WAT     H1 1214   5.635   3.257   6.590
  324WAT     H2 1215   5.511   3.353   6.636
  325WAT      O 1216   5.328   9.701   6.122
  325WAT     H1 1217   5.417   9.704   6.075
  325WAT     H2 1218   5.261   9.657   6.063
  326WAT      O 1219   4.992   4.989   9.736
  326WAT     H1 1220   4.950   5.077   9.759
  326WAT     H2 1221   4.968   4.922   9.805
  327WAT      O 1222   9.416   7.800   4.212
  327WAT     H1 1223   9.436   7.712   4.169
  327WAT     H2 1224   9.476   7.813   4.291
  328WAT      O 1225   9.000   3.322   3.147
  328WAT     H1 1226   8.972   3.414   3.175
  328WAT     H2 1227   9.024   3.268   3.228
  329WAT      O 1228   9.876   1.347   7.205
  329WAT     H1 1229   9.942   1.393   7.146
  329WAT     H2 1230   9.901   1.362   7.301
  330WAT      O 1231   1.619   1.515   4.522
  330WAT     H1 1232   1.598   1.562   4.436
  330WAT     H2 1233   1.718   1.513   4.535
  331WAT      O 1234   0.674   4.644   8.573
  331WAT     H1 1235   0.618   4.687   8.644
  331WAT     H2 1236   0.615   4.589   8.514
  332WAT      O 1237   5.424   4.651   1.525
  332WAT     H1 1238   5.360   4.722   1.496
  332WAT     H2 1239   5.433   4.653   1.624
  333WAT      O 1240   7.714   8.098   2.799
  333WAT     H1 1241   7.768   8.084   2.716
  333WAT     H2 1242   7.626   8.052   2.790
  334WAT      O 1243   6.194   8.538   2.675
  334WAT     H1 1244   6.124   8.608   2.684
  334WAT     H2 1245   6.262   8.567   2.608
  335WAT      O 1246   7.419   7.158   0.156
  335WAT     H1 1247   7.489   7.190   0.220
  335WAT     H2 1248   7.464   7.120   0.075
  336WAT      O 1249   0.121   1.759   5.035
  336WAT     H1 1250   0.069   1.845   5.031
  336WAT     H2 1251   0.082   1.700   5.105
  337WAT      O 1252   2.762   3.328   3.108
  337WAT     H1 1253   2.853   3.368   3.098
  337WAT     H2 1254   2.770   3.241   3.157
  338WAT      O 1255   2.234   1.532   9.228
  338WAT     H1 1256   2.204   1.565   9.317
  338WAT     H2 1257   2.156   1.528   9.165
  339WAT      O 1258   1.733   0.937   3.274
  339WAT     H1 1259   1.680   0.853   3.288
  339WAT     H2 1260   1.803   0.920   3.205
  340WAT      O 1261   9.485   9.282   7.936
  340WAT     H1 1262   9.567   9.302   7.884
  340WAT     H2 1263   9.416   9.352   7.917
  341WAT      O 1264   5.608   3.576   2.595
  341WAT     H1 1265   5.603   3.477   2.609
  341WAT     H2 1266   5.575   3.622   2.678
  342WAT      O 1267   8.770   3.800   1.309
  342WAT     H1 1268   8.848   3.739   1.310
  342WAT     H2 1269   8.709   3.778   1.385
  343WAT      O 1270   2.705   9.520   1.610
  343WAT     H1 1271   2.620   9.566   1.636
  343WAT     H2 1272   2.688   9.459   1.533
  344WAT      O 1273   0.115   0.215   3.675
  344WAT     H1 1274   0.094   0.149   3.747
  344WAT     H2 1275   0.152   0.167   3.595
  345WAT      O 1276   5.730   6.937   6.488
  345WAT     H1 1277   5.653   6.983   6.532
  345WAT     H2 1278   5.696   6.877   6.415
  346WAT      O 1279   9.204   4.447   9.090
  346WAT     H1 1280   9.119   4.394   9.082
  346WAT     H2 1281   9.280   4.395   9.051
  347WAT      O 1282   7.919   7.861   1.159
  347WAT     H1 1283   7.900   7.790   1.091
  347WAT     H2 1284   7.969   7.821   1.236
  348WAT      O 1285   0.517   7.932   8.797
  348WAT     H1 1286   0.598   7.944   8.740
  348WAT     H2 1287   0.514   8.003   8.867
  349WAT      O 1288   2.650   8.994   7.605
  349WAT     H1 1289   2.579   9.064   7.619
  349WAT     H2 1290   2.618   8.906   7.640
  350WAT      O 1291   9.605   9.642   4.862
  350WAT     H1 1292   9.681   9.583   4.835
  350WAT     H2 1293   9.525   9.585   4.884
  351WAT      O 1294   9.559   8.347   1.704
  351WAT     H1 1295   9.595   8.440   1.703
  351WAT     H2 1296   9.618   8.289   1.761
  352WAT      O 1297   6.853   9.147   4.964
  352WAT     H1 1298   6.913   9.117   4.889
  352WAT     H2 1299   6.795   9.071   4.992
  353WAT      O 1300   2.458   4.312   7.455
  353WAT     H1 1301   2.509   4.283   7.536
  353WAT     H2 1302   2.516   4.306   7.374
  354WAT      O 1303   5.006   2.803   8.236
  354WAT     H1 1304   4.981   2.723   8.180
  354WAT     H2 1305   4.974   2.790   8.329
  355WAT      O 1306   0.006   8.011   5.815
  355WAT     H1 1307   0.039   7.959   5.737
  355WAT     H2 1308   0.029   7.963   5.900
  356WAT      O 1309   6.986   8.187   3.004
  356WAT     H1 1310   7.056   8.251   3.037
  356WAT     H2 1311   7.003   8.096   3.043
  357WAT      O 1312   1.516   8.996   3.906
  357WAT     H1 1313   1.496   8.973   4.001
  357WAT     H2 1314   1.571   8.923   3.865
  358WAT      O 1315   1.923   6.127   6.279
  358WAT     H1 1316   2.005   6.131   6.222
  358WAT     H2 1317   1.882   6.218   6.284
  359WAT      O 1318   0.987   9.510   5.072
  359WAT     H1 1319   1.015   9.501   4.976
  359WAT     H2 1320   0.889   9.534   5.076
  360WAT      O 1321   5.529   1.887   4.474
  360WAT     H1 1322   5.558   1.900   4.380
  360WAT     H2 1323   5.457   1.953   4.496
  361WAT      O 1324   0.991   4.025   9.356
  361WAT     H1 1325   1.007   4.124   9.360
  361WAT     H2 1326   0.946   3.995   9.440
  362WAT      O 1327   0.243   6.532   8.233
  362WAT     H1 1328   0.203   6.596   8.167
  362WAT     H2 1329   0.189   6.534   8.318
  363WAT      O 1330   0.828   1.389   3.048
  363WAT     H1 1331   0.849   1.487   3.051
  363WAT     H2 1332   0.905   1.340   3.008
  364WAT      O 1333   8.218   5.955   5.220
  364WAT     H1 1334   8.229   6.052   5.243
  364WAT     H2 1335   8.307   5.913   5.209
  365WAT      O 1336   1.965   2.329   2.077
  365WAT     H1 1337   2.031   2.340   2.003
  365WAT     H2 1338   2.013   2.309   2.162
  366WAT      O 1339   2.892   7.581   7.924
  366WAT     H1 1340   2.932   7.494   7.953
  366WAT     H2 1341   2.897   7.647   7.999
  367WAT      O 1342   2.487   1.226   4.046
  367WAT     H1 1343   2.448   1.171   3.972
  367WAT     H2 1344   2.587   1.221   4.042
  368WAT      O 1345   2.390   5.484   3.082
  368WAT     H1 1346   2.463   5.538   3.040
  368WAT     H2 1347   2.420   5.447   3.169
  369WAT      O 1348   5.419   1.887   8.360
  369WAT     H1 1349   5.451   1.802   8.401
  369WAT     H2 1350   5.468   1.965   8.400
  370WAT      O 1351   2.918   0.445   1.522
  370WAT     H1 1352   2.985   0.399   1.464
  370WAT     H2 1353   2.954   0.454   1.614
  371WAT      O 1354   5.398   8.422   2.464
  371WAT     H1 1355   5.352   8.480   2.531
  371WAT     H2 1356   5.369   8.447   2.372
  372WAT      O 1357   8.072   9.201   6.683
  372WAT     H1 1358   8.167   9.189   6.713
  372WAT     H2 1359   8.016   9.234   6.759
  373WAT      O 1360   3.479   2.279   3.948
  373WAT     H1 1361   3.387   2.312   3.970
  373WAT     H2 1362   3.475   2.182   3.926
  374WAT      O 1363   7.919   6.107   6.939
  374WAT     H1 1364   7.925   6.202   6.972
  374WAT     H2 1365   7.867   6.105   6.854
  375WAT      O 1366   3.458   0.572   4.537
  375WAT     H1 1367   3.447   0.578   4.438
  375WAT     H2 1368   3.464   0.476   4.564
  376WAT      O 1369   3.958   4.890   0.173
  376WAT     H1 1370   3.994   4.855   0.260
  376WAT     H2 1371   4.033   4.930   0.120
  377WAT      O 1372   3.217   7.673   9.236
  377WAT     H1 1373   3.233   7.681   9.334
  377WAT     H2 1374   3.290   7.619   9.194
  378WAT      O 1375   0.943   6.313   0.436
  378WAT     H1 1376   1.010   6.335   0.365
  378WAT     H2 1377   0.894   6.395   0.462
  379WAT      O 1378   2.904   4.731   2.712
  379WAT     H1 1379   2.880   4.658   2.648
  379WAT     H2 1380   3.002   4.751   2.705
  380WAT      O 1381   6.983   6.820   6.345
  380WAT     H1 1382   7.039   6.825   6.428
  380WAT     H2 1383   7.041   6.794   6.268
  381WAT      O 1384   0.792   3.271   0.754
  381WAT     H1 1385   0.766   3.211   0.678
  381WAT     H2 1386   0.715   3.331   0.777
  382WAT      O 1387   0.341   7.417   2.453
  382WAT     H1 1388   0.311   7.495   2.398
  382WAT     H2 1389   0.272   7.345   2.450
  383WAT      O 1390   1.480   7.790   7.959
  383WAT     H1 1391   1.457   7.775   7.863
  383WAT     H2 1392   1.579   7.785   7.971
  384WAT      O 1393   7.486   8.388   3.664
  384WAT     H1 1394   7.438   8.309   3.626
  384WAT     H2 1395   7.425   8.467   3.667
  385WAT      O 1396   0.782   9.520   4.345
  385WAT     H1 1397   0.777   9.465   4.428
  385WAT     H2 1398   0.865   9.497   4.294
  386WAT      O 1399   6.341   4.069   3.643
  386WAT     H1 1400   6.273   4.024   3.700
  386WAT     H2 1401   6.296   4.119   3.570
  387WAT      O 1402   1.348   4.698   1.659
  387WAT     H1 1403   1.328   4.624   1.594
  387WAT     H2 1404   1.381   4.658   1.745
  388WAT      O 1405   1.518   7.784   0.340
  388WAT     H1 1406   1.483   7.866   0.295
  388WAT     H2 1407   1.463   7.705   0.313
  389WAT      O 1408   5.445   7.067   7.500
  389WAT     H1 1409   5.436   7.152   7.552
  389WAT     H2 1410   5.531   7.069   7.449
  390WAT      O 1411   8.961   5.801   9.332
  390WAT     H1 1412   8.963   5.781   9.234
  390WAT     H2 1413   9.047   5.845   9.359
  391WAT      O 1414   2.459   9.129   0.700
  391WAT     H1 1415   2.386   9.183   0.658
  391WAT     H2 1416   2.442   9.032   0.685
  392WAT      O 1417   8.536   2.066   7.393
  392WAT     H1 1418   8.559   2.092   7.299
  392WAT     H2 1419   8.438   2.080   7.408
  393WAT      O 1420   4.044   6.823   3.636
  393WAT     H1 1421   4.107   6.764   3.585
  393WAT     H2 1422   4.066   6.919   3.616
  394WAT      O 1423   4.703   6.933   1.873
  394WAT     H1 1424   4.696   6.860   1.805
  394WAT     H2 1425   4.653   6.907   1.955
  395WAT      O 1426   4.204   1.012   2.431
  395WAT     H1 1427   4.144   1.090   2.414
  395WAT     H2 1428   4.256   1.028   2.515
  396WAT      O 1429   7.535   9.567   1.888
  396WAT     H1 1430   7.607   9.613   1.939
  396WAT     H2 1431   7.554   9.469   1.883
  397WAT      O 1432   0.362   8.909   3.279
  397WAT     H1 1433   0.275   8.861   3.269
  397WAT     H2 1434   0.426   8.877   3.209
  398WAT      O 1435   7.186   6.504   0.457
  398WAT     H1 1436   7.158   6.490   0.362
  398WAT     H2 1437   7.238   6.425   0.488
  399WAT      O 1438   2.796   3.137   2.829
  399WAT     H1 1439   2.853   3.149   2.910
  399WAT     H2 1440   2.776   3.226   2.788
  400WAT      O 1441   1.087   7.221   9.884
  400WAT     H1 1442   1.092   7.148   9.952
  400WAT     H2 1443   1.127   7.189   9.797
  401WAT      O 1444   3.673   9.818   3.517
  401WAT     H1 1445   3.661   9.719   3.504
  401WAT     H2 1446   3.669   9.839   3.615
  402WAT      O 1447   1.534   9.840   0.186
  402WAT     H1 1448   1.564   9.875   0.097
  402WAT     H2 1449   1.601   9.775   0.221
  403WAT      O 1450   0.130   9.585   8.513
  403WAT     H1 1451   0.209   9.531   8.541
  403WAT     H2 1452   0.096   9.639   8.590
  404WAT      O 1453   9.151   1.139   2.961
  404WAT     H1 1454   9.163   1.202   3.038
  404WAT     H2 1455   9.218   1.161   2.890
  405WAT      O 1456   3.071   7.136   1.996
  405WAT     H1 1457   3.125   7.185   2.065
  405WAT     H2 1458   3.102   7.042   1.990
  406WAT      O 1459   0.068   2.901   6.293
  406WAT     H1 1460   0.105   2.826   6.238
  406WAT     H2 1461  -0.020   2.929   6.255
  407WAT      O 1462   8.045   6.820   7.853
  407WAT     H1 1463   7.991   6.842   7.934
  407WAT     H2 1464   8.005   6.865   7.773
  408WAT      O 1465   5.805   1.394   7.809
  408WAT     H1 1466   5.726   1.394   7.870
  408WAT     H2 1467   5.888   1.413   7.861
  409WAT      O 1468   9.554   1.240   6.937
  409WAT     H1 1469   9.650   1.225   6.960
  409WAT     H2 1470   9.541   1.222   6.839
  410WAT      O 1471   2.204   9.667   0.649
  410WAT     H1 1472   2.106   9.647   0.651
  410WAT     H2 1473   2.220   9.759   0.614
  411WAT      O 1474   3.833   2.322   9.264
  411WAT     H1 1475   3.783   2.267   9.330
  411WAT     H2 1476   3.931   2.303   9.272
  412WAT      O 1477   9.449   7.712   3.252
  412WAT     H1 1478   9.361   7.690   3.211
  412WAT     H2 1479   9.519   7.650   3.216
  413WAT      O 1480   4.653   9.115   2.162
  413WAT     H1 1481   4.569   9.090   2.113
  413WAT     H2 1482   4.659   9.214   2.170
  414WAT      O 1483   9.223   7.745   2.698
  414WAT     H1 1484   9.266   7.785   2.618
  414WAT     H2 1485   9.154   7.809   2.734
  415WAT      O 1486   5.527   1.987   1.706
  415WAT     H1 1487   5.463   1.986   1.629
  415WAT     H2 1488   5.616   1.952   1.676
  416WAT      O 1489   5.121   7.182   5.724
  416WAT     H1 1490   5.037   7.140   5.758
  416WAT     H2 1491   5.200   7.134   5.761
  417WAT      O 1492   1.314   0.492   7.637
  417WAT     H1 1493   1.312   0.430   7.558
  417WAT     H2 1494   1.401   0.542   7.637
  418WAT      O 1495   8.672   0.559   9.150
  418WAT     H1 1496   8.727   0.476   9.139
  418WAT     H2 1497   8.673   0.586   9.247
  419WAT      O 1498   1.736   1.460   1.635
  419WAT     H1 1499   1.767   1.516   1.559
  419WAT     H2 1500   1.652   1.411   1.609
  420WAT      O 1501   5.260   6.754   7.337
  420WAT     H1 1502   5.168   6.764   7.374
  420WAT     H2 1503   5.327   6.768   7.410
  421WAT      O 1504   1.858   6.298   5.864
  421WAT     H1 1505   1.906   6.377   5.901
  421WAT     H2 1506   1.910   6.215   5.882
  422WAT      O 1507   0.634   9.293   0.491
  422WAT     H1 1508   0.612   9.202   0.528
  422WAT     H2 1509   0.720   9.325   0.533
  423WAT      O 1510   0.243   9.151   3.255
  423WAT     H1 1511   0.172   9.127   3.188
  423WAT     H2 1512   0.292   9.068   3.282
  424WAT      O 1513   0.902   8.528   8.639
  424WAT     H1 1514   0.912   8.453   8.574
  424WAT     H2 1515   0.961   8.604   8.612
  425WAT      O 1516   5.433   9.708   0.564
  425WAT     H1 1517   5.361   9.722   0.496
  425WAT     H2 1518   5.489   9.790   0.571
  426WAT      O 1519   3.508   3.101   2.563
  426WAT     H1 1520   3.470   3.134   2.649
  426WAT     H2 1521   3.559   3.175   2.519
  427WAT      O 1522   6.429   7.673   6.622
  427WAT     H1 1523   6.366   7.603   6.656
  427WAT     H2 1524   6.517   7.663   6.669
  428WAT      O 1525   9.311   5.342   5.829
  428WAT     H1 1526   9.213   5.321   5.818
  428WAT     H2 1527   9.362   5.257   5.835
  429WAT      O 1528   2.485   8.759   2.626
  429WAT     H1 1529   2.577   8.789   2.651
  429WAT     H2 1530   2.427   8.840   2.610
  430WAT      O 1531   8.465   8.011   1.945
  430WAT     H1 1532   8.520   8.087   1.981
  430WAT     H2 1533   8.459   7.939   2.014
  431WAT      O 1534   4.480   4.203   8.692
  431WAT     H1 1535   4.572   4.181   8.727
  431WAT     H2 1536   4.488   4.263   8.613
  432WAT      O 1537   7.404   9.110   3.754
  432WAT     H1 1538   7.304   9.100   3.747
  432WAT     H2 1539   7.434   9.186   3.697
  433WAT      O 1540   9.402   4.621   6.442
  433WAT     H1 1541   9.333   4.557   6.408
  433WAT     H2 1542   9.385   4.639   6.539
  434WAT      O 1543   9.591   2.035   7.444
  434WAT     H1 1544   9.654   2.094   7.393
  434WAT     H2 1545   9.620   1.940   7.435
  435WAT      O 1546   7.229   2.659   5.755
  435WAT     H1 1547   7.197   2.574   5.713
  435WAT     H2 1548   7.162   2.731   5.739
  436WAT      O 1549   5.224   6.594   3.357
  436WAT     H1 1550   5.176   6.519   3.402
  436WAT     H2 1551   5.268   6.560   3.273
  437WAT      O 1552   9.821   0.722   0.198
  437WAT     H1 1553   9.766   0.727   0.114
  437WAT     H2 1554   9.915   0.748   0.177
  438WAT      O 1555   6.322   1.383   4.717
  438WAT     H1 1556   6.233   1.367   4.675
  438WAT     H2 1557   6.324   1.473   4.760
  439WAT      O 1558   6.648   5.512   4.501
  439WAT     H1 1559   6.587   5.515   4.581
  439WAT     H2 1560   6.629   5.591   4.442
  440WAT      O 1561   1.004   8.957   1.607
  440WAT     H1 1562   0.929   9.013   1.573
  440WAT     H2 1563   0.997   8.948   1.706
  441WAT      O 1564   0.591   9.111   7.031
  441WAT     H1 1565   0.552   9.077   6.945
  441WAT     H2 1566   0.687   9.085   7.036
  442WAT      O 1567   2.456   6.975   3.987
  442WAT     H1 1568   2.456   6.989   4.086
  442WAT     H2 1569   2.492   6.885   3.965
  443WAT      O 1570   2.918   6.167   7.128
  443WAT     H1 1571   2.937   6.113   7.210
  443WAT     H2 1572   2.863   6.113   7.064
  444WAT      O 1573   1.704   2.301   6.866
  444WAT     H1 1574   1.613   2.260   6.874
  444WAT     H2 1575   1.704   2.370   6.794
  445WAT      O 1576   8.535   0.797   7.608
  445WAT     H1 1577   8.516   0.726   7.540
  445WAT     H2 1578   8.563   0.754   7.694
  446WAT      O 1579   6.876   0.339   0.095
  446WAT     H1 1580   6.927   0.402   0.154
  446WAT     H2 1581   6.786   0.321   0.136
  447WAT      O 1582   2.724   3.597   8.130
  447WAT     H1 1583   2.750   3.690   8.155
  447WAT     H2 1584   2.729   3.538   8.211
  448WAT      O 1585   1.516   9.233   8.324
  448WAT     H1 1586   1.472   9.201   8.239
  448WAT     H2 1587   1.612   9.253   8.306
  449WAT      O 1588   6.173   6.273   5.888
  449WAT     H1 1589   6.260   6.225   5.897
  449WAT     H2 1590   6.191   6.369   5.865
  450WAT      O 1591   7.164   5.957   4.333
  450WAT     H1 1592   7.191   5.913   4.419
  450WAT     H2 1593   7.245   5.995   4.289
  451WAT      O 1594   9.153   0.940   1.671
  451WAT     H1 1595   9.125   1.027   1.630
  451WAT     H2 1596   9.107   0.864   1.624
  452WAT      O 1597   2.822   3.728   2.012
  452WAT     H1 1598   2.884   3.704   2.087
  452WAT     H2 1599   2.761   3.651   1.993
  453WAT      O 1600   1.620   4.438   8.605
  453WAT     H1 1601   1.538   4.455   8.550
  453WAT     H2 1602   1.621   4.343   8.635
  454WAT      O 1603   6.119   7.148   2.593
  454WAT     H1 1604   6.108   7.071   2.656
  454WAT     H2 1605   6.209   7.142   2.550
  455WAT      O 1606   6.758   2.299   1.305
  455WAT     H1 1607   6.724   2.231   1.241
  455WAT     H2 1608   6.847   2.270   1.341
  456WAT      O 1609   8.191   2.492   6.144
  456WAT     H1 1610   8.168   2.437   6.063
  456WAT     H2 1611   8.133   2.464   6.221
  457WAT      O 1612   6.464   3.082   5.550
  457WAT     H1 1613   6.538   3.050   5.490
  457WAT     H2 1614   6.441   3.176   5.525
  458WAT      O 1615   9.215   2.887   7.493
  458WAT     H1 1616   9.298   2.913   7.443
  458WAT     H2 1617   9.139   2.945   7.462
  459WAT      O 1618   2.426   0.292   4.691
  459WAT     H1 1619   2.338   0.253   4.663
  459WAT     H2 1620   2.464   0.345   4.615
  460WAT      O 1621   0.027   1.766   3.275
  460WAT     H1 1622   0.046   1.671   3.297
  460WAT     H2 1623   0.097   1.801   3.214
  461WAT      O 1624   7.455   1.857   7.779
  461WAT     H1 1625   7.356   1.872   7.776
  461WAT     H2 1626   7.491   1.892   7.865
  462WAT      O 1627   0.385   3.928   0.168
  462WAT     H1 1628   0.443   3.848   0.187
  462WAT     H2 1629   0.289   3.904   0.180
  463WAT      O 1630   7.203   6.834   3.554
  463WAT     H1 1631   7.131   6.885   3.507
  463WAT     H2 1632   7.181   6.736   3.551
  464WAT      O 1633   1.170   4.794   4.422
  464WAT     H1 1634   1.229   4.845   4.484
  464WAT     H2 1635   1.201   4.700   4.415
  465WAT      O 1636   2.377   0.011   7.430
  465WAT     H1 1637   2.459  -0.043   7.410
  465WAT     H2 1638   2.361   0.075   7.355
  466WAT      O 1639   7.597   4.449   2.568
  466WAT     H1 1640   7.644   4.503   2.499
  466WAT     H2 1641   7.498   4.457   2.556
  467WAT      O 1642   6.158   0.988   3.076
  467WAT     H1 1643   6.101   0.975   2.994
  467WAT     H2 1644   6.100   0.984   3.157
  468WAT      O 1645   6.076   1.695   4.305
  468WAT     H1 1646   6.096   1.634   4.228
  468WAT     H2 1647   6.128   1.665   4.386
  469WAT      O 1648   0.300   0.351   8.764
  469WAT     H1 1649   0.219   0.350   8.823
  469WAT     H2 1650   0.281   0.407   8.683
  470WAT      O 1651   9.291   1.475   5.702
  470WAT     H1 1652   9.273   1.519   5.790
  470WAT     H2 1653   9.282   1.376   5.712
  471WAT      O 1654   2.462   9.131   7.719
  471WAT     H1 1655   2.367   9.109   7.744
  471WAT     H2 1656   2.467   9.227   7.691
  472WAT      O 1657   9.559   4.897   2.061
  472WAT     H1 1658   9.609   4.818   2.097
  472WAT     H2 1659   9.599   4.981   2.098
  473WAT      O 1660   0.483   6.941   5.606
  473WAT     H1 1661   0.567   6.890   5.589
  473WAT     H2 1662   0.504   7.022   5.662
  474WAT      O 1663   0.667   5.380   4.558
  474WAT     H1 1664   0.634   5.473   4.573
  474WAT     H2 1665   0.658   5.357   4.461
  475WAT      O 1666   1.178   1.060   5.035
  475WAT     H1 1667   1.209   1.113   5.114
  475WAT     H2 1668   1.098   1.006   5.061
  476WAT      O 1669   9.084   9.649   7.827
  476WAT     H1 1670   9.061   9.711   7.902
  476WAT     H2 1671   9.178   9.616   7.839
  477WAT      O 1672   8.523   0.005   1.184
  477WAT     H1 1673   8.499   0.052   1.100
  477WAT     H2 1674   8.619  -0.023   1.182
  478WAT      O 1675   1.996   1.644   9.790
  478WAT     H1 1676   1.918   1.706   9.803
  478WAT     H2 1677   2.080   1.690   9.818
  479WAT      O 1678   2.058   8.832   2.820
  479WAT     H1 1679   2.130   8.763   2.827
  479WAT     H2 1680   2.039   8.850   2.723
  480WAT      O 1681   6.025   2.090   5.076
  480WAT     H1 1682   5.942   2.141   5.057
  480WAT     H2 1683   6.041   2.023   5.004
  481WAT      O 1684   7.751   6.248   0.525
  481WAT     H1 1685   7.780   6.223   0.617
  481WAT     H2 1686   7.758   6.347   0.513
  482WAT      O 1687   8.473   4.444   3.694
  482WAT     H1 1688   8.498   4.358   3.651
  482WAT     H2 1689   8.383   4.473   3.661
  483WAT      O 1690   9.699   0.864   2.208
  483WAT     H1 1691   9.785   0.914   2.206
  483WAT     H2 1692   9.693   0.810   2.292
  484WAT      O 1693   6.934   8.412   9.245
  484WAT     H1 1694   6.965   8.339   9.306
  484WAT     H2 1695   6.863   8.376   9.184
  485WAT      O 1696   9.862   3.581   1.261
  485WAT     H1 1697   9.923   3.603   1.337
  485WAT     H2 1698   9.784   3.643   1.261
  486WAT      O 1699   4.967   6.186   6.672
  486WAT     H1 1700   5.044   6.163   6.731
  486WAT     H2 1701   4.990   6.265   6.615
  487WAT      O 1702   9.636   8.717   3.766
  487WAT     H1 1703   9.561   8.755   3.711
  487WAT     H2 1704   9.693   8.659   3.708
  488WAT      O 1705   1.362   6.900   1.266
  488WAT     H1 1706   1.415   6.819   1.292
  488WAT     H2 1707   1.339   6.895   1.168
  489WAT      O 1708   1.199   9.217   5.466
  489WAT     H1 1709   1.222   9.192   5.559
  489WAT     H2 1710   1.174   9.314   5.463
  490WAT      O 1711   2.695   8.293   5.449
  490WAT     H1 1712   2.792   8.298   5.472
  490WAT     H2 1713   2.671   8.366   5.385
  491WAT      O 1714   2.543   1.595   7.842
  491WAT     H1 1715   2.635   1.574   7.810
  491WAT     H2 1716   2.479   1.592   7.765
  492WAT      O 1717   6.891   5.984   1.211
  492WAT     H1 1718   6.796   5.967   1.184
  492WAT     H2 1719   6.943   5.899   1.203
  493WAT      O 1720   8.623   5.788   2.108
  493WAT     H1 1721   8.628   5.741   2.020
  493WAT     H2 1722   8.706   5.841   2.122
  494WAT      O 1723   1.799   8.076   3.337
  494WAT     H1 1724   1.778   8.034   3.248
  494WAT     H2 1725   1.719   8.126   3.370
  495WAT      O 1726   8.737   3.466   7.369
  495WAT     H1 1727   8.741   3.371   7.339
  495WAT     H2 1728   8.826   3.494   7.403
  496WAT      O 1729   9.010   0.711   9.883
  496WAT     H1 1730   9.059   0.731   9.798
  496WAT     H2 1731   8.980   0.616   9.882
  497WAT      O 1732   5.343   9.360   2.824
  497WAT     H1 1733   5.315   9.357   2.920
  497WAT     H2 1734   5.436   9.323   2.816
  498WAT      O 1735   5.540   7.209   5.657
  498WAT     H1 1736   5.463   7.208   5.593
  498WAT     H2 1737   5.509   7.243   5.746
  499WAT      O 1738   9.215   2.553   8.609
  499WAT     H1 1739   9.216   2.625   8.679
  499WAT     H2 1740   9.125   2.549   8.567
  500WAT      O 1741   3.721   7.528   0.150
  500WAT     H1 1742   3.667   7.453   0.112
  500WAT     H2 1743   3.772   7.574   0.077
  501WAT      O 1744   3.534   5.133   8.871
  501WAT     H1 1745   3.628   5.135   8.838
  501WAT     H2 1746   3.477   5.076   8.811
  502WAT      O 1747   9.240   0.624   2.946
  502WAT     H1 1748   9.151   0.621   2.902
  502WAT     H2 1749   9.248   0.707   3.001
  503WAT      O 1750   7.330   5.448   3.864
  503WAT     H1 1751   7.294   5.414   3.950
  503WAT     H2 1752   7.430   5.443   3.865
  504WAT      O 1753   8.792   1.269   3.149
  504WAT     H1 1754   8.851   1.260   3.229
  504WAT     H2 1755   8.798   1.363   3.114
  505WAT      O 1756   9.341   0.647   4.508
  505WAT     H1 1757   9.316   0.550   4.517
  505WAT     H2 1758   9.437   0.654   4.481
  506WAT      O 1759   2.600   6.772   2.270
  506WAT     H1 1760   2.601   6.742   2.365
  506WAT     H2 1761   2.510   6.754   2.230
  507WAT      O 1762   4.186   5.921   2.683
  507WAT     H1 1763   4.140   5.906   2.595
  507WAT     H2 1764   4.276   5.962   2.667
  508WAT      O 1765   7.170   3.334   8.606
  508WAT     H1 1766   7.215   3.423   8.599
  508WAT     H2 1767   7.191   3.279   8.525
  509WAT      O 1768   7.935   0.932   8.418
  509WAT     H1 1769   7.933   0.919   8.517
  509WAT     H2 1770   8.027   0.957   8.389
  510WAT      O 1771   9.459   3.018   8.932
  510WAT     H1 1772   9.451   2.942   8.868
  510WAT     H2 1773   9.536   3.076   8.905
  511WAT      O 1774   5.801   4.111   8.623
  511WAT     H1 1775   5.755   4.023   8.615
  511WAT     H2 1776   5.806   4.155   8.533
  512WAT      O 1777   1.330   0.028   0.553
  512WAT     H1 1778   1.386   0.066   0.479
  512WAT     H2 1779   1.334   0.089   0.632
  513WAT      O 1780   2.615   4.926   4.666
  513WAT     H1 1781   2.694   4.891   4.614
  513WAT     H2 1782   2.639   5.013   4.708
  514WAT      O 1783   1.905   3.982   0.503
  514WAT     H1 1784   1.846   3.932   0.566
  514WAT     H2 1785   1.980   3.923   0.473
  515WAT      O 1786   1.526   6.659   4.668
  515WAT     H1 1787   1.584   6.699   4.598
  515WAT     H2 1788   1.531   6.559   4.663
  516WAT      O 1789   1.125   4.565   2.375
  516WAT     H1 1790   1.035   4.589   2.412
  516WAT     H2 1791   1.130   4.466   2.363
  517WAT      O 1792   5.331   0.880   2.978
  517WAT     H1 1793   5.234   0.865   2.959
  517WAT     H2 1794   5.385   0.810   2.932
  518WAT      O 1795   8.591   5.121   6.361
  518WAT     H1 1796   8.541   5.203   6.333
  518WAT     H2 1797   8.662   5.146   6.427
  519WAT      O 1798   3.640   2.207   1.961
  519WAT     H1 1799   3.729   2.217   2.007
  519WAT     H2 1800   3.619   2.292   1.912
  520WAT      O 1801   7.909   9.716   4.309
  520WAT     H1 1802   7.876   9.799   4.353
  520WAT     H2 1803   7.953   9.740   4.222
  521WAT      O 1804   4.531   4.031   6.807
  521WAT     H1 1805   4.448   4.021   6.753
  521WAT     H2 1806   4.528   3.966   6.883
  522WAT      O 1807   7.107   5.557   6.587
  522WAT     H1 1808   7.202   5.526   6.582
  522WAT     H2 1809   7.078   5.562   6.682
  523WAT      O 1810   6.077   5.135   7.947
  523WAT     H1 1811   6.041   5.071   8.015
  523WAT     H2 1812   6.097   5.085   7.862
  524WAT      O 1813   7.219   4.512   4.015
  524WAT     H1 1814   7.184   4.556   4.097
  524WAT     H2 1815   7.280   4.437   4.041
  525WAT      O 1816   0.975   6.337   4.340
  525WAT     H1 1817   1.074   6.350   4.329
  525WAT     H2 1818   0.938   6.292   4.258
  526WAT      O 1819   4.969   3.133   9.197
  526WAT     H1 1820   4.945   3.042   9.164
  526WAT     H2 1821   4.903   3.163   9.266
  527WAT      O 1822   6.454   7.636   0.078
  527WAT     H1 1823   6.408   7.553   0.109
  527WAT     H2 1824   6.452   7.640  -0.022
  528WAT      O 1825   5.639   8.291   1.489
  528WAT     H1 1826   5.674   8.338   1.570
  528WAT     H2 1827   5.611   8.198   1.513
  529WAT      O 1828   2.466   1.065   3.837
  529WAT     H1 1829   2.465   0.970   3.807
  529WAT     H2 1830   2.400   1.118   3.784
  530WAT      O 1831   0.249   8.740   8.252
  530WAT     H1 1832   0.221   8.831   8.223
  530WAT     H2 1833   0.175   8.675   8.234
  531WAT      O 1834   0.037   9.474   3.909
  531WAT     H1 1835   0.065   9.548   3.971
  531WAT     H2 1836  -0.062   9.472   3.902
  532WAT      O 1837   3.986   6.654   9.777
  532WAT     H1 1838   3.979   6.621   9.871
  532WAT     H2 1839   3.895   6.667   9.739
  533WAT      O 1840   6.583   4.662   1.864
  533WAT     H1 1841   6.633   4.630   1.945
  533WAT     H2 1842   6.598   4.760   1.853
  534WAT      O 1843   0.192   8.910   3.843
  534WAT     H1 1844   0.224   8.876   3.931
  534WAT     H2 1845   0.268   8.916   3.779
  535WAT      O 1846   3.242   3.842   1.122
  535WAT     H1 1847   3.158   3.813   1.168
  535WAT     H2 1848   3.255   3.787   1.039
  536WAT      O 1849   1.798   2.150   8.935
  536WAT     H1 1850   1.807   2.099   9.020
  536WAT     H2 1851   1.834   2.242   8.947
  537WAT      O 1852   1.149   5.638   7.357
  537WAT     H1 1853   1.184   5.630   7.450
  537WAT     H2 1854   1.121   5.733   7.340
  538WAT      O 1855   0.675   1.796   3.441
  538WAT     H1 1856   0.580   1.791   3.410
  538WAT     H2 1857   0.714   1.704   3.445
  539WAT      O 1858   8.399   7.373   3.988
  539WAT     H1 1859   8.317   7.341   3.939
  539WAT     H2 1860   8.378   7.458   4.035
  540WAT      O 1861   8.222   4.366   6.266
  540WAT     H1 1862   8.169   4.388   6.348
  540WAT     H2 1863   8.304   4.314   6.291
  541WAT      O 1864   9.063   1.428   3.718
  541WAT     H1 1865   9.060   1.461   3.812
  541WAT     H2 1866   9.133   1.357   3.710
  542WAT      O 1867   0.672   4.339   0.166
  542WAT     H1 1868   0.581   4.299   0.177
  542WAT     H2 1869   0.681   4.376   0.073
  543WAT      O 1870   8.877   9.595   6.415
  543WAT     H1 1871   8.817   9.603   6.335
  543WAT     H2 1872   8.967   9.562   6.386
  544WAT      O 1873   7.806   7.687   0.597
  544WAT     H1 1874   7.789   7.625   0.520
  544WAT     H2 1875   7.884   7.654   0.650
  545WAT      O 1876   5.218   3.953   1.343
  545WAT     H1 1877   5.281   3.898   1.397
  545WAT     H2 1878   5.125   3.919   1.355
  546WAT      O 1879   0.868   8.874   6.468
  546WAT     H1 1880   0.928   8.938   6.516
  546WAT     H2 1881   0.899   8.863   6.373
  547WAT      O 1882   1.348   4.767   9.415
  547WAT     H1 1883   1.415   4.840   9.401
  547WAT     H2 1884   1.392   4.689   9.459
  548WAT      O 1885   8.588   1.592   4.766
  548WAT     H1 1886   8.616   1.680   4.729
  548WAT     H2 1887   8.667   1.543   4.801
  549WAT      O 1888   6.696   3.706   4.986
  549WAT     H1 1889   6.703   3.683   4.889
  549WAT     H2 1890   6.626   3.649   5.028
  550WAT      O 1891   2.187   1.011   6.544
  550WAT     H1 1892   2.236   1.096   6.527
  550WAT     H2 1893   2.253   0.939   6.567
  551WAT      O 1894   4.406   5.673   7.187
  551WAT     H1 1895   4.417   5.609   7.111
  551WAT     H2 1896   4.491   5.726   7.198
  552WAT      O 1897   3.318   3.585   2.628
  552WAT     H1 1898   3.317   3.581   2.728
  552WAT     H2 1899   3.252   3.520   2.591
  553WAT      O 1900   6.892   9.566   5.476
  553WAT     H1 1901   6.932   9.607   5.395
  553WAT     H2 1902   6.964   9.525   5.532
  554WAT      O 1903   1.296   8.308   5.357
  554WAT     H1 1904   1.312   8.235   5.292
  554WAT     H2 1905   1.243   8.381   5.314
  555WAT      O 1906   5.812   6.296   9.137
  555WAT     H1 1907   5.752   6.351   9.079
  555WAT     H2 1908   5.891   6.350   9.164
  556WAT      O 1909   2.514   8.183   2.679
  556WAT     H1 1910   2.504   8.093   2.636
  556WAT     H2 1911   2.608   8.194   2.712
  557WAT      O 1912   0.713   2.382   5.845
  557WAT     H1 1913   0.730   2.302   5.787
  557WAT     H2 1914   0.657   2.448   5.795
  558WAT      O 1915   1.341   5.436   7.279
  558WAT     H1 1916   1.268   5.499   7.304
  558WAT     H2 1917   1.319   5.344   7.311
  559WAT      O 1918   3.696   0.044   6.855
  559WAT     H1 1919   3.685  -0.040   6.802
  559WAT     H2 1920   3.792   0.058   6.876
  560WAT      O 1921   2.629   6.348   0.006
  560WAT     H1 1922   2.725   6.370   0.022
  560WAT     H2 1923   2.599   6.277   0.070
  561WAT      O 1924   9.700   5.243   1.051
  561WAT     H1 1925   9.625   5.257   1.115
  561WAT     H2 1926   9.678   5.169   0.988
  562WAT      O 1927   1.046   7.526   1.367
  562WAT     H1 1928   1.086   7.501   1.455
  562WAT     H2 1929   0.987   7.606   1.379
  563WAT      O 1930   4.091   6.397   0.326
  563WAT     H1 1931   4.007   6.427   0.283
  563WAT     H2 1932   4.165   6.460   0.303
  564WAT      O 1933   0.980   6.619   5.812
  564WAT     H1 1934   1.008   6.709   5.779
  564WAT     H2 1935   0.909   6.629   5.881
  565WAT      O 1936   8.426   2.884   6.152
  565WAT     H1 1937   8.450   2.853   6.244
  565WAT     H2 1938   8.504   2.869   6.090
  566WAT      O 1939   7.006   0.521   6.457
  566WAT     H1 1940   7.102   0.494   6.445
  566WAT     H2 1941   6.977   0.500   6.551
  567WAT      O 1942   3.243   0.754   0.324
  567WAT     H1 1943   3.166   0.783   0.267
  567WAT     H2 1944   3.323   0.738   0.267
  568WAT      O 1945   7.968   0.858   8.672
  568WAT     H1 1946   8.043   0.839   8.736
  568WAT     H2 1947   7.920   0.941   8.700
  569WAT      O 1948   2.265   5.169   7.611
  569WAT     H1 1949   2.274   5.216   7.523
  569WAT     H2 1950   2.355   5.138   7.642
  570WAT      O 1951   4.644   3.688   3.085
  570WAT     H1 1952   4.706   3.730   3.018
  570WAT     H2 1953   4.549   3.704   3.057
  571WAT      O 1954   5.616   8.969   9.091
  571WAT     H1 1955   5.576   8.941   9.179
  571WAT     H2 1956   5.562   9.044   9.053
  572WAT      O 1957   1.788   9.631   5.288
  572WAT     H1 1958   1.789   9.673   5.197
  572WAT     H2 1959   1.744   9.693   5.352
  573WAT      O 1960   4.802   4.697   6.234
  573WAT     H1 1961   4.752   4.646   6.304
  573WAT     H2 1962   4.846   4.776   6.276
  574WAT      O 1963   0.500   6.005   8.344
  574WAT     H1 1964   0.415   6.054   8.325
  574WAT     H2 1965   0.572   6.070   8.366
  575WAT      O 1966   1.151   5.862   1.550
  575WAT     H1 1967   1.075   5.797   1.555
  575WAT     H2 1968   1.232   5.815   1.513
  576WAT      O 1969   4.935   6.463   3.070
  576WAT     H1 1970   4.935   6.390   3.138
  576WAT     H2 1971   4.874   6.440   2.996
  577WAT      O 1972   5.684   3.127   8.822
  577WAT     H1 1973   5.749   3.074   8.877
  577WAT     H2 1974   5.733   3.181   8.754
  578WAT      O 1975   3.206   4.097   8.384
  578WAT     H1 1976   3.305   4.088   8.372
  578WAT     H2 1977   3.180   4.193   8.381
  579WAT      O 1978   4.536   8.237   7.468
  579WAT     H1 1979   4.483   8.295   7.405
  579WAT     H2 1980   4.481   8.219   7.550
  580WAT      O 1981   9.793   2.286   7.133
  580WAT     H1 1982   9.790   2.348   7.211
  580WAT     H2 1983   9.700   2.272   7.098
  581WAT      O 1984   4.601   1.124   6.048
  581WAT     H1 1985   4.694   1.158   6.033
  581WAT     H2 1986   4.537   1.181   5.997
  582WAT      O 1987   6.389   3.133   5.247
  582WAT     H1 1988   6.329   3.170   5.176
  582WAT     H2 1989   6.334   3.103   5.325
  583WAT      O 1990   5.159   9.297   6.415
  583WAT     H1 1991   5.226   9.366   6.388
  583WAT     H2 1992   5.207   9.212   6.439
  584WAT      O 1993   7.239   0.188   2.214
  584WAT     H1 1994   7.142   0.183   2.236
  584WAT     H2 1995   7.252   0.233   2.126
  585WAT      O 1996   2.884   6.970   9.287
  585WAT     H1 1997   2.965   6.922   9.252
  585WAT     H2 1998   2.806   6.952   9.227
  586WAT      O 1999   6.896   1.282   9.347
  586WAT     H1 2000   6.930   1.362   9.396
  586WAT     H2 2001   6.966   1.211   9.347
  587WAT      O 2002   5.200   1.184   8.091
  587WAT     H1 2003   5.140   1.214   8.017
  587WAT     H2 2004   5.295   1.191   8.061
  588WAT      O 2005   7.038   0.040   5.482
  588WAT     H1 2006   7.003   0.060   5.391
  588WAT     H2 2007   7.128   0.082   5.493
  589WAT      O 2008   9.568   8.246   2.542
  589WAT     H1 2009   9.468   8.247   2.540
  589WAT     H2 2010   9.600   8.253   2.636
  590WAT      O 2011   8.033   7.771   1.773
  590WAT     H1 2012   8.001   7.821   1.692
  590WAT     H2 2013   8.113   7.716   1.749
  591WAT      O 2014   4.194   3.054   4.898
  591WAT     H1 2015   4.281   3.006   4.909
  591WAT     H2 2016   4.174   3.063   4.801
  592WAT      O 2017   7.444   8.771   9.042
  592WAT     H1 2018   7.382   8.763   9.120
  592WAT     H2 2019   7.405   8.834   8.975
  593WAT      O 2020   3.058   9.397   8.843
  593WAT     H1 2021   3.119   9.445   8.906
  593WAT     H2 2022   3.113   9.346   8.777
  594WAT      O 2023   2.408   0.630   4.111
  594WAT     H1 2024   2.465   0.628   4.194
  594WAT     H2 2025   2.387   0.537   4.083
  595WAT      O 2026   6.177   8.295   0.565
  595WAT     H1 2027   6.174   8.387   0.525
  595WAT     H2 2028   6.212   8.230   0.497
  596WAT      O 2029   8.686   2.554   0.287
  596WAT     H1 2030   8.593   2.564   0.252
  596WAT     H2 2031   8.714   2.458   0.280
  597WAT      O 2032   1.396   2.404   5.709
  597WAT     H1 2033   1.373   2.334   5.777
  597WAT     H2 2034   1.362   2.493   5.742
  598WAT      O 2035   0.061   3.296   4.157
  598WAT     H1 2036   0.109   3.226   4.209
  598WAT     H2 2037  -0.016   3.330   4.211
  599WAT      O 2038   2.060   8.048   6.480
  599WAT     H1 2039   2.050   7.965   6.535
  599WAT     H2 2040   2.087   8.024   6.387
  600WAT      O 2041   1.832   4.208   2.443
  600WAT     H1 2042   1.893   4.269   2.392
  600WAT     H2 2043   1.740   4.246   2.442
  601WAT      O 2044   6.176   8.281   3.155
  601WAT     H1 2045   6.261   8.300   3.204
  601WAT     H2 2046   6.153   8.360   3.098
  602WAT      O 2047   1.891   5.480   7.626
  602WAT     H1 2048   1.878   5.402   7.688
  602WAT     H2 2049   1.905   5.563   7.679
  603WAT      O 2050   9.366   0.045   6.117
  603WAT     H1 2051   9.377  -0.041   6.167
  603WAT     H2 2052   9.410   0.037   6.027
  604WAT      O 2053   7.950   6.414   8.976
  604WAT     H1 2054   7.997   6.434   9.062
  604WAT     H2 2055   7.864   6.466   8.972
  605WAT      O 2056   7.598   4.915   8.072
  605WAT     H1 2057   7.620   4.857   8.150
  605WAT     H2 2058   7.534   4.867   8.012
  606WAT      O 2059   9.032   1.534   2.508
  606WAT     H1 2060   9.130   1.533   2.527
  606WAT     H2 2061   8.985   1.477   2.575
  607WAT      O 2062   2.802   6.948   7.996
  607WAT     H1 2063   2.719   7.005   8.001
  607WAT     H2 2064   2.882   7.007   8.000
  608WAT      O 2065   5.045   0.858   5.860
  608WAT     H1 2066   4.984   0.802   5.916
  608WAT     H2 2067   5.060   0.946   5.905
  609WAT      O 2068   2.990   2.135   8.299
  609WAT     H1 2069   2.983   2.056   8.238
  609WAT     H2 2070   3.086   2.157   8.315
  610WAT      O 2071   1.538   5.963   5.162
  610WAT     H1 2072   1.490   5.912   5.090
  610WAT     H2 2073   1.636   5.950   5.151
  611WAT      O 2074   6.495   1.680   5.265
  611WAT     H1 2075   6.568   1.733   5.221
  611WAT     H2 2076   6.473   1.601   5.208
  612WAT      O 2077   8.349   1.984   1.466
  612WAT     H1 2078   8.308   1.938   1.388
  612WAT     H2 2079   8.391   2.070   1.436
  613WAT      O 2080   3.252   0.380   4.656
  613WAT     H1 2081   3.305   0.318   4.598
  613WAT     H2 2082   3.202   0.445   4.598
  614WAT      O 2083   9.218   9.674   2.491
  614WAT     H1 2084   9.127   9.662   2.451
  614WAT     H2 2085   9.231   9.770   2.518
  615WAT      O 2086   8.247   6.116   6.707
  615WAT     H1 2087   8.255   6.151   6.800
  615WAT     H2 2088   8.273   6.019   6.706
  616WAT      O 2089   3.480   7.929   2.668
  616WAT     H1 2090   3.470   7.889   2.759
  616WAT     H2 2091   3.398   7.981   2.645
  617WAT      O 2092   2.877   9.049   1.988
  617WAT     H1 2093   2.907   9.137   2.025
  617WAT     H2 2094   2.876   9.053   1.888
  618WAT      O 2095   9.280   5.181   0.543
  618WAT     H1 2096   9.190   5.177   0.501
  618WAT     H2 2097   9.332   5.098   0.521
  619WAT      O 2098   6.005   4.823   5.837
  619WAT     H1 2099   5.913   4.853   5.812
  619WAT     H2 2100   6.002   4.769   5.921
  620WAT      O 2101   4.666   8.996   0.173
  620WAT     H1 2102   4.616   9.071   0.129
  620WAT     H2 2103   4.676   8.921   0.108
  621WAT      O 2104   5.825   1.368   7.085
  621WAT     H1 2105   5.918   1.387   7.115
  621WAT     H2 2106   5.796   1.278   7.120
  622WAT      O 2107   3.273   2.847   7.937
  622WAT     H1 2108   3.285   2.925   7.875
  622WAT     H2 2109   3.176   2.831   7.952
  623WAT      O 2110   2.856   6.853   2.750
  623WAT     H1 2111   2.882   6.900   2.665
  623WAT     H2 2112   2.909   6.890   2.826
  624WAT      O 2113   8.313   4.941   4.421
  624WAT     H1 2114   8.408   4.970   4.413
  624WAT     H2 2115   8.254   5.021   4.429
  625WAT      O 2116   6.047   6.818   1.500
  625WAT     H1 2117   6.042   6.874   1.583
  625WAT     H2 2118   6.054   6.878   1.420
  626WAT      O 2119   2.765   1.111   2.912
  626WAT     H1 2120   2.852   1.068   2.889
  626WAT     H2 2121   2.777   1.168   2.994
  627WAT      O 2122   7.360   2.507   9.356
  627WAT     H1 2123   7.357   2.576   9.283
  627WAT     H2 2124   7.320   2.422   9.323
  628WAT      O 2125   8.078   7.870   2.262
  628WAT     H1 2126   8.158   7.872   2.321
  628WAT     H2 2127   8.066   7.777   2.226
  629WAT      O 2128   1.463   1.392   1.562
  629WAT     H1 2129   1.438   1.443   1.644
  629WAT     H2 2130   1.380   1.358   1.517
  630WAT      O 2131   5.209   9.744   6.757
  630WAT     H1 2132   5.304   9.713   6.752
  630WAT     H2 2133   5.202   9.822   6.819
  631WAT      O 2134   9.677   2.032   6.748
  631WAT     H1 2135   9.592   1.995   6.711
  631WAT     H2 2136   9.743   2.042   6.673
  632WAT      O 2137   6.839   4.917   0.514
  632WAT     H1 2138   6.909   4.962   0.570
  632WAT     H2 2139   6.873   4.904   0.421
  633WAT      O 2140   9.495   1.282   7.967
  633WAT     H1 2141   9.445   1.369   7.959
  633WAT     H2 2142   9.456   1.215   7.905
  634WAT      O 2143   9.204   1.674   0.387
  634WAT     H1 2144   9.252   1.657   0.473
  634WAT     H2 2145   9.143   1.598   0.367
  635WAT      O 2146   4.204   3.534   6.536
  635WAT     H1 2147   4.171   3.627   6.544
  635WAT     H2 2148   4.187   3.500   6.443
  636WAT      O 2149   2.378   4.297   8.034
  636WAT     H1 2150   2.328   4.375   8.074
  636WAT     H2 2151   2.476   4.310   8.048
  637WAT      O 2152   0.076   1.277   7.751
  637WAT     H1 2153   0.072   1.282   7.851
  637WAT     H2 2154   0.102   1.366   7.714
  638WAT      O 2155   3.281   5.886   8.279
  638WAT     H1 2156   3.232   5.800   8.269
  638WAT     H2 2157   3.219   5.962   8.262
  639WAT      O 2158   4.550   1.274   0.982
  639WAT     H1 2159   4.606   1.235   0.909
  639WAT     H2 2160   4.566   1.373   0.987
  640WAT      O 2161   6.411   8.102   9.139
  640WAT     H1 2162   6.321   8.100   9.183
  640WAT     H2 2163   6.412   8.174   9.069
  641WAT      O 2164   4.614   4.714   0.869
  641WAT     H1 2165   4.601   4.809   0.897
  641WAT     H2 2166   4.626   4.711   0.770
  642WAT      O 2167   7.970   1.334   9.419
  642WAT     H1 2168   7.886   1.321   9.472
  642WAT     H2 2169   7.965   1.280   9.335
  643WAT      O 2170   4.826   0.810   4.289
  643WAT     H1 2171   4.748   0.770   4.337
  643WAT     H2 2172   4.834   0.907   4.311
  644WAT      O 2173   6.301   4.977   8.442
  644WAT     H1 2174   6.351   5.036   8.505
  644WAT     H2 2175   6.244   5.033   8.382
  645WAT      O 2176   2.840   4.838   6.752
  645WAT     H1 2177   2.798   4.803   6.668
  645WAT     H2 2178   2.809   4.932   6.768
  646WAT      O 2179   5.258   4.364   2.094
  646WAT     H1 2180   5.296   4.283   2.140
  646WAT     H2 2181   5.187   4.405   2.151
  647WAT      O 2182   8.101   7.019   3.026
  647WAT     H1 2183   8.141   6.991   3.113
  647WAT     H2 2184   8.003   7.032   3.037
  648WAT      O 2185   2.699   0.756   9.225
  648WAT     H1 2186   2.693   0.665   9.184
  648WAT     H2 2187   2.645   0.821   9.171
  649WAT      O 2188   8.751   0.339   3.509
  649WAT     H1 2189   8.779   0.289   3.591
  649WAT     H2 2190   8.831   0.359   3.453
  650WAT      O 2191   7.713   1.228   9.324
  650WAT     H1 2192   7.630   1.265   9.365
  650WAT     H2 2193   7.721   1.131   9.347
  651WAT      O 2194   0.895   6.139   1.722
  651WAT     H1 2195   0.951   6.111   1.799
  651WAT     H2 2196   0.949   6.135   1.638
  652WAT      O 2197   2.545   7.669   5.426
  652WAT     H1 2198   2.457   7.718   5.428
  652WAT     H2 2199   2.558   7.629   5.335
  653WAT      O 2200   6.735   2.603   8.199
  653WAT     H1 2201   6.645   2.625   8.236
  653WAT     H2 2202   6.799   2.585   8.274
  654WAT      O 2203   1.881   3.919   4.659
  654WAT     H1 2204   1.850   3.963   4.743
  654WAT     H2 2205   1.911   3.988   4.594
  655WAT      O 2206   6.574   8.519   3.208
  655WAT     H1 2207   6.629   8.509   3.291
  655WAT     H2 2208   6.634   8.532   3.129
  656WAT      O 2209   5.446   5.194   1.584
  656WAT     H1 2210   5.414   5.105   1.615
  656WAT     H2 2211   5.406   5.266   1.640
  657WAT      O 2212   7.981   2.312   9.031
  657WAT     H1 2213   7.898   2.367   9.044
  657WAT     H2 2214   8.061   2.366   9.057
  658WAT      O 2215   3.298   5.403   2.366
  658WAT     H1 2216   3.232   5.436   2.433
  658WAT     H2 2217   3.359   5.478   2.339
  659WAT      O 2218   3.736   1.199   8.894
  659WAT     H1 2219   3.779   1.111   8.877
  659WAT     H2 2220   3.784   1.270   8.841
  660WAT      O 2221   0.585   4.493   0.431
  660WAT     H1 2222   0.660   4.490   0.497
  660WAT     H2 2223   0.620   4.524   0.343
  661WAT      O 2224   4.006   2.309   2.977
  661WAT     H1 2225   3.993   2.366   2.896
  661WAT     H2 2226   4.049   2.363   3.049
  662WAT      O 2227   8.465   1.848   6.279
  662WAT     H1 2228   8.488   1.779   6.348
  662WAT     H2 2229   8.385   1.818   6.227
  663WAT      O 2230   1.739   7.444   1.949
  663WAT     H1 2231   1.737   7.539   1.981
  663WAT     H2 2232   1.723   7.383   2.026
  664WAT      O 2233   7.624   3.736   6.990
  664WAT     H1 2234   7.529   3.753   6.963
  664WAT     H2 2235   7.649   3.642   6.965
  665WAT      O 2236   5.155   6.571   1.570
  665WAT     H1 2237   5.159   6.667   1.595
  665WAT     H2 2238   5.070   6.553   1.521
  666WAT      O 2239   0.576   5.711   5.787
  666WAT     H1 2240   0.551   5.654   5.865
  666WAT     H2 2241   0.658   5.673   5.743
  667WAT      O 2242   5.307   5.055   5.113
  667WAT     H1 2243   5.244   5.129   5.137
  667WAT     H2 2244   5.291   5.028   5.018
  668WAT      O 2245   9.713   2.665   7.489
  668WAT     H1 2246   9.779   2.661   7.564
  668WAT     H2 2247   9.628   2.706   7.522
  669WAT      O 2248   7.754   8.307   5.753
  669WAT     H1 2249   7.801   8.276   5.670
  669WAT     H2 2250   7.666   8.348   5.728
  670WAT      O 2251   8.575   9.278   2.470
  670WAT     H1 2252   8.629   9.295   2.387
  670WAT     H2 2253   8.549   9.366   2.511
  671WAT      O 2254   4.314   9.273   2.734
  671WAT     H1 2255   4.358   9.188   2.707
  671WAT     H2 2256   4.297   9.273   2.832
  672WAT      O 2257   4.467   5.407   3.303
  672WAT     H1 2258   4.401   5.422   3.230
  672WAT     H2 2259   4.454   5.316   3.343
  673WAT      O 2260   5.741   5.882   4.065
  673WAT     H1 2261   5.671   5.913   4.000
  673WAT     H2 2262   5.798   5.812   4.021
  674WAT      O 2263   8.130   8.961   6.454
  674WAT     H1 2264   8.168   9.030   6.392
  674WAT     H2 2265   8.172   8.872   6.435
  675WAT      O 2266   6.804   6.507   7.109
  675WAT     H1 2267   6.834   6.532   7.017
  675WAT     H2 2268   6.724   6.562   7.134
  676WAT      O 2269   2.415   8.841   6.694
  676WAT     H1 2270   2.364   8.758   6.670
  676WAT     H2 2271   2.439   8.891   6.610
  677WAT      O 2272   8.221   3.799   1.088
  677WAT     H1 2273   8.320   3.803   1.096
  677WAT     H2 2274   8.184   3.891   1.074
  678WAT      O 2275   4.173   9.475   8.112
  678WAT     H1 2276   4.218   9.435   8.192
  678WAT     H2 2277   4.135   9.564   8.135
  679WAT      O 2278   3.212   3.368   9.625
  679WAT     H1 2279   3.252   3.331   9.709
  679WAT     H2 2280   3.170   3.293   9.572
  680WAT      O 2281   4.659   6.818   9.776
  680WAT     H1 2282   4.625   6.785   9.688
  680WAT     H2 2283   4.759   6.810   9.778
  681WAT      O 2284   2.654   8.802   1.503
  681WAT     H1 2285   2.648   8.744   1.422
  681WAT     H2 2286   2.743   8.789   1.547
  682WAT      O 2287   6.713   1.077   4.913
  682WAT     H1 2288   6.649   1.109   4.842
  682WAT     H2 2289   6.800   1.052   4.871
  683WAT      O 2290   7.419   0.846   1.124
  683WAT     H1 2291   7.506   0.894   1.115
  683WAT     H2 2292   7.347   0.897   1.075
  684WAT      O 2293   6.984   2.794   2.749
  684WAT     H1 2294   7.083   2.796   2.737
  684WAT     H2 2295   6.940   2.832   2.667
  685WAT      O 2296   0.700   7.874   3.665
  685WAT     H1 2297   0.798   7.891   3.672
  685WAT     H2 2298   0.656   7.950   3.618
  686WAT      O 2299   6.864   4.502   1.794
  686WAT     H1 2300   6.833   4.497   1.888
  686WAT     H2 2301   6.937   4.569   1.786
  687WAT      O 2302   2.246   2.145   2.129
  687WAT     H1 2303   2.272   2.177   2.220
  687WAT     H2 2304   2.308   2.184   2.061
  688WAT      O 2305   8.841   1.338   5.347
  688WAT     H1 2306   8.871   1.425   5.387
  688WAT     H2 2307   8.907   1.267   5.369
  689WAT      O 2308   4.809   1.685   3.272
  689WAT     H1 2309   4.903   1.704   3.244
  689WAT     H2 2310   4.803   1.685   3.371
  690WAT      O 2311   1.352   4.952   6.994
  690WAT     H1 2312   1.414   5.029   7.004
  690WAT     H2 2313   1.401   4.875   6.953
  691WAT      O 2314   0.019   8.664   7.991
  691WAT     H1 2315  -0.048   8.736   8.011
  691WAT     H2 2316   0.047   8.620   8.076
  692WAT      O 2317   7.210   0.284   2.910
  692WAT     H1 2318   7.145   0.208   2.908
  692WAT     H2 2319   7.189   0.344   2.986
  693WAT      O 2320   6.757   8.266   2.893
  693WAT     H1 2321   6.746   8.359   2.927
  693WAT     H2 2322   6.845   8.229   2.922
  694WAT      O 2323   0.278   6.105   6.477
  694WAT     H1 2324   0.247   6.123   6.570
  694WAT     H2 2325   0.351   6.169   6.453
  695WAT      O 2326   1.042   1.306   5.216
  695WAT     H1 2327   1.003   1.316   5.125
  695WAT     H2 2328   0.977   1.259   5.276
  696WAT      O 2329   4.370   0.054   0.807
  696WAT     H1 2330   4.321  -0.027   0.841
  696WAT     H2 2331   4.313   0.135   0.818
  697WAT      O 2332   9.629   1.444   5.247
  697WAT     H1 2333   9.614   1.533   5.290
  697WAT     H2 2334   9.649   1.456   5.150
  698WAT      O 2335   7.200   5.052   2.423
  698WAT     H1 2336   7.218   5.104   2.507
  698WAT     H2 2337   7.154   5.111   2.356
  699WAT      O 2338   4.433   4.515   7.067
  699WAT     H1 2339   4.383   4.559   7.141
  699WAT     H2 2340   4.374   4.448   7.021
  700WAT      O 2341   4.366   6.447   3.046
  700WAT     H1 2342   4.312   6.518   3.001
  700WAT     H2 2343   4.463   6.460   3.025
  701WAT      O 2344   3.178   4.447   7.981
  701WAT     H1 2345   3.247   4.515   8.004
  701WAT     H2 2346   3.221   4.360   7.959
  702WAT      O 2347   3.558   8.357   8.174
  702WAT     H1 2348   3.600   8.354   8.264
  702WAT     H2 2349   3.628   8.341   8.104
  703WAT      O 2350   6.552   9.041   4.755
  703WAT     H1 2351   6.554   9.109   4.682
  703WAT     H2 2352   6.517   9.083   4.839
  704WAT      O 2353   9.652   2.889   0.242
  704WAT     H1 2354   9.641   2.851   0.149
  704WAT     H2 2355   9.655   2.814   0.308
  705WAT      O 2356   5.720   7.972   1.312
  705WAT     H1 2357   5.820   7.976   1.318
  705WAT     H2 2358   5.680   8.021   1.389
  706WAT      O 2359   5.619   5.814   6.671
  706WAT     H1 2360   5.651   5.819   6.766
  706WAT     H2 2361   5.689   5.850   6.609
  707WAT      O 2362   1.036   2.913   7.240
  707WAT     H1 2363   0.992   2.826   7.216
  707WAT     H2 2364   1.135   2.904   7.231
  708WAT      O 2365   3.421   3.588   7.177
  708WAT     H1 2366   3.473   3.673   7.168
  708WAT     H2 2367   3.434   3.532   7.095
  709WAT      O 2368   3.645   0.320   9.361
  709WAT     H1 2369   3.565   0.301   9.417
  709WAT     H2 2370   3.653   0.418   9.345
  710WAT      O 2371   1.825   6.959   4.345
  710WAT     H1 2372   1.813   7.059   4.341
  710WAT     H2 2373   1.917   6.937   4.377
  711WAT      O 2374   1.209   4.294   2.125
  711WAT     H1 2375   1.255   4.363   2.069
  711WAT     H2 2376   1.277   4.230   2.161
  712WAT      O 2377   7.861   7.375   2.619
  712WAT     H1 2378   7.829   7.363   2.525
  712WAT     H2 2379   7.885   7.285   2.658
  713WAT      O 2380   9.884   3.379   6.957
  713WAT     H1 2381   9.894   3.293   6.907
  713WAT     H2 2382   9.974   3.420   6.974
  714WAT      O 2383   9.708   9.517   7.114
  714WAT     H1 2384   9.753   9.434   7.081
  714WAT     H2 2385   9.622   9.531   7.066
  715WAT      O 2386   3.948   7.514   1.293
  715WAT     H1 2387   3.868   7.561   1.330
  715WAT     H2 2388   4.024   7.579   1.285
  716WAT      O 2389   7.372   5.675   2.329
  716WAT     H1 2390   7.286   5.631   2.303
  716WAT     H2 2391   7.367   5.773   2.308
  717WAT      O 2392   3.429   5.122   3.816
  717WAT     H1 2393   3.396   5.177   3.740
  717WAT     H2 2394   3.374   5.142   3.898
  718WAT      O 2395   4.275   7.345   2.854
  718WAT     H1 2396   4.346   7.326   2.786
  718WAT     H2 2397   4.210   7.412   2.817
  719WAT      O 2398   5.938   7.332   6.883
  719WAT     H1 2399   5.883   7.268   6.830
  719WAT     H2 2400   5.882   7.409   6.912
  720WAT      O 2401   2.528   0.764   6.125
  720WAT     H1 2402   2.440   0.761   6.076
  720WAT     H2 2403   2.599   0.800   6.064
  721WAT      O 2404   7.380   1.267   2.393
  721WAT     H1 2405   7.288   1.249   2.428
  721WAT     H2 2406   7.376   1.342   2.327
  722WAT      O 2407   2.532   3.015   2.585
  722WAT     H1 2408   2.446   3.028   2.635
  722WAT     H2 2409   2.530   2.927   2.537
  723WAT      O 2410   2.527   9.479   6.573
  723WAT     H1 2411   2.532   9.380   6.559
  723WAT     H2 2412   2.529   9.499   6.670
  724WAT      O 2413   0.425   1.788   9.424
  724WAT     H1 2414   0.453   1.694   9.402
  724WAT     H2 2415   0.352   1.816   9.363
  725WAT      O 2416   5.304   5.456   1.897
  725WAT     H1 2417   5.278   5.437   1.802
  725WAT     H2 2418   5.233   5.422   1.958
  726WAT      O 2419   9.165   2.495   1.148
  726WAT     H1 2420   9.115   2.410   1.166
  726WAT     H2 2421   9.255   2.474   1.109
  727WAT      O 2422   5.403   7.571   3.978
  727WAT     H1 2423   5.452   7.654   3.954
  727WAT     H2 2424   5.338   7.548   3.904
  728WAT      O 2425   8.203   0.423   8.254
  728WAT     H1 2426   8.202   0.515   8.293
  728WAT     H2 2427   8.273   0.418   8.182
  729WAT      O 2428   2.210   7.983   5.574
  729WAT     H1 2429   2.296   7.970   5.623
  729WAT     H2 2430   2.215   8.068   5.521
  730WAT      O 2431   9.407   7.652   5.646
  730WAT     H1 2432   9.405   7.668   5.547
  730WAT     H2 2433   9.319   7.613   5.674
  731WAT      O 2434   2.166   0.866   9.746
  731WAT     H1 2435   2.107   0.943   9.722
  731WAT     H2 2436   2.244   0.862   9.684
  732WAT      O 2437   0.918   0.124   3.588
  732WAT     H1 2438   0.989   0.055   3.603
  732WAT     H2 2439   0.933   0.169   3.500
  733WAT      O 2440   2.914   8.525   5.339
  733WAT     H1 2441   2.943   8.445   5.392
  733WAT     H2 2442   2.956   8.607   5.378
  734WAT      O 2443   8.521   9.516   8.874
  734WAT     H1 2444   8.568   9.498   8.960
  734WAT     H2 2445   8.578   9.485   8.798
  735WAT      O 2446   3.546   7.511   6.507
  735WAT     H1 2447   3.469   7.468   6.555
  735WAT     H2 2448   3.590   7.443   6.449
  736WAT      O 2449   3.291   7.438   4.856
  736WAT     H1 2450   3.350   7.495   4.798
  736WAT     H2 2451   3.346   7.398   4.929
  737WAT      O 2452   3.118   6.693   4.030
  737WAT     H1 2453   3.143   6.769   3.970
  737WAT     H2 2454   3.045   6.640   3.987
  738WAT      O 2455   9.081   3.524   1.806
  738WAT     H1 2456   9.064   3.504   1.903
  738WAT     H2 2457   9.079   3.623   1.791
  739WAT      O 2458   4.064   7.564   3.031
  739WAT     H1 2459   4.104   7.648   3.067
  739WAT     H2 2460   4.059   7.495   3.104
  740WAT      O 2461   1.498   6.828   8.381
  740WAT     H1 2462   1.581   6.884   8.386
  740WAT     H2 2463   1.470   6.818   8.286
  741WAT      O 2464   4.313   9.119   3.483
  741WAT     H1 2465   4.251   9.196   3.467
  741WAT     H2 2466   4.288   9.074   3.569
  742WAT      O 2467   0.994   8.964   8.217
  742WAT     H1 2468   0.921   8.898   8.228
  742WAT     H2 2469   0.958   9.047   8.174
  743WAT      O 2470   2.086   9.140   3.155
  743WAT     H1 2471   2.012   9.078   3.127
  743WAT     H2 2472   2.072   9.229   3.112
  744WAT      O 2473   5.739   1.556   6.342
  744WAT     H1 2474   5.735   1.514   6.433
  744WAT     H2 2475   5.834   1.557   6.311
  745WAT      O 2476   6.029   4.957   9.728
  745WAT     H1 2477   6.118   4.986   9.694
  745WAT     H2 2478   5.977   5.037   9.759
  746WAT      O 2479   0.432   0.786   9.605
  746WAT     H1 2480   0.360   0.718   9.601
  746WAT     H2 2481   0.482   0.787   9.518
  747WAT      O 2482   0.937   0.810   5.184
  747WAT     H1 2483   0.880   0.889   5.162
  747WAT     H2 2484   0.956   0.809   5.283
  748WAT      O 2485   9.209   1.827   9.316
  748WAT     H1 2486   9.158   1.904   9.353
  748WAT     H2 2487   9.291   1.812   9.372
  749WAT      O 2488   6.302   2.883   3.048
  749WAT     H1 2489   6.392   2.926   3.035
  749WAT     H2 2490   6.231   2.942   3.010
  750WAT      O 2491   9.510   2.146   3.485
  750WAT     H1 2492   9.423   2.125   3.442
  750WAT     H2 2493   9.585   2.122   3.423
  751WAT      O 2494   4.960   3.759   0.315
  751WAT     H1 2495   4.889   3.791   0.377
  751WAT     H2 2496   5.045   3.744   0.366
  752WAT      O 2497   7.257   6.932   4.555
  752WAT     H1 2498   7.292   6.908   4.646
  752WAT     H2 2499   7.332   6.968   4.499
  753WAT      O 2500   9.263   9.018   3.368
  753WAT     H1 2501   9.345   8.971   3.334
  753WAT     H2 2502   9.206   9.047   3.291
  754WAT      O 2503   4.254   0.301   5.246
  754WAT     H1 2504   4.251   0.201   5.244
  754WAT     H2 2505   4.341   0.330   5.286
  755WAT      O 2506   5.486   4.585   7.363
  755WAT     H1 2507   5.394   4.625   7.356
  755WAT     H2 2508   5.554   4.655   7.340
  756WAT      O 2509   1.330   4.550   8.187
  756WAT     H1 2510   1.376   4.533   8.100
  756WAT     H2 2511   1.281   4.637   8.182
  757WAT      O 2512   7.355   1.515   3.656
  757WAT     H1 2513   7.404   1.516   3.743
  757WAT     H2 2514   7.421   1.518   3.581
  758WAT      O 2515   3.908   6.554   1.683
  758WAT     H1 2516   3.880   6.551   1.778
  758WAT     H2 2517   3.963   6.637   1.667
  759WAT      O 2518   3.144   9.053   7.452
  759WAT     H1 2519   3.060   9.015   7.492
  759WAT     H2 2520   3.124   9.090   7.362
  760WAT      O 2521   4.694   5.779   0.683
  760WAT     H1 2522   4.626   5.843   0.719
  760WAT     H2 2523   4.721   5.716   0.756
  761WAT      O 2524   7.939   9.192   7.522
  761WAT     H1 2525   7.897   9.283   7.522
  761WAT     H2 2526   7.909   9.142   7.441
  762WAT      O 2527   9.006   8.444   4.827
  762WAT     H1 2528   8.921   8.392   4.838
  762WAT     H2 2529   9.046   8.423   4.737
  763WAT      O 2530   6.986   1.378   1.129
  763WAT     H1 2531   6.968   1.361   1.226
  763WAT     H2 2532   7.084   1.371   1.111
  764WAT      O 2533   9.075   4.120   4.745
  764WAT     H1 2534   9.090   4.043   4.807
  764WAT     H2 2535   9.051   4.086   4.654
  765WAT      O 2536   3.871   8.938   0.956
  765WAT     H1 2537   3.847   9.005   0.885
  765WAT     H2 2538   3.791   8.921   1.014
  766WAT      O 2539   9.547   0.021   5.004
  766WAT     H1 2540   9.498  -0.025   5.078
  766WAT     H2 2541   9.578  -0.046   4.937
  767WAT      O 2542   6.402   5.795   7.272
  767WAT     H1 2543   6.459   5.783   7.190
  767WAT     H2 2544   6.371   5.890   7.278
  768WAT      O 2545   4.108   5.291   2.731
  768WAT     H1 2546   4.131   5.279   2.634
  768WAT     H2 2547   4.173   5.354   2.772
  769WAT      O 2548   8.365   4.417   1.483
  769WAT     H1 2549   8.437   4.376   1.538
  769WAT     H2 2550   8.400   4.438   1.391
  770WAT      O 2551   3.587   3.131   4.154
  770WAT     H1 2552   3.659   3.063   4.167
  770WAT     H2 2553   3.530   3.136   4.236
  771WAT      O 2554   8.903   7.990   1.181
  771WAT     H1 2555   8.931   8.039   1.263
  771WAT     H2 2556   8.955   8.024   1.102
  772WAT      O 2557   1.023   9.183   3.212
  772WAT     H1 2558   0.955   9.143   3.274
  772WAT     H2 2559   1.111   9.190   3.258
  773WAT      O 2560   3.357   1.950   7.614
  773WAT     H1 2561   3.406   1.864   7.595
  773WAT     H2 2562   3.395   2.023   7.556
  774WAT      O 2563   3.977   9.169   5.025
  774WAT     H1 2564   4.053   9.210   4.974
  774WAT     H2 2565   4.008   9.144   5.117
  775WAT      O 2566   6.447   1.697   3.007
  775WAT     H1 2567   6.487   1.622   2.955
  775WAT     H2 2568   6.460   1.783   2.956
  776WAT      O 2569   8.442   2.721   4.997
  776WAT     H1 2570   8.537   2.697   4.977
  776WAT     H2 2571   8.430   2.725   5.096
  777WAT      O 2572   8.408   2.630   4.631
  777WAT     H1 2573   8.495   2.581   4.634
  777WAT     H2 2574   8.420   2.723   4.666
  778WAT      O 2575   0.994   3.995   7.396
  778WAT     H1 2576   1.071   4.034   7.447
  778WAT     H2 2577   0.972   3.905   7.432
  779WAT      O 2578   8.672   3.576   5.988
  779WAT     H1 2579   8.763   3.600   6.023
  779WAT     H2 2580   8.636   3.651   5.933
  780WAT      O 2581   7.058   4.989   9.619
  780WAT     H1 2582   6.997   4.910   9.626
  780WAT     H2 2583   7.105   5.003   9.706
  781WAT      O 2584   8.799   2.460   1.496
  781WAT     H1 2585   8.782   2.377   1.443
  781WAT     H2 2586   8.837   2.530   1.437
  782WAT      O 2587   7.220   4.956   6.382
  782WAT     H1 2588   7.251   5.033   6.326
  782WAT     H2 2589   7.270   4.874   6.357
  783WAT      O 2590   1.410   6.567   7.822
  783WAT     H1 2591   1.410   6.565   7.922
  783WAT     H2 2592   1.488   6.514   7.788
  784WAT      O 2593   3.689   9.265   1.011
  784WAT     H1 2594   3.732   9.206   0.942
  784WAT     H2 2595   3.747   9.270   1.092
  785WAT      O 2596   7.920   6.044   5.489
  785WAT     H1 2597   7.909   6.099   5.572
  785WAT     H2 2598   7.999   5.984   5.500
  786WAT      O 2599   9.671   6.756   1.982
  786WAT     H1 2600   9.719   6.843   1.995
  786WAT     H2 2601   9.660   6.711   2.070
  787WAT      O 2602   5.523   3.710   6.824
  787WAT     H1 2603   5.445   3.678   6.877
  787WAT     H2 2604   5.600   3.646   6.837
  788WAT      O 2605   1.393   8.130   4.084
  788WAT     H1 2606   1.480   8.083   4.097
  788WAT     H2 2607   1.397   8.220   4.126
  789WAT      O 2608   7.062   7.005   7.201
  789WAT     H1 2609   7.142   7.028   7.256
  789WAT     H2 2610   7.089   6.946   7.125
  790WAT      O 2611   0.923   9.629   5.500
  790WAT     H1 2612   0.834   9.667   5.475
  790WAT     H2 2613   0.986   9.704   5.523
  791WAT      O 2614   3.874   7.096   5.164
  791WAT     H1 2615   3.871   7.193   5.141
  791WAT     H2 2616   3.897   7.086   5.261
  792WAT      O 2617   9.699   5.032   1.454
  792WAT     H1 2618   9.682   5.069   1.545
  792WAT     H2 2619   9.694   4.932   1.457
  793WAT      O 2620   9.126   8.283   7.403
  793WAT     H1 2621   9.039   8.238   7.386
  793WAT     H2 2622   9.118   8.381   7.385
  794WAT      O 2623   0.438   1.574   9.705
  794WAT     H1 2624   0.461   1.670   9.716
  794WAT     H2 2625   0.437   1.529   9.794
  795WAT      O 2626   3.098   7.528   9.711
  795WAT     H1 2627   3.032   7.522   9.636
  795WAT     H2 2628   3.116   7.624   9.733
  796WAT      O 2629   0.049   5.332   8.123
  796WAT     H1 2630  -0.001   5.266   8.180
  796WAT     H2 2631   0.006   5.422   8.131
  797WAT      O 2632   4.412   3.814   2.993
  797WAT     H1 2633   4.327   3.763   3.004
  797WAT     H2 2634   4.418   3.851   2.900
  798WAT      O 2635   1.749   3.633   8.918
  798WAT     H1 2636   1.727   3.618   8.821
  798WAT     H2 2637   1.822   3.701   8.925
  799WAT      O 2638   2.752   0.294   7.809
  799WAT     H1 2639   2.822   0.226   7.829
  799WAT     H2 2640   2.661   0.253   7.821
  800WAT      O 2641   5.928   6.095   8.133
  800WAT     H1 2642   5.907   6.012   8.184
  800WAT     H2 2643   6.027   6.100   8.118
  801WAT      O 2644   0.923   4.370   7.472
  801WAT     H1 2645   0.854   4.440   7.489
  801WAT     H2 2646   0.938   4.317   7.556
  802WAT      O 2647   6.048   5.907   2.188
  802WAT     H1 2648   6.101   5.976   2.138
  802WAT     H2 2649   6.104   5.869   2.261
  803WAT      O 2650   5.561   0.940   0.753
  803WAT     H1 2651   5.545   1.038   0.743
  803WAT     H2 2652   5.607   0.905   0.671
  804WAT      O 2653   5.984   8.662   7.009
  804WAT     H1 2654   6.026   8.748   6.981
  804WAT     H2 2655   5.886   8.666   6.993
  805WAT      O 2656   7.787   5.511   9.213
  805WAT     H1 2657   7.715   5.546   9.153
  805WAT     H2 2658   7.812   5.581   9.279
  806WAT      O 2659   7.171   3.734   5.415
  806WAT     H1 2660   7.206   3.825   5.394
  806WAT     H2 2661   7.229   3.691   5.484
  807WAT      O 2662   4.783   5.404   5.142
  807WAT     H1 2663   4.744   5.487   5.182
  807WAT     H2 2664   4.744   5.324   5.189
  808WAT      O 2665   6.957   3.491   8.982
  808WAT     H1 2666   6.929   3.395   8.985
  808WAT     H2 2667   7.057   3.497   8.981
  809WAT      O 2668   3.136   4.861   0.955
  809WAT     H1 2669   3.133   4.811   1.041
  809WAT     H2 2670   3.231   4.883   0.933
  810WAT      O 2671   9.348   5.896   2.813
  810WAT     H1 2672   9.248   5.905   2.811
  810WAT     H2 2673   9.389   5.967   2.756
  811WAT      O 2674   6.753   9.066   9.744
  811WAT     H1 2675   6.839   9.100   9.706
  811WAT     H2 2676   6.770   9.030   9.836
  812WAT      O 2677   9.143   9.528   6.572
  812WAT     H1 2678   9.166   9.531   6.475
  812WAT     H2 2679   9.205   9.465   6.619
  813WAT      O 2680   1.166   7.852   5.135
  813WAT     H1 2681   1.079   7.803   5.144
  813WAT     H2 2682   1.211   7.823   5.051
  814WAT      O 2683   6.442   2.160   9.662
  814WAT     H1 2684   6.429   2.079   9.719
  814WAT     H2 2685   6.366   2.166   9.598
  815WAT      O 2686   7.759   5.844   7.336
  815WAT     H1 2687   7.723   5.907   7.267
  815WAT     H2 2688   7.854   5.822   7.315
  816WAT      O 2689   3.907   6.818   8.419
  816WAT     H1 2690   3.836   6.756   8.388
  816WAT     H2 2691   3.997   6.782   8.393
  817WAT      O 2692   8.582   8.759   3.297
  817WAT     H1 2693   8.547   8.723   3.211
  817WAT     H2 2694   8.656   8.700   3.330
  818WAT      O 2695   3.231   7.933   8.960
  818WAT     H1 2696   3.146   7.908   9.006
  818WAT     H2 2697   3.250   7.869   8.886
  819WAT      O 2698   6.581   0.882   9.036
  819WAT     H1 2699   6.577   0.782   9.027
  819WAT     H2 2700   6.655   0.906   9.100
  820WAT      O 2701   6.982   4.485   7.861
  820WAT     H1 2702   6.958   4.525   7.772
  820WAT     H2 2703   7.055   4.419   7.848
  821WAT      O 2704   8.100   7.221   8.977
  821WAT     H1 2705   8.097   7.122   8.990
  821WAT     H2 2706   8.069   7.267   9.061
  822WAT      O 2707   5.217   7.460   5.014
  822WAT     H1 2708   5.201   7.367   5.047
  822WAT     H2 2709   5.239   7.520   5.091
  823WAT      O 2710   3.591   2.276   6.183
  823WAT     H1 2711   3.583   2.331   6.100
  823WAT     H2 2712   3.679   2.295   6.227
  824WAT      O 2713   3.048   0.453   1.768
  824WAT     H1 2714   3.140   0.489   1.759
  824WAT     H2 2715   3.047   0.381   1.838
  825WAT      O 2716   2.742   4.311   6.121
  825WAT     H1 2717   2.739   4.372   6.041
  825WAT     H2 2718   2.797   4.230   6.098
  826WAT      O 2719   7.302   2.230   9.295
  826WAT     H1 2720   7.387   2.209   9.343
  826WAT     H2 2721   7.293   2.169   9.216
  827WAT      O 2722   0.082   7.589   3.216
  827WAT     H1 2723   0.179   7.597   3.193
  827WAT     H2 2724   0.058   7.492   3.223
  828WAT      O 2725   6.715   4.986   8.951
  828WAT     H1 2726   6.770   4.907   8.977
  828WAT     H2 2727   6.702   5.045   9.030
  829WAT      O 2728   9.463   4.127   0.048
  829WAT     H1 2729   9.485   4.158   0.140
  829WAT     H2 2730   9.545   4.090   0.004
  830WAT      O 2731   8.046   5.373   2.616
  830WAT     H1 2732   7.970   5.420   2.573
  830WAT     H2 2733   8.051   5.279   2.583
  831WAT      O 2734   8.901   9.495   3.519
  831WAT     H1 2735   8.946   9.581   3.541
  831WAT     H2 2736   8.802   9.506   3.528
  832WAT      O 2737   6.522   6.909   5.466
  832WAT     H1 2738   6.572   6.824   5.481
  832WAT     H2 2739   6.445   6.893   5.404
  833WAT      O 2740   0.283   2.827   3.289
  833WAT     H1 2741   0.217   2.850   3.219
  833WAT     H2 2742   0.375   2.854   3.259
  834WAT      O 2743   5.222   5.911   8.491
  834WAT     H1 2744   5.296   5.847   8.478
  834WAT     H2 2745   5.144   5.885   8.434
  835WAT      O 2746   1.419   3.311   2.920
  835WAT     H1 2747   1.346   3.327   2.986
  835WAT     H2 2748   1.495   3.374   2.936
  836WAT      O 2749   9.547   9.145   5.183
  836WAT     H1 2750   9.601   9.222   5.149
  836WAT     H2 2751   9.608   9.070   5.207
  837WAT      O 2752   8.427   6.419   5.829
  837WAT     H1 2753   8.483   6.427   5.911
  837WAT     H2 2754   8.472   6.357   5.764
  838WAT      O 2755   6.385   7.418   0.235
  838WAT     H1 2756   6.391   7.426   0.335
  838WAT     H2 2757   6.290   7.406   0.208
  839WAT      O 2758   5.125   4.441   7.230
  839WAT     H1 2759   5.220   4.430   7.201
  839WAT     H2 2760   5.122   4.468   7.327
  840WAT      O 2761   8.210   0.736   2.928
  840WAT     H1 2762   8.282   0.668   2.914
  840WAT     H2 2763   8.193   0.784   2.842
  841WAT      O 2764   0.870   6.581   9.420
  841WAT     H1 2765   0.956   6.602   9.374
  841WAT     H2 2766   0.881   6.596   9.519
  842WAT      O 2767   4.991   5.863   4.127
  842WAT     H1 2768   4.994   5.835   4.031
  842WAT     H2 2769   4.935   5.946   4.135
  843WAT      O 2770   6.995   2.557   8.814
  843WAT     H1 2771   6.927   2.620   8.851
  843WAT     H2 2772   7.055   2.606   8.751
  844WAT      O 2773   1.391   0.538   6.824
  844WAT     H1 2774   1.474   0.495   6.859
  844WAT     H2 2775   1.366   0.497   6.737
  845WAT      O 2776   4.537   3.674   1.854
  845WAT     H1 2777   4.468   3.679   1.926
  845WAT     H2 2778   4.494   3.692   1.766
  846WAT      O 2779   5.104   9.049   2.403
  846WAT     H1 2780   5.120   9.007   2.313
  846WAT     H2 2781   5.031   9.000   2.450
  847WAT      O 2782   7.342   6.466   3.958
  847WAT     H1 2783   7.402   6.426   3.889
  847WAT     H2 2784   7.260   6.409   3.967
  848WAT      O 2785   2.660   5.537   8.549
  848WAT     H1 2786   2.636   5.456   8.603
  848WAT     H2 2787   2.709   5.602   8.607
  849WAT      O 2788   5.270   2.205   2.694
  849WAT     H1 2789   5.220   2.174   2.776
  849WAT     H2 2790   5.324   2.286   2.717
  850WAT      O 2791   4.571   6.290   7.993
  850WAT     H1 2792   4.629   6.341   7.929
  850WAT     H2 2793   4.546   6.203   7.952
  851WAT      O 2794   9.723   4.081   2.323
  851WAT     H1 2795   9.664   4.022   2.378
  851WAT     H2 2796   9.697   4.176   2.335
  852WAT      O 2797   5.203   7.996   5.616
  852WAT     H1 2798   5.235   8.000   5.711
  852WAT     H2 2799   5.104   7.987   5.615
  853WAT      O 2800   0.539   9.638   5.645
  853WAT     H1 2801   0.550   9.676   5.737
  853WAT     H2 2802   0.444   9.608   5.632
  854WAT      O 2803   4.181   8.781   2.485
  854WAT     H1 2804   4.241   8.815   2.412
  854WAT     H2 2805   4.232   8.780   2.572
  855WAT      O 2806   7.339   6.910   5.056
  855WAT     H1 2807   7.267   6.842   5.053
  855WAT     H2 2808   7.369   6.922   5.151
  856WAT      O 2809   2.198   8.843   5.421
  856WAT     H1 2810   2.251   8.838   5.336
  856WAT     H2 2811   2.204   8.936   5.458
  857WAT      O 2812   8.341   1.480   3.198
  857WAT     H1 2813   8.332   1.573   3.162
  857WAT     H2 2814   8.372   1.419   3.125
  858WAT      O 2815   6.676   4.453   0.888
  858WAT     H1 2816   6.688   4.359   0.920
  858WAT     H2 2817   6.753   4.478   0.829
  859WAT      O 2818   7.609   8.407   6.642
  859WAT     H1 2819   7.566   8.431   6.556
  859WAT     H2 2820   7.636   8.490   6.691
  860WAT      O 2821   3.334   1.855   5.757
  860WAT     H1 2822   3.334   1.895   5.666
  860WAT     H2 2823   3.405   1.786   5.763
  861WAT      O 2824   0.702   5.411   2.119
  861WAT     H1 2825   0.674   5.316   2.114
  861WAT     H2 2826   0.799   5.418   2.095
  862WAT      O 2827   1.982   9.769   1.050
  862WAT     H1 2828   2.056   9.717   1.007
  862WAT     H2 2829   2.022   9.838   1.111
  863WAT      O 2830   0.836   3.516   2.817
  863WAT     H1 2831   0.785   3.603   2.821
  863WAT     H2 2832   0.916   3.522   2.876
  864WAT      O 2833   8.874   4.298   2.550
  864WAT     H1 2834   8.956   4.275   2.498
  864WAT     H2 2835   8.893   4.379   2.607
  865WAT      O 2836   2.191   1.756   2.761
  865WAT     H1 2837   2.245   1.804   2.691
  865WAT     H2 2838   2.104   1.804   2.773
  866WAT      O 2839   6.727   0.426   0.548
  866WAT     H1 2840   6.706   0.450   0.453
  866WAT     H2 2841   6.653   0.370   0.585
  867WAT      O 2842   0.945   5.625   7.655
  867WAT     H1 2843   0.888   5.680   7.594
  867WAT     H2 2844   0.891   5.550   7.693
  868WAT      O 2845   6.135   8.789   3.903
  868WAT     H1 2846   6.197   8.758   3.831
  868WAT     H2 2847   6.101   8.880   3.881
  869WAT      O 2848   5.304   2.196   7.007
  869WAT     H1 2849   5.402   2.196   7.026
  869WAT     H2 2850   5.286   2.248   6.924
  870WAT      O 2851   3.375   2.067   4.773
  870WAT     H1 2852   3.378   1.978   4.818
  870WAT     H2 2853   3.395   2.056   4.675
  871WAT      O 2854   0.137   5.808   6.095
  871WAT     H1 2855   0.103   5.716   6.113
  871WAT     H2 2856   0.143   5.859   6.181
  872WAT      O 2857   9.413   5.200   9.768
  872WAT     H1 2858   9.353   5.240   9.838
  872WAT     H2 2859   9.497   5.254   9.762
  873WAT      O 2860   9.133   0.276   1.169
  873WAT     H1 2861   9.182   0.284   1.256
  873WAT     H2 2862   9.198   0.254   1.096
  874WAT      O 2863   2.854   7.378   9.082
  874WAT     H1 2864   2.841   7.471   9.046
  874WAT     H2 2865   2.766   7.331   9.085
  875WAT      O 2866   7.652   0.200   1.755
  875WAT     H1 2867   7.654   0.107   1.792
  875WAT     H2 2868   7.726   0.212   1.689
  876WAT      O 2869   7.050   8.865   2.264
  876WAT     H1 2870   7.020   8.786   2.210
  876WAT     H2 2871   7.116   8.918   2.211
  877WAT      O 2872   1.203   3.762   5.132
  877WAT     H1 2873   1.152   3.748   5.217
  877WAT     H2 2874   1.301   3.768   5.153
  878WAT      O 2875   2.958   2.162   6.189
  878WAT     H1 2876   2.873   2.146   6.140
  878WAT     H2 2877   3.035   2.128   6.135
  879WAT      O 2878   3.700   3.577   0.215
  879WAT     H1 2879   3.799   3.579   0.221
  879WAT     H2 2880   3.672   3.537   0.128
  880WAT      O 2881   7.147   8.331   3.320
  880WAT     H1 2882   7.117   8.418   3.360
  880WAT     H2 2883   7.162   8.342   3.222
  881WAT      O 2884   2.210   6.715   2.380
  881WAT     H1 2885   2.113   6.725   2.402
  881WAT     H2 2886   2.263   6.777   2.438
  882WAT      O 2887   9.227   4.631   2.184
  882WAT     H1 2888   9.171   4.572   2.241
  882WAT     H2 2889   9.323   4.604   2.192
  883WAT      O 2890   7.469   0.433   4.924
  883WAT     H1 2891   7.369   0.441   4.933
  883WAT     H2 2892   7.491   0.368   4.851
  884WAT      O 2893   5.204   7.298   8.716
  884WAT     H1 2894   5.118   7.317   8.763
  884WAT     H2 2895   5.242   7.384   8.682
  885WAT      O 2896   5.855   5.918   9.340
  885WAT     H1 2897   5.786   5.990   9.330
  885WAT     H2 2898   5.826   5.836   9.292
  886WAT      O 2899   8.373   6.155   3.913
  886WAT     H1 2900   8.293   6.095   3.908
  886WAT     H2 2901   8.347   6.243   3.953
  887WAT      O 2902   3.500   0.267   2.987
  887WAT     H1 2903   3.584   0.213   2.992
  887WAT     H2 2904   3.512   0.350   3.043
  888WAT      O 2905   0.701   5.043   7.848
  888WAT     H1 2906   0.751   5.119   7.889
  888WAT     H2 2907   0.764   4.987   7.794
  889WAT      O 2908   6.372   8.837   8.617
  889WAT     H1 2909   6.470   8.852   8.611
  889WAT     H2 2910   6.349   8.794   8.704
  890WAT      O 2911   1.565   8.103   1.005
  890WAT     H1 2912   1.659   8.082   0.977
  890WAT     H2 2913   1.524   8.167   0.940
  891WAT      O 2914   7.672   0.426   1.243
  891WAT     H1 2915   7.628   0.337   1.226
  891WAT     H2 2916   7.755   0.433   1.187
  892WAT      O 2917   1.489   7.401   5.076
  892WAT     H1 2918   1.565   7.462   5.095
  892WAT     H2 2919   1.485   7.382   4.978
  893WAT      O 2920   6.280   5.492   2.777
  893WAT     H1 2921   6.285   5.496   2.677
  893WAT     H2 2922   6.267   5.585   2.813
  894WAT      O 2923   2.327   2.116   9.778
  894WAT     H1 2924   2.276   2.145   9.697
  894WAT     H2 2925   2.264   2.078   9.846
  895WAT      O 2926   7.918   7.742   3.656
  895WAT     H1 2927   7.962   7.676   3.595
  895WAT     H2 2928   7.819   7.738   3.643
  896WAT      O 2929   6.005   9.389   9.534
  896WAT     H1 2930   5.945   9.461   9.568
  896WAT     H2 2931   6.048   9.419   9.449
  897WAT      O 2932   2.501   8.171   7.644
  897WAT     H1 2933   2.423   8.167   7.707
  897WAT     H2 2934   2.516   8.266   7.616
  898WAT      O 2935   6.179   0.845   8.385
  898WAT     H1 2936   6.130   0.932   8.383
  898WAT     H2 2937   6.113   0.770   8.398
  899WAT      O 2938   2.316   6.781   8.327
  899WAT     H1 2939   2.256   6.711   8.366
  899WAT     H2 2940   2.405   6.776   8.372
  900WAT      O 2941   7.595   8.411   0.444
  900WAT     H1 2942   7.639   8.433   0.531
  900WAT     H2 2943   7.627   8.475   0.374
  901WAT      O 2944   7.456   5.672   1.656
  901WAT     H1 2945   7.523   5.659   1.729
  901WAT     H2 2946   7.372   5.623   1.679
  902WAT      O 2947   4.667   8.493   0.636
  902WAT     H1 2948   4.752   8.545   0.633
  902WAT     H2 2949   4.650   8.450   0.547
  903WAT      O 2950   0.833   8.518   7.878
  903WAT     H1 2951   0.898   8.490   7.807
  903WAT     H2 2952   0.794   8.436   7.921
  904WAT      O 2953   9.693   7.597   3.193
  904WAT     H1 2954   9.785   7.624   3.221
  904WAT     H2 2955   9.699   7.530   3.120
  905WAT      O 2956   7.453   7.557   7.424
  905WAT     H1 2957   7.460   7.618   7.346
  905WAT     H2 2958   7.421   7.608   7.504
  906WAT      O 2959   4.174   7.634   8.100
  906WAT     H1 2960   4.187   7.561   8.167
  906WAT     H2 2961   4.078   7.639   8.073
  907WAT      O 2962   6.075   6.624   2.964
  907WAT     H1 2963   5.981   6.654   2.952
  907WAT     H2 2964   6.080   6.525   2.953
  908WAT      O 2965   9.871   3.737   6.394
  908WAT     H1 2966   9.969   3.759   6.388
  908WAT     H2 2967   9.858   3.638   6.387
  909WAT      O 2968   8.790   7.419   8.995
  909WAT     H1 2969   8.887   7.439   8.981
  909WAT     H2 2970   8.738   7.450   8.916
  910WAT      O 2971   8.963   9.573   4.723
  910WAT     H1 2972   9.044   9.629   4.743
  910WAT     H2 2973   8.890   9.631   4.687
  911WAT      O 2974   2.912   2.258   8.506
  911WAT     H1 2975   2.920   2.214   8.416
  911WAT     H2 2976   2.815   2.267   8.530
  912WAT      O 2977   9.520   9.317   0.715
  912WAT     H1 2978   9.552   9.412   0.723
  912WAT     H2 2979   9.584   9.265   0.658
  913WAT      O 2980   9.354   7.135   9.748
  913WAT     H1 2981   9.361   7.223   9.700
  913WAT     H2 2982   9.339   7.062   9.682
  914WAT      O 2983   8.050   1.596   8.893
  914WAT     H1 2984   8.141   1.636   8.892
  914WAT     H2 2985   8.045   1.526   8.963
  915WAT      O 2986   0.315   0.245   1.044
  915WAT     H1 2987   0.392   0.269   1.103
  915WAT     H2 2988   0.301   0.146   1.046
  916WAT      O 2989   2.150   2.529   0.669
  916WAT     H1 2990   2.057   2.513   0.637
  916WAT     H2 2991   2.177   2.622   0.649
  917WAT      O 2992   6.379   2.665   1.222
  917WAT     H1 2993   6.363   2.744   1.162
  917WAT     H2 2994   6.347   2.582   1.177
  918WAT      O 2995   6.308   0.934   9.819
  918WAT     H1 2996   6.242   0.859   9.828
  918WAT     H2 2997   6.310   0.965   9.723
  919WAT      O 2998   5.332   7.976   4.964
  919WAT     H1 2999   5.420   8.006   4.927
  919WAT     H2 3000   5.303   8.040   5.035
  920WAT      O 3001   7.295   9.530   1.065
  920WAT     H1 3002   7.385   9.569   1.050
  920WAT     H2 3003   7.257   9.564   1.151
  921WAT      O 3004   3.518   2.137   3.461
  921WAT     H1 3005   3.526   2.037   3.469
  921WAT     H2 3006   3.433   2.158   3.412
  922WAT      O 3007   8.378   3.501   7.376
  922WAT     H1 3008   8.382   3.484   7.475
  922WAT     H2 3009   8.427   3.429   7.328
  923WAT      O 3010   7.095   2.013   0.102
  923WAT     H1 3011   7.032   2.067   0.159
  923WAT     H2 3012   7.140   1.945   0.158
  924WAT      O 3013   8.309   3.178   2.310
  924WAT     H1 3014   8.303   3.150   2.214
  924WAT     H2 3015   8.316   3.097   2.368
  925WAT      O 3016   0.952   8.619   4.783
  925WAT     H1 3017   0.862   8.644   4.748
  925WAT     H2 3018   0.971   8.524   4.761
  926WAT      O 3019   8.582   3.563   6.252
  926WAT     H1 3020   8.595   3.603   6.162
  926WAT     H2 3021   8.607   3.466   6.250
  927WAT      O 3022   4.332   2.312   3.760
  927WAT     H1 3023   4.407   2.325   3.695
  927WAT     H2 3024   4.274   2.393   3.761
  928WAT      O 3025   4.576   5.761   4.079
  928WAT     H1 3026   4.615   5.696   4.014
  928WAT     H2 3027   4.497   5.720   4.124
  929WAT      O 3028   2.945   1.453   2.680
  929WAT     H1 3029   2.847   1.450   2.660
  929WAT     H2 3030   2.983   1.361   2.668
  930WAT      O 3031   3.403   1.780   8.795
  930WAT     H1 3032   3.374   1.787   8.699
  930WAT     H2 3033   3.322   1.767   8.853
  931WAT      O 3034   8.012   6.940   6.329
  931WAT     H1 3035   7.913   6.954   6.333
  931WAT     H2 3036   8.052   6.954   6.420
  932WAT      O 3037   5.346   9.732   2.265
  932WAT     H1 3038   5.325   9.816   2.315
  932WAT     H2 3039   5.263   9.677   2.257
  933WAT      O 3040   7.833   2.634   7.905
  933WAT     H1 3041   7.889   2.552   7.916
  933WAT     H2 3042   7.865   2.685   7.826
  934WAT      O 3043   4.702   7.226   6.340
  934WAT     H1 3044   4.675   7.223   6.436
  934WAT     H2 3045   4.801   7.237   6.333
  935WAT      O 3046   0.144   0.453   1.665
  935WAT     H1 3047   0.153   0.408   1.576
  935WAT     H2 3048   0.051   0.440   1.700
  936WAT      O 3049   5.685   8.019   7.462
  936WAT     H1 3050   5.693   8.074   7.379
  936WAT     H2 3051   5.591   7.987   7.472
  937WAT      O 3052   2.633   5.082   0.339
  937WAT     H1 3053   2.689   5.078   0.257
  937WAT     H2 3054   2.545   5.123   0.317
  938WAT      O 3055   4.797   6.266   8.947
  938WAT     H1 3056   4.748   6.220   9.022
  938WAT     H2 3057   4.889   6.229   8.940
  939WAT      O 3058   6.484   0.638   7.539
  939WAT     H1 3059   6.559   0.666   7.479
  939WAT     H2 3060   6.472   0.539   7.533
  940WAT      O 3061   1.050   9.097   7.883
  940WAT     H1 3062   1.108   9.019   7.908
  940WAT     H2 3063   0.994   9.073   7.804
  941WAT      O 3064   2.869   4.302   6.553
  941WAT     H1 3065   2.803   4.280   6.625
  941WAT     H2 3066   2.839   4.385   6.505
  942WAT      O 3067   2.441   1.709   8.158
  942WAT     H1 3068   2.423   1.800   8.122
  942WAT     H2 3069   2.417   1.640   8.089
  943WAT      O 3070   3.135   5.111   8.824
  943WAT     H1 3071   3.106   5.109   8.728
  943WAT     H2 3072   3.098   5.031   8.872
  944WAT      O 3073   7.912   8.986   8.044
  944WAT     H1 3074   7.895   8.888   8.040
  944WAT     H2 3075   7.852   9.028   8.112
  945WAT      O 3076   3.815   5.550   8.599
  945WAT     H1 3077   3.737   5.511   8.649
  945WAT     H2 3078   3.889   5.483   8.595
  946WAT      O 3079   5.793   1.372   6.586
  946WAT     H1 3080   5.858   1.431   6.634
  946WAT     H2 3081   5.840   1.324   6.512
  947WAT      O 3082   4.105   2.404   4.058
  947WAT     H1 3083   4.147   2.479   4.007
  947WAT     H2 3084   4.101   2.323   4.000
  948WAT      O 3085   1.463   1.390   6.572
  948WAT     H1 3086   1.482   1.306   6.624
  948WAT     H2 3087   1.467   1.370   6.475
  949WAT      O 3088   3.786   5.966   5.748
  949WAT     H1 3089   3.786   6.065   5.746
  949WAT     H2 3090   3.769   5.930   5.656
  950WAT      O 3091   7.679   4.932   1.405
  950WAT     H1 3092   7.662   4.845   1.359
  950WAT     H2 3093   7.615   4.942   1.481
  951WAT      O 3094   4.744   9.791   0.493
  951WAT     H1 3095   4.656   9.802   0.540
  951WAT     H2 3096   4.748   9.854   0.415
  952WAT      O 3097   7.691   3.495   9.179
  952WAT     H1 3098   7.702   3.504   9.278
  952WAT     H2 3099   7.636   3.414   9.159
  953WAT      O 3100   9.828   6.033   3.930
  953WAT     H1 3101   9.863   6.005   4.019
  953WAT     H2 3102   9.738   5.991   3.915
  954WAT      O 3103   3.056   2.555   0.812
  954WAT     H1 3104   2.986   2.504   0.864
  954WAT     H2 3105   3.012   2.629   0.762
  955WAT      O 3106   9.803   1.406   4.657
  955WAT     H1 3107   9.855   1.464   4.720
  955WAT     H2 3108   9.708   1.402   4.686
  956WAT      O 3109   8.681   4.796   8.000
  956WAT     H1 3110   8.733   4.775   8.083
  956WAT     H2 3111   8.585   4.773   8.015
  957WAT      O 3112   7.697   2.919   3.707
  957WAT     H1 3113   7.667   2.824   3.710
  957WAT     H2 3114   7.732   2.941   3.616
  958WAT      O 3115   0.967   2.662   7.237
  958WAT     H1 3116   0.909   2.636   7.159
  958WAT     H2 3117   1.052   2.611   7.233
  959WAT      O 3118   1.212   8.126   5.110
  959WAT     H1 3119   1.130   8.175   5.140
  959WAT     H2 3120   1.196   8.028   5.117
  960WAT      O 3121   3.439   5.630   7.360
  960WAT     H1 3122   3.524   5.683   7.347
  960WAT     H2 3123   3.427   5.610   7.457
  961WAT      O 3124   2.641   7.485   8.210
  961WAT     H1 3125   2.649   7.429   8.128
  961WAT     H2 3126   2.555   7.537   8.206
  962WAT      O 3127   8.490   4.241   3.260
  962WAT     H1 3128   8.538   4.290   3.187
  962WAT     H2 3129   8.464   4.305   3.332
  963WAT      O 3130   4.958   0.469   8.655
  963WAT     H1 3131   4.922   0.491   8.564
  963WAT     H2 3132   4.978   0.371   8.660
  964WAT      O 3133   1.799   2.385   7.544
  964WAT     H1 3134   1.753   2.297   7.534
  964WAT     H2 3135   1.823   2.399   7.640
  965WAT      O 3136   6.257   1.997   8.876
  965WAT     H1 3137   6.166   1.982   8.914
  965WAT     H2 3138   6.282   1.918   8.819
  966WAT      O 3139   5.702   3.020   4.048
  966WAT     H1 3140   5.719   3.067   3.961
  966WAT     H2 3141   5.603   3.015   4.063
  967WAT      O 3142   0.664   1.567   5.258
  967WAT     H1 3143   0.684   1.656   5.217
  967WAT     H2 3144   0.744   1.536   5.310
  968WAT      O 3145   6.616   4.028   1.416
  968WAT     H1 3146   6.637   3.931   1.416
  968WAT     H2 3147   6.520   4.042   1.393
  969WAT      O 3148   2.778   5.032   3.030
  969WAT     H1 3149   2.810   5.079   2.948
  969WAT     H2 3150   2.730   5.097   3.090
  970WAT      O 3151   5.859   0.062   9.034
  970WAT     H1 3152   5.860  -0.026   8.987
  970WAT     H2 3153   5.864   0.047   9.132
  971WAT      O 3154   2.106   5.227   6.010
  971WAT     H1 3155   2.027   5.181   6.050
  971WAT     H2 3156   2.107   5.212   5.911
  972WAT      O 3157   9.629   9.658   0.782
  972WAT     H1 3158   9.618   9.754   0.808
  972WAT     H2 3159   9.607   9.600   0.861
  973WAT      O 3160   9.252   9.606   0.470
  973WAT     H1 3161   9.261   9.512   0.502
  973WAT     H2 3162   9.302   9.667   0.531
  974WAT      O 3163   1.706   4.011   2.809
  974WAT     H1 3164   1.784   4.012   2.747
  974WAT     H2 3165   1.669   4.103   2.819
  975WAT      O 3166   5.348   6.816   6.550
  975WAT     H1 3167   5.406   6.780   6.623
  975WAT     H2 3168   5.301   6.739   6.505
  976WAT      O 3169   2.320   6.153   8.332
  976WAT     H1 3170   2.239   6.099   8.354
  976WAT     H2 3171   2.384   6.097   8.280
  977WAT      O 3172   0.432   2.889   1.542
  977WAT     H1 3173   0.474   2.970   1.500
  977WAT     H2 3174   0.503   2.821   1.561
  978WAT      O 3175   4.473   3.120   6.014
  978WAT     H1 3176   4.493   3.212   5.982
  978WAT     H2 3177   4.456   3.122   6.113
  979WAT      O 3178   8.385   6.551   0.353
  979WAT     H1 3179   8.297   6.532   0.396
  979WAT     H2 3180   8.451   6.578   0.423
  980WAT      O 3181   8.030   5.326   0.363
  980WAT     H1 3182   8.094   5.325   0.439
  980WAT     H2 3183   8.058   5.395   0.296
  981WAT      O 3184   3.780   1.633   8.192
  981WAT     H1 3185   3.814   1.723   8.165
  981WAT     H2 3186   3.774   1.574   8.111
  982WAT      O 3187   0.170   2.858   0.051
  982WAT     H1 3188   0.176   2.811  -0.037
  982WAT     H2 3189   0.252   2.913   0.065
  983WAT      O 3190   2.062   6.478   1.538
  983WAT     H1 3191   1.998   6.402   1.524
  983WAT     H2 3192   2.042   6.551   1.472
  984WAT      O 3193   7.266   2.314   2.953
  984WAT     H1 3194   7.236   2.373   3.028
  984WAT     H2 3195   7.308   2.231   2.990
  985WAT      O 3196   6.715   0.670   6.453
  985WAT     H1 3197   6.698   0.724   6.371
  985WAT     H2 3198   6.795   0.706   6.501
  986WAT      O 3199   7.159   0.134   6.285
  986WAT     H1 3200   7.230   0.066   6.305
  986WAT     H2 3201   7.109   0.107   6.203
  987WAT      O 3202   4.612   8.431   4.055
  987WAT     H1 3203   4.635   8.492   3.979
  987WAT     H2 3204   4.573   8.346   4.019
  988WAT      O 3205   2.081   6.684   6.303
  988WAT     H1 3206   2.177   6.695   6.278
  988WAT     H2 3207   2.024   6.716   6.228
  989WAT      O 3208   7.804   5.458   2.987
  989WAT     H1 3209   7.893   5.412   2.992
  989WAT     H2 3210   7.760   5.454   3.077
  990WAT      O 3211   4.679   7.269   2.399
  990WAT     H1 3212   4.668   7.357   2.353
  990WAT     H2 3213   4.605   7.255   2.465
  991WAT      O 3214   9.097   2.786   6.310
  991WAT     H1 3215   9.071   2.689   6.300
  991WAT     H2 3216   9.028   2.844   6.267
  992WAT      O 3217   8.993   8.784   1.670
  992WAT     H1 3218   8.929   8.711   1.645
  992WAT     H2 3219   9.086   8.746   1.676
  993WAT      O 3220   9.094   1.617   3.506
  993WAT     H1 3221   9.071   1.555   3.582
  993WAT     H2 3222   9.014   1.672   3.483
  994WAT      O 3223   1.091   0.052   7.602
  994WAT     H1 3224   1.024  -0.001   7.655
  994WAT     H2 3225   1.059   0.146   7.593
  995WAT      O 3226   2.543   9.210   6.495
  995WAT     H1 3227   2.529   9.113   6.477
  995WAT     H2 3228   2.548   9.260   6.408
  996WAT      O 3229   5.427   3.881   8.466
  996WAT     H1 3230   5.411   3.980   8.469
  996WAT     H2 3231   5.520   3.861   8.497
  997WAT      O 3232   3.915   3.557   1.141
  997WAT     H1 3233   4.005   3.565   1.098
  997WAT     H2 3234   3.878   3.466   1.124
  998WAT      O 3235   8.642   0.619   5.893
  998WAT     H1 3236   8.707   0.683   5.852
  998WAT     H2 3237   8.679   0.526   5.887
  999WAT      O 3238   9.121   7.352   2.696
  999WAT     H1 3239   9.179   7.288   2.646
  999WAT     H2 3240   9.164   7.374   2.783
 1000WAT      O 3241   3.493   8.606   3.272
 1000WAT     H1 3242   3.423   8.671   3.243
 1000WAT     H2 3243   3.543   8.643   3.350
 1001WAT      O 3244   1.696   9.627   0.774
 1001WAT     H1 3245   1.775   9.684   0.750
 1001WAT     H2 3246   1.631   9.627   0.698
 1002WAT      O 3247   6.001   0.727   7.840
 1002WAT     H1 3248   5.913   0.706   7.884
 1002WAT     H2 3249   5.984   0.780   7.757
 1003WAT      O 3250   6.261   7.072   2.901
 1003WAT     H1 3251   6.299   7.060   2.992
 1003WAT     H2 3252   6.293   7.159   2.863
 1004WAT      O 3253   6.608   9.721   2.158
 1004WAT     H1 3254   6.574   9.719   2.252
 1004WAT     H2 3255   6.667   9.642   2.142
 1005WAT      O 3256   6.739   5.142   6.427
 1005WAT     H1 3257   6.836   5.116   6.422
 1005WAT     H2 3258   6.725   5.200   6.508
 1006WAT      O 3259   0.894   8.327   2.206
 1006WAT     H1 3260   0.889   8.398   2.277
 1006WAT     H2 3261   0.975   8.270   2.221
 1007WAT      O 3262   6.689   2.553   5.726
 1007WAT     H1 3263   6.618   2.617   5.755
 1007WAT     H2 3264   6.776   2.576   5.771
 1008WAT      O 3265   0.725   3.285   5.368
 1008WAT     H1 3266   0.770   3.240   5.291
 1008WAT     H2 3267   0.647   3.338   5.335
 1009WAT      O 3268   0.147   9.731   8.287
 1009WAT     H1 3269   0.135   9.668   8.363
 1009WAT     H2 3270   0.077   9.714   8.218
 1010WAT      O 3271   3.831   8.568   1.132
 1010WAT     H1 3272   3.734   8.549   1.149
 1010WAT     H2 3273   3.845   8.583   1.034
 1011WAT      O 3274   7.603   6.964   9.533
 1011WAT     H1 3275   7.684   6.971   9.591
 1011WAT     H2 3276   7.585   7.053   9.490
 1012WAT      O 3277   2.299   4.935   4.342
 1012WAT     H1 3278   2.372   4.885   4.388
 1012WAT     H2 3279   2.325   4.950   4.246
 1013WAT      O 3280   0.861   8.501   3.875
 1013WAT     H1 3281   0.839   8.406   3.893
 1013WAT     H2 3282   0.953   8.507   3.836
 1014WAT      O 3283   7.840   6.631   6.865
 1014WAT     H1 3284   7.868   6.625   6.769
 1014WAT     H2 3285   7.741   6.647   6.869
 1015WAT      O 3286   6.334   8.653   3.131
 1015WAT     H1 3287   6.412   8.610   3.176
 1015WAT     H2 3288   6.295   8.589   3.064
 1016WAT      O 3289   4.209   8.400   4.458
 1016WAT     H1 3290   4.304   8.433   4.454
 1016WAT     H2 3291   4.165   8.435   4.540
 1017WAT      O 3292   5.451   1.819   8.712
 1017WAT     H1 3293   5.465   1.918   8.713
 1017WAT     H2 3294   5.471   1.782   8.803
 1018WAT      O 3295   8.520   5.220   5.646
 1018WAT     H1 3296   8.437   5.168   5.626
 1018WAT     H2 3297   8.521   5.304   5.591
 1019WAT      O 3298   2.007   0.364   5.661
 1019WAT     H1 3299   2.045   0.323   5.744
 1019WAT     H2 3300   1.921   0.320   5.638
 1020WAT      O 3301   9.185   7.107   0.194
 1020WAT     H1 3302   9.110   7.173   0.189
 1020WAT     H2 3303   9.195   7.060   0.106
 1021WAT      O 3304   6.637   0.244   7.070
 1021WAT     H1 3305   6.710   0.230   7.004
 1021WAT     H2 3306   6.552   0.263   7.022
 1022WAT      O 3307   9.073   6.356   7.122
 1022WAT     H1 3308   8.978   6.382   7.137
 1022WAT     H2 3309   9.134   6.421   7.167
 1023WAT      O 3310   6.086   0.273   5.684
 1023WAT     H1 3311   6.123   0.250   5.594
 1023WAT     H2 3312   5.987   0.287   5.677
 1024WAT      O 3313   5.145   7.170   3.902
 1024WAT     H1 3314   5.099   7.120   3.975
 1024WAT     H2 3315   5.077   7.201   3.835
 1025WAT      O 3316   5.505   3.381   7.391
 1025WAT     H1 3317   5.481   3.334   7.476
 1025WAT     H2 3318   5.433   3.365   7.323
 1026WAT      O 3319   3.151   6.766   8.449
 1026WAT     H1 3320   3.167   6.856   8.489
 1026WAT     H2 3321   3.064   6.766   8.400
 1027WAT      O 3322   2.144   3.412   4.944
 1027WAT     H1 3323   2.080   3.487   4.961
 1027WAT     H2 3324   2.114   3.361   4.863
 1028WAT      O 3325   5.980   7.930   7.354
 1028WAT     H1 3326   5.920   7.889   7.285
 1028WAT     H2 3327   5.924   7.981   7.419
 1029WAT      O 3328   6.616   0.006   9.496
 1029WAT     H1 3329   6.595  -0.088   9.522
 1029WAT     H2 3330   6.533   0.061   9.499
 1030WAT      O 3331   2.923   5.907   1.764
 1030WAT     H1 3332   2.978   5.835   1.807
 1030WAT     H2 3333   2.827   5.880   1.764
 1031WAT      O 3334   0.373   4.581   1.485
 1031WAT     H1 3335   0.393   4.655   1.421
 1031WAT     H2 3336   0.279   4.589   1.517
 1032WAT      O 3337   8.168   8.348   4.260
 1032WAT     H1 3338   8.082   8.313   4.298
 1032WAT     H2 3339   8.240   8.341   4.330
 1033WAT      O 3340   5.147   3.776   2.232
 1033WAT     H1 3341   5.106   3.866   2.244
 1033WAT     H2 3342   5.246   3.783   2.247
 1034WAT      O 3343   5.938   4.015   7.172
 1034WAT     H1 3344   6.034   4.040   7.165
 1034WAT     H2 3345   5.915   4.000   7.269
 1035WAT      O 3346   5.671   6.100   9.286
 1035WAT     H1 3347   5.646   6.152   9.368
 1035WAT     H2 3348   5.724   6.159   9.225
 1036WAT      O 3349   4.371   1.614   7.270
 1036WAT     H1 3350   4.470   1.602   7.265
 1036WAT     H2 3351   4.327   1.525   7.280
 1037WAT      O 3352   1.573   6.495   7.384
 1037WAT     H1 3353   1.653   6.550   7.365
 1037WAT     H2 3354   1.501   6.516   7.317
 1038WAT      O 3355   4.750   9.663   0.907
 1038WAT     H1 3356   4.720   9.757   0.924
 1038WAT     H2 3357   4.791   9.626   0.990
 1039WAT      O 3358   5.098   5.646   1.607
 1039WAT     H1 3359   5.140   5.734   1.628
 1039WAT     H2 3360   5.162   5.572   1.628
 1040WAT      O 3361   6.712   6.847   9.159
 1040WAT     H1 3362   6.782   6.776   9.166
 1040WAT     H2 3363   6.752   6.931   9.123
 1041WAT      O 3364   1.675   0.803   6.137
 1041WAT     H1 3365   1.658   0.725   6.197
 1041WAT     H2 3366   1.591   0.827   6.089
 1042WAT      O 3367   5.932   0.540   8.354
 1042WAT     H1 3368   5.855   0.508   8.300
 1042WAT     H2 3369   5.944   0.482   8.434
 1043WAT      O 3370   3.639   0.644   1.701
 1043WAT     H1 3371   3.680   0.611   1.786
 1043WAT     H2 3372   3.708   0.644   1.629
 1044WAT      O 3373   2.078   5.135   7.822
 1044WAT     H1 3374   2.126   5.150   7.735
 1044WAT     H2 3375   2.142   5.096   7.888
 1045WAT      O 3376   1.189   0.201   6.573
 1045WAT     H1 3377   1.117   0.219   6.505
 1045WAT     H2 3378   1.278   0.227   6.535
 1046WAT      O 3379   3.043   4.928   9.505
 1046WAT     H1 3380   2.979   4.896   9.435
 1046WAT     H2 3381   3.004   4.913   9.596
 1047WAT      O 3382   6.012   2.112   8.308
 1047WAT     H1 3383   6.074   2.106   8.229
 1047WAT     H2 3384   5.938   2.046   8.297
 1048WAT      O 3385   6.219   3.569   0.563
 1048WAT     H1 3386   6.192   3.534   0.654
 1048WAT     H2 3387   6.144   3.623   0.525
 1049WAT      O 3388   2.387   9.450   7.260
 1049WAT     H1 3389   2.340   9.427   7.345
 1049WAT     H2 3390   2.331   9.514   7.207
 1050WAT      O 3391   1.773   6.654   6.792
 1050WAT     H1 3392   1.803   6.746   6.767
 1050WAT     H2 3393   1.849   6.590   6.781
 1051WAT      O 3394   6.535   1.946   4.029
 1051WAT     H1 3395   6.558   2.018   3.963
 1051WAT     H2 3396   6.558   1.976   4.121
 1052WAT      O 3397   0.074   0.443   3.964
 1052WAT     H1 3398  -0.007   0.387   3.946
 1052WAT     H2 3399   0.123   0.459   3.878
 1053WAT      O 3400   9.259   5.831   5.912
 1053WAT     H1 3401   9.246   5.739   5.949
 1053WAT     H2 3402   9.356   5.854   5.915
 1054WAT      O 3403   6.514   5.821   5.480
 1054WAT     H1 3404   6.493   5.723   5.480
 1054WAT     H2 3405   6.580   5.841   5.552
 1055WAT      O 3406   9.685   3.136   7.551
 1055WAT     H1 3407   9.742   3.059   7.522
 1055WAT     H2 3408   9.743   3.213   7.576
 1056WAT      O 3409   6.140   6.016   8.888
 1056WAT     H1 3410   6.218   5.968   8.928
 1056WAT     H2 3411   6.156   6.031   8.791
 1057WAT      O 3412   0.733   2.004   8.307
 1057WAT     H1 3413   0.804   2.005   8.378
 1057WAT     H2 3414   0.692   2.095   8.301
 1058WAT      O 3415   5.456   1.959   4.988
 1058WAT     H1 3416   5.429   1.992   5.078
 1058WAT     H2 3417   5.391   1.890   4.956
 1059WAT      O 3418   7.480   3.388   7.847
 1059WAT     H1 3419   7.433   3.411   7.932
 1059WAT     H2 3420   7.578   3.402   7.858
 1060WAT      O 3421   8.215   8.338   4.823
 1060WAT     H1 3422   8.197   8.297   4.912
 1060WAT     H2 3423   8.168   8.285   4.752
 1061WAT      O 3424   9.303   5.492   1.760
 1061WAT     H1 3425   9.354   5.533   1.835
 1061WAT     H2 3426   9.225   5.441   1.796
 1062WAT      O 3427   1.260   4.567   2.700
 1062WAT     H1 3428   1.227   4.541   2.609
 1062WAT     H2 3429   1.271   4.484   2.755
 1063WAT      O 3430   0.398   8.382   3.623
 1063WAT     H1 3431   0.310   8.334   3.622
 1063WAT     H2 3432   0.394   8.460   3.561
 1064WAT      O 3433   6.903   5.465   2.431
 1064WAT     H1 3434   6.846   5.452   2.350
 1064WAT     H2 3435   6.914   5.379   2.479
 1065WAT      O 3436   5.043   0.305   8.960
 1065WAT     H1 3437   5.131   0.274   8.998
 1065WAT     H2 3438   4.972   0.294   9.029
 1066WAT      O 3439   6.679   4.650   6.564
 1066WAT     H1 3440   6.772   4.679   6.539
 1066WAT     H2 3441   6.682   4.606   6.654
 1067WAT      O 3442   8.695   0.668   3.302
 1067WAT     H1 3443   8.712   0.579   3.344
 1067WAT     H2 3444   8.688   0.658   3.203
 1068WAT      O 3445   1.177   3.494   7.719
 1068WAT     H1 3446   1.082   3.494   7.750
 1068WAT     H2 3447   1.214   3.401   7.727
 1069WAT      O 3448   5.661   5.584   7.267
 1069WAT     H1 3449   5.626   5.673   7.298
 1069WAT     H2 3450   5.593   5.513   7.285
 1070WAT      O 3451   7.302   3.479   2.139
 1070WAT     H1 3452   7.322   3.410   2.209
 1070WAT     H2 3453   7.244   3.551   2.178
 1071WAT      O 3454   2.903   8.734   5.551
 1071WAT     H1 3455   2.959   8.765   5.474
 1071WAT     H2 3456   2.958   8.674   5.609
 1072WAT      O 3457   8.083   1.666   2.671
 1072WAT     H1 3458   8.145   1.598   2.710
 1072WAT     H2 3459   8.058   1.733   2.741
 1073WAT      O 3460   5.927   6.845   3.956
 1073WAT     H1 3461   5.878   6.851   4.043
 1073WAT     H2 3462   5.918   6.753   3.918
 1074WAT      O 3463   8.496   0.441   6.905
 1074WAT     H1 3464   8.568   0.507   6.924
 1074WAT     H2 3465   8.535   0.351   6.891
 1075WAT      O 3466   1.044   6.733   6.237
 1075WAT     H1 3467   1.143   6.738   6.248
 1075WAT     H2 3468   1.000   6.788   6.308
 1076WAT      O 3469   2.865   9.495   3.392
 1076WAT     H1 3470   2.885   9.405   3.355
 1076WAT     H2 3471   2.950   9.545   3.409
 1077WAT      O 3472   7.194   1.763   4.943
 1077WAT     H1 3473   7.248   1.847   4.941
 1077WAT     H2 3474   7.248   1.688   4.904
 1078WAT      O 3475   5.022   5.251   0.215
 1078WAT     H1 3476   4.922   5.255   0.215
 1078WAT     H2 3477   5.051   5.158   0.237
 1079WAT      O 3478   1.717   3.605   6.482
 1079WAT     H1 3479   1.764   3.521   6.452
 1079WAT     H2 3480   1.711   3.668   6.405
 1080WAT      O 3481   6.725   4.410   1.588
 1080WAT     H1 3482   6.788   4.418   1.666
 1080WAT     H2 3483   6.634   4.440   1.616
 1081WAT      O 3484   2.139   0.091   4.722
 1081WAT     H1 3485   2.114   0.181   4.686
 1081WAT     H2 3486   2.150   0.095   4.821
 1082WAT      O 3487   0.730   1.359   5.959
 1082WAT     H1 3488   0.631   1.354   5.946
 1082WAT     H2 3489   0.766   1.444   5.921
 1083WAT      O 3490   6.654   7.738   3.984
 1083WAT     H1 3491   6.750   7.725   3.957
 1083WAT     H2 3492   6.616   7.650   4.012
 1084WAT      O 3493   5.691   2.014   6.812
 1084WAT     H1 3494   5.738   1.983   6.894
 1084WAT     H2 3495   5.627   1.944   6.780
 1085WAT      O 3496   0.276   7.370   5.514
 1085WAT     H1 3497   0.355   7.311   5.530
 1085WAT     H2 3498   0.214   7.327   5.448
 1086WAT      O 3499   3.439   2.433   3.627
 1086WAT     H1 3500   3.513   2.446   3.693
 1086WAT     H2 3501   3.477   2.404   3.540
 1087WAT      O 3502   2.354   5.284   5.891
 1087WAT     H1 3503   2.415   5.340   5.947
 1087WAT     H2 3504   2.269   5.269   5.940
 1088WAT      O 3505   4.281   5.816   9.685
 1088WAT     H1 3506   4.326   5.865   9.760
 1088WAT     H2 3507   4.338   5.822   9.603
 1089WAT      O 3508   9.791   0.311   4.789
 1089WAT     H1 3509   9.737   0.331   4.707
 1089WAT     H2 3510   9.888   0.325   4.769
 1090WAT      O 3511   0.829   2.124   8.962
 1090WAT     H1 3512   0.837   2.200   8.897
 1090WAT     H2 3513   0.896   2.054   8.940
 1091WAT      O 3514   7.339   4.861   9.439
 1091WAT     H1 3515   7.257   4.906   9.405
 1091WAT     H2 3516   7.349   4.878   9.537
 1092WAT      O 3517   5.152   1.421   2.553
 1092WAT     H1 3518   5.180   1.339   2.503
 1092WAT     H2 3519   5.136   1.496   2.489
 1093WAT      O 3520   3.342   9.695   2.463
 1093WAT     H1 3521   3.315   9.681   2.368
 1093WAT     H2 3522   3.320   9.789   2.491
 1094WAT      O 3523   3.013   8.124   5.320
 1094WAT     H1 3524   2.952   8.070   5.376
 1094WAT     H2 3525   2.960   8.182   5.258
 1095WAT      O 3526   1.052   3.212   4.350
 1095WAT     H1 3527   1.019   3.163   4.430
 1095WAT     H2 3528   1.141   3.175   4.323
 1096WAT      O 3529   8.862   4.901   5.594
 1096WAT     H1 3530   8.865   4.801   5.594
 1096WAT     H2 3531   8.954   4.937   5.583
 1097WAT      O 3532   7.406   8.998   9.274
 1097WAT     H1 3533   7.399   8.904   9.307
 1097WAT     H2 3534   7.502   9.027   9.276
 1098WAT      O 3535   8.157   1.449   7.152
 1098WAT     H1 3536   8.079   1.498   7.191
 1098WAT     H2 3537   8.165   1.472   7.055
 1099WAT      O 3538   0.268   6.559   1.556
 1099WAT     H1 3539   0.232   6.471   1.587
 1099WAT     H2 3540   0.304   6.609   1.635
 1100WAT      O 3541   1.970   5.286   0.429
 1100WAT     H1 3542   1.879   5.251   0.407
 1100WAT     H2 3543   2.005   5.242   0.511
 1101WAT      O 3544   9.834   3.234   7.883
 1101WAT     H1 3545   9.769   3.305   7.910
 1101WAT     H2 3546   9.783   3.151   7.858
 1102WAT      O 3547   7.905   6.817   8.074
 1102WAT     H1 3548   7.971   6.793   8.145
 1102WAT     H2 3549   7.841   6.885   8.110
 1103WAT      O 3550   8.144   6.485   9.155
 1103WAT     H1 3551   8.226   6.456   9.105
 1103WAT     H2 3552   8.169   6.517   9.246
 1104WAT      O 3553   2.155   6.444   8.263
 1104WAT     H1 3554   2.145   6.499   8.347
 1104WAT     H2 3555   2.223   6.373   8.279
 1105WAT      O 3556   2.642   9.042   7.952
 1105WAT     H1 3557   2.554   9.048   7.904
 1105WAT     H2 3558   2.659   9.127   8.002
 1106WAT      O 3559   2.872   8.282   5.153
 1106WAT     H1 3560   2.815   8.335   5.217
 1106WAT     H2 3561   2.877   8.331   5.066
 1107WAT      O 3562   3.990   8.563   7.899
 1107WAT     H1 3563   4.063   8.593   7.960
 1107WAT     H2 3564   3.976   8.632   7.828
 1108WAT      O 3565   9.504   4.828   9.625
 1108WAT     H1 3566   9.422   4.874   9.590
 1108WAT     H2 3567   9.490   4.729   9.625
 1109WAT      O 3568   8.136   2.803   9.692
 1109WAT     H1 3569   8.102   2.897   9.702
 1109WAT     H2 3570   8.155   2.785   9.595
 1110WAT      O 3571   0.287   1.886   8.172
 1110WAT     H1 3572   0.348   1.808   8.181
 1110WAT     H2 3573   0.319   1.961   8.231
 1111WAT      O 3574   6.536   5.027   2.034
 1111WAT     H1 3575   6.608   4.963   2.007
 1111WAT     H2 3576   6.526   5.025   2.134
 1112WAT      O 3577   9.366   6.387   0.833
 1112WAT     H1 3578   9.421   6.424   0.907
 1112WAT     H2 3579   9.381   6.289   0.825
 1113WAT      O 3580   6.829   4.735   7.425
 1113WAT     H1 3581   6.851   4.696   7.336
 1113WAT     H2 3582   6.807   4.832   7.415
 1114WAT      O 3583   6.375   6.444   2.617
 1114WAT     H1 3584   6.325   6.472   2.535
 1114WAT     H2 3585   6.367   6.515   2.687
 1115WAT      O 3586   9.570   4.425   6.756
 1115WAT     H1 3587   9.564   4.342   6.812
 1115WAT     H2 3588   9.542   4.404   6.663
 1116WAT      O 3589   3.802   3.823   8.131
 1116WAT     H1 3590   3.895   3.849   8.158
 1116WAT     H2 3591   3.805   3.775   8.043
 1117WAT      O 3592   7.366   4.869   9.710
 1117WAT     H1 3593   7.387   4.777   9.743
 1117WAT     H2 3594   7.279   4.900   9.748
 1118WAT      O 3595   4.609   8.471   0.892
 1118WAT     H1 3596   4.629   8.483   0.795
 1118WAT     H2 3597   4.530   8.410   0.903
 1119WAT      O 3598   7.843   1.301   5.791
 1119WAT     H1 3599   7.791   1.357   5.856
 1119WAT     H2 3600   7.868   1.214   5.835
 1120WAT      O 3601   1.957   2.517   8.215
 1120WAT     H1 3602   1.889   2.471   8.158
 1120WAT     H2 3603   1.919   2.532   8.306
 1121WAT      O 3604   1.305   5.092   1.119
 1121WAT     H1 3605   1.367   5.051   1.185
 1121WAT     H2 3606   1.273   5.022   1.055
 1122WAT      O 3607   5.631   1.982   5.685
 1122WAT     H1 3608   5.714   2.012   5.732
 1122WAT     H2 3609   5.614   1.885   5.706
 1123WAT      O 3610   3.314   5.573   7.611
 1123WAT     H1 3611   3.216   5.566   7.627
 1123WAT     H2 3612   3.361   5.496   7.654
 1124WAT      O 3613   8.702   6.642   9.567
 1124WAT     H1 3614   8.724   6.717   9.629
 1124WAT     H2 3615   8.779   6.577   9.566
 1125WAT      O 3616   9.550   1.382   4.158
 1125WAT     H1 3617   9.465   1.364   4.207
 1125WAT     H2 3618   9.624   1.395   4.225
 1126WAT      O 3619   8.825   5.747   9.549
 1126WAT     H1 3620   8.873   5.808   9.612
 1126WAT     H2 3621   8.871   5.748   9.460
 1127WAT      O 3622   5.004   5.618   2.981
 1127WAT     H1 3623   5.011   5.706   3.029
 1127WAT     H2 3624   4.910   5.605   2.950
 1128WAT      O 3625   3.152   2.366   8.607
 1128WAT     H1 3626   3.068   2.350   8.556
 1128WAT     H2 3627   3.161   2.296   8.679
 1129WAT      O 3628   3.820   4.239   2.566
 1129WAT     H1 3629   3.832   4.140   2.552
 1129WAT     H2 3630   3.748   4.254   2.633
 1130WAT      O 3631   0.960   4.305   1.998
 1130WAT     H1 3632   1.050   4.319   2.039
 1130WAT     H2 3633   0.961   4.224   1.940
 1131WAT      O 3634   2.246   9.039   6.761
 1131WAT     H1 3635   2.221   9.062   6.855
 1131WAT     H2 3636   2.310   8.961   6.762
 1132WAT      O 3637   3.264   0.751   4.902
 1132WAT     H1 3638   3.219   0.724   4.987
 1132WAT     H2 3639   3.327   0.678   4.874
 1133WAT      O 3640   3.212   3.677   7.320
 1133WAT     H1 3641   3.289   3.633   7.274
 1133WAT     H2 3642   3.218   3.776   7.308
 1134WAT      O 3643   2.286   7.775   5.381
 1134WAT     H1 3644   2.205   7.718   5.365
 1134WAT     H2 3645   2.260   7.851   5.440
 1135WAT      O 3646   2.263   7.718   8.573
 1135WAT     H1 3647   2.335   7.758   8.516
 1135WAT     H2 3648   2.216   7.647   8.521
 1136WAT      O 3649   8.517   5.536   3.861
 1136WAT     H1 3650   8.489   5.625   3.825
 1136WAT     H2 3651   8.501   5.532   3.959
 1137WAT      O 3652   3.437   6.025   0.557
 1137WAT     H1 3653   3.508   5.956   0.546
 1137WAT     H2 3654   3.349   5.981   0.571
 1138WAT      O 3655   1.716   4.517   3.676
 1138WAT     H1 3656   1.654   4.585   3.716
 1138WAT     H2 3657   1.667   4.430   3.664
 1139WAT      O 3658   0.464   2.541   2.844
 1139WAT     H1 3659   0.480   2.616   2.908
 1139WAT     H2 3660   0.499   2.456   2.883
 1140WAT      O 3661   8.250   0.398   7.181
 1140WAT     H1 3662   8.261   0.497   7.184
 1140WAT     H2 3663   8.340   0.355   7.179
 1141WAT      O 3664   3.947   9.376   2.047
 1141WAT     H1 3665   4.005   9.365   1.967
 1141WAT     H2 3666   3.859   9.331   2.031
 1142WAT      O 3667   4.882   5.249   1.455
 1142WAT     H1 3668   4.806   5.311   1.470
 1142WAT     H2 3669   4.849   5.163   1.417
 1143WAT      O 3670   5.764   3.826   0.646
 1143WAT     H1 3671   5.841   3.850   0.705
 1143WAT     H2 3672   5.698   3.901   0.643
 1144WAT      O 3673   9.771   7.361   1.146
 1144WAT     H1 3674   9.739   7.373   1.052
 1144WAT     H2 3675   9.836   7.285   1.150
 1145WAT      O 3676   2.782   3.116   9.540
 1145WAT     H1 3677   2.868   3.076   9.568
 1145WAT     H2 3678   2.737   3.158   9.619
 1146WAT      O 3679   7.181   4.323   7.858
 1146WAT     H1 3680   7.215   4.303   7.950
 1146WAT     H2 3681   7.233   4.270   7.791
 1147WAT      O 3682   8.810   7.727   2.932
 1147WAT     H1 3683   8.776   7.818   2.957
 1147WAT     H2 3684   8.733   7.668   2.908
 1148WAT      O 3685   9.783   0.728   5.714
 1148WAT     H1 3686   9.792   0.824   5.740
 1148WAT     H2 3687   9.686   0.704   5.707
 1149WAT      O 3688   8.224   9.671   4.988
 1149WAT     H1 3689   8.265   9.583   5.014
 1149WAT     H2 3690   8.296   9.737   4.968
 1150WAT      O 3691   7.088   8.580   0.996
 1150WAT     H1 3692   7.046   8.659   0.952
 1150WAT     H2 3693   7.016   8.525   1.039
 1151WAT      O 3694   4.758   8.672   4.748
 1151WAT     H1 3695   4.855   8.685   4.726
 1151WAT     H2 3696   4.732   8.577   4.731
 1152WAT      O 3697   7.290   4.475   1.599
 1152WAT     H1 3698   7.241   4.412   1.539
 1152WAT     H2 3699   7.326   4.426   1.678
 1153WAT      O 3700   6.079   1.113   8.310
 1153WAT     H1 3701   6.049   1.177   8.381
 1153WAT     H2 3702   5.999   1.069   8.269
 1154WAT      O 3703   6.052   3.954   2.242
 1154WAT     H1 3704   6.081   3.908   2.159
 1154WAT     H2 3705   5.985   3.898   2.290
 1155WAT      O 3706   5.077   1.971   9.246
 1155WAT     H1 3707   5.167   1.933   9.223
 1155WAT     H2 3708   5.056   2.047   9.185
 1156WAT      O 3709   4.896   9.361   3.167
 1156WAT     H1 3710   4.882   9.262   3.175
 1156WAT     H2 3711   4.894   9.388   3.071
 1157WAT      O 3712   8.177   0.269   3.337
 1157WAT     H1 3713   8.258   0.298   3.286
 1157WAT     H2 3714   8.102   0.251   3.273
 1158WAT      O 3715   2.241   1.422   0.694
 1158WAT     H1 3716   2.214   1.504   0.745
 1158WAT     H2 3717   2.160   1.373   0.662
 1159WAT      O 3718   8.012   9.181   3.409
 1159WAT     H1 3719   8.101   9.150   3.377
 1159WAT     H2 3720   8.021   9.272   3.450
 1160WAT      O 3721   5.574   2.161   0.792
 1160WAT     H1 3722   5.561   2.239   0.731
 1160WAT     H2 3723   5.509   2.089   0.767
 1161WAT      O 3724   0.845   3.560   9.776
 1161WAT     H1 3725   0.921   3.621   9.800
 1161WAT     H2 3726   0.845   3.544   9.677
 1162WAT      O 3727   6.752   0.407   7.311
 1162WAT     H1 3728   6.827   0.395   7.246
 1162WAT     H2 3729   6.680   0.340   7.293
 1163WAT      O 3730   8.073   5.971   4.760
 1163WAT     H1 3731   8.087   6.070   4.764
 1163WAT     H2 3732   8.056   5.936   4.852
 1164WAT      O 3733   9.511   2.261   9.030
 1164WAT     H1 3734   9.502   2.346   9.080
 1164WAT     H2 3735   9.599   2.218   9.052
 1165WAT      O 3736   0.408   2.531   1.416
 1165WAT     H1 3737   0.338   2.578   1.469
 1165WAT     H2 3738   0.476   2.598   1.385
 1166WAT      O 3739   5.948   3.547   1.239
 1166WAT     H1 3740   5.928   3.463   1.288
 1166WAT     H2 3741   5.870   3.573   1.182
 1167WAT      O 3742   4.793   7.602   7.085
 1167WAT     H1 3743   4.845   7.620   7.002
 1167WAT     H2 3744   4.848   7.548   7.149
 1168WAT      O 3745   6.856   5.909   0.172
 1168WAT     H1 3746   6.758   5.919   0.191
 1168WAT     H2 3747   6.867   5.870   0.080
 1169WAT      O 3748   2.707   6.877   0.658
 1169WAT     H1 3749   2.646   6.941   0.610
 1169WAT     H2 3750   2.690   6.883   0.756
 1170WAT      O 3751   7.039   8.154   1.692
 1170WAT     H1 3752   7.097   8.207   1.754
 1170WAT     H2 3753   7.023   8.063   1.731
 1171WAT      O 3754   6.662   5.376   0.591
 1171WAT     H1 3755   6.711   5.312   0.650
 1171WAT     H2 3756   6.666   5.345   0.497
 1172WAT      O 3757   6.935   5.697   6.460
 1172WAT     H1 3758   7.000   5.643   6.513
 1172WAT     H2 3759   6.856   5.641   6.437
 1173WAT      O 3760   5.011   9.329   8.968
 1173WAT     H1 3761   4.947   9.261   8.934
 1173WAT     H2 3762   5.016   9.406   8.903
 1174WAT      O 3763   3.635   1.444   6.694
 1174WAT     H1 3764   3.724   1.474   6.660
 1174WAT     H2 3765   3.639   1.347   6.718
 1175WAT      O 3766   6.720   5.704   5.054
 1175WAT     H1 3767   6.732   5.744   5.145
 1175WAT     H2 3768   6.641   5.746   5.009
 1176WAT      O 3769   4.658   7.954   2.272
 1176WAT     H1 3770   4.658   7.862   2.311
 1176WAT     H2 3771   4.726   7.959   2.199
 1177WAT      O 3772   2.474   0.320   7.489
 1177WAT     H1 3773   2.388   0.331   7.438
 1177WAT     H2 3774   2.536   0.262   7.436
 1178WAT      O 3775   0.507   3.132   4.970
 1178WAT     H1 3776   0.513   3.088   5.060
 1178WAT     H2 3777   0.595   3.174   4.948
 1179WAT      O 3778   7.435   4.045   3.267
 1179WAT     H1 3779   7.472   4.073   3.178
 1179WAT     H2 3780   7.510   4.030   3.331
 1180WAT      O 3781   9.698   9.318   8.695
 1180WAT     H1 3782   9.736   9.351   8.608
 1180WAT     H2 3783   9.757   9.247   8.733
 1181WAT      O 3784   7.270   1.357   1.747
 1181WAT     H1 3785   7.259   1.355   1.647
 1181WAT     H2 3786   7.292   1.266   1.780
 1182WAT      O 3787   8.217   7.118   0.554
 1182WAT     H1 3788   8.120   7.101   0.575
 1182WAT     H2 3789   8.231   7.111   0.455
 1183WAT      O 3790   6.985   5.779   2.771
 1183WAT     H1 3791   6.891   5.805   2.795
 1183WAT     H2 3792   7.011   5.821   2.685
 1184WAT      O 3793   2.146   5.741   7.696
 1184WAT     H1 3794   2.101   5.785   7.775
 1184WAT     H2 3795   2.146   5.642   7.709
 1185WAT      O 3796   6.565   2.191   7.586
 1185WAT     H1 3797   6.502   2.159   7.515
 1185WAT     H2 3798   6.549   2.139   7.670
 1186WAT      O 3799   3.483   3.287   0.141
 1186WAT     H1 3800   3.548   3.342   0.088
 1186WAT     H2 3801   3.478   3.195   0.102
 1187WAT      O 3802   4.767   3.757   6.526
 1187WAT     H1 3803   4.736   3.676   6.477
 1187WAT     H2 3804   4.860   3.743   6.559
 1188WAT      O 3805   3.861   0.452   1.914
 1188WAT     H1 3806   3.901   0.497   1.834
 1188WAT     H2 3807   3.865   0.515   1.992
 1189WAT      O 3808   3.121   5.091   5.461
 1189WAT     H1 3809   3.151   5.005   5.419
 1189WAT     H2 3810   3.194   5.127   5.519
 1190WAT      O 3811   1.561   4.942   3.689
 1190WAT     H1 3812   1.556   4.842   3.692
 1190WAT     H2 3813   1.656   4.971   3.682
 1191WAT      O 3814   6.585   4.202   5.159
 1191WAT     H1 3815   6.622   4.233   5.071
 1191WAT     H2 3816   6.538   4.115   5.146
 1192WAT      O 3817   3.658   1.593   1.346
 1192WAT     H1 3818   3.666   1.601   1.247
 1192WAT     H2 3819   3.726   1.527   1.380
 1193WAT      O 3820   6.982   5.819   7.041
 1193WAT     H1 3821   6.988   5.919   7.042
 1193WAT     H2 3822   7.074   5.780   7.033
 1194WAT      O 3823   1.814   6.827   5.093
 1194WAT     H1 3824   1.881   6.804   5.164
 1194WAT     H2 3825   1.724   6.795   5.120
 1195WAT      O 3826   1.121   9.461   3.975
 1195WAT     H1 3827   1.092   9.372   3.939
 1195WAT     H2 3828   1.198   9.496   3.922
 1196WAT      O 3829   4.767   0.470   9.598
 1196WAT     H1 3830   4.735   0.426   9.682
 1196WAT     H2 3831   4.759   0.406   9.522
 1197WAT      O 3832   8.885   6.331   7.404
 1197WAT     H1 3833   8.837   6.355   7.320
 1197WAT     H2 3834   8.836   6.258   7.451
 1198WAT      O 3835   2.669   4.196   7.586
 1198WAT     H1 3836   2.710   4.177   7.497
 1198WAT     H2 3837   2.711   4.138   7.656
 1199WAT      O 3838   0.524   6.876   6.724
 1199WAT     H1 3839   0.466   6.953   6.751
 1199WAT     H2 3840   0.505   6.797   6.782
 1200WAT      O 3841   4.270   8.920   5.833
 1200WAT     H1 3842   4.349   8.963   5.877
 1200WAT     H2 3843   4.190   8.928   5.893
 1201WAT      O 3844   5.825   7.490   8.131
 1201WAT     H1 3845   5.765   7.470   8.054
 1201WAT     H2 3846   5.838   7.408   8.187
 1202WAT      O 3847   1.775   4.453   4.293
 1202WAT     H1 3848   1.747   4.369   4.339
 1202WAT     H2 3849   1.835   4.506   4.354
 1203WAT      O 3850   2.278   8.660   3.427
 1203WAT     H1 3851   2.266   8.615   3.338
 1203WAT     H2 3852   2.352   8.726   3.420
 1204WAT      O 3853   0.484   7.286   9.537
 1204WAT     H1 3854   0.407   7.285   9.600
 1204WAT     H2 3855   0.451   7.270   9.444
 1205WAT      O 3856   9.346   5.138   5.425
 1205WAT     H1 3857   9.421   5.114   5.364
 1205WAT     H2 3858   9.370   5.112   5.519
 1206WAT      O 3859   7.682   8.994   7.773
 1206WAT     H1 3860   7.657   8.922   7.837
 1206WAT     H2 3861   7.690   9.081   7.821
 1207WAT      O 3862   1.272   0.776   6.717
 1207WAT     H1 3863   1.213   0.728   6.652
 1207WAT     H2 3864   1.322   0.710   6.772
 1208WAT      O 3865   9.571   5.625   0.814
 1208WAT     H1 3866   9.615   5.586   0.895
 1208WAT     H2 3867   9.552   5.722   0.829
 1209WAT      O 3868   1.451   3.787   7.699
 1209WAT     H1 3869   1.360   3.790   7.657
 1209WAT     H2 3870   1.508   3.721   7.650
 1210WAT      O 3871   6.364   8.970   2.609
 1210WAT     H1 3872   6.459   8.986   2.636
 1210WAT     H2 3873   6.312   9.055   2.619
 1211WAT      O 3874   6.263   2.815   8.195
 1211WAT     H1 3875   6.344   2.783   8.244
 1211WAT     H2 3876   6.195   2.848   8.261
 1212WAT      O 3877   0.853   6.831   2.522
 1212WAT     H1 3878   0.876   6.835   2.425
 1212WAT     H2 3879   0.926   6.874   2.575
 1213WAT      O 3880   0.855   0.680   3.078
 1213WAT     H1 3881   0.935   0.697   3.136
 1213WAT     H2 3882   0.782   0.638   3.132
 1214WAT      O 3883   2.420   0.111   8.086
 1214WAT     H1 3884   2.377   0.071   8.167
 1214WAT     H2 3885   2.513   0.138   8.108
 1215WAT      O 3886   2.062   2.155   2.806
 1215WAT     H1 3887   1.985   2.192   2.859
 1215WAT     H2 3888   2.120   2.231   2.776
 1216WAT      O 3889   4.375   1.299   6.721
 1216WAT     H1 3890   4.463   1.267   6.686
 1216WAT     H2 3891   4.380   1.397   6.738
 1217WAT      O 3892   2.569   2.801   3.378
 1217WAT     H1 3893   2.648   2.761   3.331
 1217WAT     H2 3894   2.568   2.770   3.473
 1218WAT      O 3895   1.099   5.782   7.862
 1218WAT     H1 3896   1.016   5.754   7.814
 1218WAT     H2 3897   1.091   5.878   7.890
 1219WAT      O 3898   9.549   1.005   2.785
 1219WAT     H1 3899   9.473   1.059   2.749
 1219WAT     H2 3900   9.537   0.991   2.883
 1220WAT      O 3901   7.706   2.446   0.554
 1220WAT     H1 3902   7.792   2.420   0.597
 1220WAT     H2 3903   7.674   2.533   0.593
 1221WAT      O 3904   5.645   0.745   7.814
 1221WAT     H1 3905   5.700   0.672   7.854
 1221WAT     H2 3906   5.627   0.815   7.883
 1222WAT      O 3907   6.552   3.277   4.771
 1222WAT     H1 3908   6.565   3.218   4.850
 1222WAT     H2 3909   6.629   3.266   4.708
 1223WAT      O 3910   4.935   3.376   2.225
 1223WAT     H1 3911   4.870   3.423   2.165
 1223WAT     H2 3912   4.927   3.277   2.212
 1224WAT      O 3913   6.994   7.555   1.957
 1224WAT     H1 3914   7.051   7.513   2.028
 1224WAT     H2 3915   6.950   7.484   1.903
 1225WAT      O 3916   1.007   2.148   6.829
 1225WAT     H1 3917   0.928   2.130   6.888
 1225WAT     H2 3918   1.031   2.065   6.779
 1226WAT      O 3919   8.973   2.027   0.210
 1226WAT     H1 3920   8.944   2.101   0.149
 1226WAT     H2 3921   8.964   1.939   0.162
 1227WAT      O 3922   5.009   2.137   1.996
 1227WAT     H1 3923   5.023   2.218   1.939
 1227WAT     H2 3924   5.087   2.124   2.056
 1228WAT      O 3925   1.117   5.545   5.310
 1228WAT     H1 3926   1.118   5.502   5.220
 1228WAT     H2 3927   1.211   5.564   5.339
 1229WAT      O 3928   5.963   5.760   3.302
 1229WAT     H1 3929   6.051   5.715   3.283
 1229WAT     H2 3930   5.977   5.858   3.309
 1230WAT      O 3931   3.085   7.781   8.265
 1230WAT     H1 3932   3.160   7.716   8.260
 1230WAT     H2 3933   3.102   7.858   8.203
 1231WAT      O 3934   4.918   0.809   9.891
 1231WAT     H1 3935   4.993   0.744   9.876
 1231WAT     H2 3936   4.863   0.817   9.808
 1232WAT      O 3937   9.304   5.587   2.202
 1232WAT     H1 3938   9.314   5.619   2.296
 1232WAT     H2 3939   9.322   5.663   2.139
 1233WAT      O 3940   6.527   5.356   8.359
 1233WAT     H1 3941   6.598   5.297   8.397
 1233WAT     H2 3942   6.530   5.445   8.404
 1234WAT      O 3943   9.685   8.071   8.826
 1234WAT     H1 3944   9.777   8.072   8.789
 1234WAT     H2 3945   9.678   8.000   8.897
 1235WAT      O 3946   0.872   4.031   8.704
 1235WAT     H1 3947   0.931   4.034   8.784
 1235WAT     H2 3948   0.844   3.937   8.686
 1236WAT      O 3949   4.848   9.528   7.297
 1236WAT     H1 3950   4.828   9.624   7.277
 1236WAT     H2 3951   4.866   9.479   7.212
 1237WAT      O 3952   9.317   5.905   9.880
 1237WAT     H1 3953   9.305   5.887   9.783
 1237WAT     H2 3954   9.287   5.825   9.932
 1238WAT      O 3955   9.835   1.910   1.158
 1238WAT     H1 3956   9.882   1.985   1.110
 1238WAT     H2 3957   9.749   1.890   1.111
 1239WAT      O 3958   7.608   4.534   5.780
 1239WAT     H1 3959   7.561   4.615   5.745
 1239WAT     H2 3960   7.688   4.562   5.833
 1240WAT      O 3961   8.777   1.312   2.418
 1240WAT     H1 3962   8.696   1.291   2.363
 1240WAT     H2 3963   8.853   1.255   2.388
 1241WAT      O 3964   2.330   3.681   0.597
 1241WAT     H1 3965   2.317   3.582   0.593
 1241WAT     H2 3966   2.427   3.703   0.586
 1242WAT      O 3967   2.417   4.906   6.159
 1242WAT     H1 3968   2.448   4.857   6.078
 1242WAT     H2 3969   2.324   4.878   6.182
 1243WAT      O 3970   2.264   3.904   5.616
 1243WAT     H1 3971   2.301   3.967   5.684
 1243WAT     H2 3972   2.221   3.827   5.662
 1244WAT      O 3973   4.266   7.328   2.232
 1244WAT     H1 3974   4.221   7.256   2.179
 1244WAT     H2 3975   4.270   7.412   2.177
 1245WAT      O 3976   5.948   7.911   6.863
 1245WAT     H1 3977   5.882   7.966   6.812
 1245WAT     H2 3978   6.030   7.965   6.882
 1246WAT      O 3979   5.780   2.754   0.738
 1246WAT     H1 3980   5.721   2.674   0.751
 1246WAT     H2 3981   5.747   2.829   0.795
 1247WAT      O 3982   3.070   1.725   6.248
 1247WAT     H1 3983   3.092   1.742   6.152
 1247WAT     H2 3984   3.115   1.642   6.279
 1248WAT      O 3985   7.264   2.454   7.592
 1248WAT     H1 3986   7.236   2.510   7.514
 1248WAT     H2 3987   7.256   2.357   7.568
 1249WAT      O 3988   9.708   5.921   1.365
 1249WAT     H1 3989   9.639   5.916   1.437
 1249WAT     H2 3990   9.666   5.901   1.277
 1250WAT      O 3991   9.863   2.128   1.558
 1250WAT     H1 3992   9.783   2.143   1.617
 1250WAT     H2 3993   9.841   2.059   1.489
 1251WAT      O 3994   2.186   1.485   1.147
 1251WAT     H1 3995   2.141   1.397   1.130
 1251WAT     H2 3996   2.203   1.531   1.059
 1252WAT      O 3997   5.174   5.660   2.387
 1252WAT     H1 3998   5.273   5.667   2.391
 1252WAT     H2 3999   5.137   5.734   2.331
 1253WAT      O 4000   3.394   4.333   4.223
 1253WAT     H1 4001   3.477   4.298   4.267
 1253WAT     H2 4002   3.373   4.277   4.143
 1254WAT      O 4003   7.054   7.535   6.621
 1254WAT     H1 4004   7.052   7.602   6.695
 1254WAT     H2 4005   7.120   7.463   6.643
 1255WAT      O 4006   3.566   7.473   7.972
 1255WAT     H1 4007   3.553   7.382   7.933
 1255WAT     H2 4008   3.496   7.535   7.936
 1256WAT      O 4009   5.107   4.854   3.294
 1256WAT     H1 4010   5.142   4.844   3.387
 1256WAT     H2 4011   5.175   4.899   3.237
 1257WAT      O 4012   5.781   0.765   8.349
 1257WAT     H1 4013   5.843   0.687   8.356
 1257WAT     H2 4014   5.804   0.818   8.267
 1258WAT      O 4015   4.615   5.304   8.830
 1258WAT     H1 4016   4.640   5.232   8.766
 1258WAT     H2 4017   4.540   5.358   8.793
 1259WAT      O 4018   9.741   7.726   4.188
 1259WAT     H1 4019   9.678   7.695   4.117
 1259WAT     H2 4020   9.722   7.676   4.273
 1260WAT      O 4021   1.834   0.794   0.635
 1260WAT     H1 4022   1.854   0.888   0.661
 1260WAT     H2 4023   1.740   0.771   0.661
 1261WAT      O 4024   2.881   1.860   5.690
 1261WAT     H1 4025   2.838   1.945   5.659
 1261WAT     H2 4026   2.813   1.802   5.734
 1262WAT      O 4027   8.985   4.429   4.165
 1262WAT     H1 4028   8.931   4.383   4.095
 1262WAT     H2 4029   8.985   4.527   4.147
 1263WAT      O 4030   3.861   2.771   2.503
 1263WAT     H1 4031   3.832   2.703   2.571
 1263WAT     H2 4032   3.840   2.863   2.536
 1264WAT      O 4033   8.195   8.183   5.608
 1264WAT     H1 4034   8.268   8.115   5.602
 1264WAT     H2 4035   8.140   8.165   5.690
 1265WAT      O 4036   5.949   3.789   5.529
 1265WAT     H1 4037   6.012   3.815   5.455
 1265WAT     H2 4038   5.869   3.849   5.526
 1266WAT      O 4039   5.516   9.624   9.727
 1266WAT     H1 4040   5.539   9.544   9.783
 1266WAT     H2 4041   5.552   9.612   9.635
 1267WAT      O 4042   0.666   0.144   5.261
 1267WAT     H1 4043   0.750   0.143   5.207
 1267WAT     H2 4044   0.636   0.239   5.273
 1268WAT      O 4045   0.385   1.055   7.467
 1268WAT     H1 4046   0.314   1.037   7.399
 1268WAT     H2 4047   0.344   1.098   7.547
 1269WAT      O 4048   6.131   5.158   3.200
 1269WAT     H1 4049   6.097   5.234   3.145
 1269WAT     H2 4050   6.215   5.122   3.160
 1270WAT      O 4051   1.314   1.726   1.115
 1270WAT     H1 4052   1.337   1.631   1.092
 1270WAT     H2 4053   1.392   1.769   1.159
 1271WAT      O 4054   7.588   0.740   5.253
 1271WAT     H1 4055   7.495   0.775   5.251
 1271WAT     H2 4056   7.594   0.656   5.198
 1272WAT      O 4057   8.725   5.757   8.826
 1272WAT     H1 4058   8.685   5.704   8.751
 1272WAT     H2 4059   8.778   5.696   8.885
 1273WAT      O 4060   2.542   5.026   9.559
 1273WAT     H1 4061   2.600   4.947   9.578
 1273WAT     H2 4062   2.582   5.079   9.484
 1274WAT      O 4063   9.208   9.143   8.151
 1274WAT     H1 4064   9.228   9.086   8.072
 1274WAT     H2 4065   9.123   9.113   8.193
 1275WAT      O 4066   9.501   3.468   5.472
 1275WAT     H1 4067   9.407   3.465   5.505
 1275WAT     H2 4068   9.503   3.510   5.381
 1276WAT      O 4069   1.133   1.516   2.337
 1276WAT     H1 4070   1.143   1.485   2.431
 1276WAT     H2 4071   1.194   1.462   2.278
 1277WAT      O 4072   1.680   0.424   9.107
 1277WAT     H1 4073   1.755   0.483   9.137
 1277WAT     H2 4074   1.719   0.339   9.071
 1278WAT      O 4075   8.047   9.132   5.315
 1278WAT     H1 4076   7.982   9.136   5.239
 1278WAT     H2 4077   8.045   9.219   5.364
 1279WAT      O 4078   8.121   6.298   8.030
 1279WAT     H1 4079   8.046   6.327   7.970
 1279WAT     H2 4080   8.117   6.199   8.042
 1280WAT      O 4081   4.014   6.762   4.755
 1280WAT     H1 4082   3.972   6.672   4.766
 1280WAT     H2 4083   4.007   6.813   4.841
 1281WAT      O 4084   3.265   6.520   1.729
 1281WAT     H1 4085   3.251   6.618   1.741
 1281WAT     H2 4086   3.181   6.471   1.752
 1282WAT      O 4087   1.273   8.780   5.548
 1282WAT     H1 4088   1.371   8.781   5.531
 1282WAT     H2 4089   1.225   8.763   5.461
 1283WAT      O 4090   1.065   1.556   2.078
 1283WAT     H1 4091   1.019   1.485   2.025
 1283WAT     H2 4092   1.049   1.541   2.175
 1284WAT      O 4093   5.248   0.917   1.960
 1284WAT     H1 4094   5.321   0.973   1.999
 1284WAT     H2 4095   5.279   0.822   1.954
 1285WAT      O 4096   9.459   5.719   6.877
 1285WAT     H1 4097   9.427   5.681   6.790
 1285WAT     H2 4098   9.449   5.649   6.948
 1286WAT      O 4099   3.217   6.811   0.460
 1286WAT     H1 4100   3.128   6.829   0.501
 1286WAT     H2 4101   3.277   6.767   0.527
 1287WAT      O 4102   2.634   2.766   6.679
 1287WAT     H1 4103   2.676   2.747   6.590
 1287WAT     H2 4104   2.545   2.811   6.664
 1288WAT      O 4105   4.408   2.489   8.102
 1288WAT     H1 4106   4.465   2.410   8.080
 1288WAT     H2 4107   4.413   2.555   8.026
 1289WAT      O 4108   8.436   7.613   7.868
 1289WAT     H1 4109   8.434   7.562   7.954
 1289WAT     H2 4110   8.388   7.561   7.797
 1290WAT      O 4111   5.960   4.636   2.757
 1290WAT     H1 4112   5.963   4.622   2.856
 1290WAT     H2 4113   6.039   4.593   2.714
 1291WAT      O 4114   3.484   6.571   3.887
 1291WAT     H1 4115   3.398   6.603   3.925
 1291WAT     H2 4116   3.552   6.644   3.891
 1292WAT      O 4117   3.108   9.489   5.686
 1292WAT     H1 4118   3.073   9.529   5.602
 1292WAT     H2 4119   3.110   9.390   5.678
 1293WAT      O 4120   5.460   7.341   4.921
 1293WAT     H1 4121   5.388   7.407   4.943
 1293WAT     H2 4122   5.473   7.278   4.998
 1294WAT      O 4123   2.378   3.235   4.596
 1294WAT     H1 4124   2.392   3.155   4.655
 1294WAT     H2 4125   2.283   3.267   4.606
 1295WAT      O 4126   6.545   5.988   9.053
 1295WAT     H1 4127   6.602   5.943   9.122
 1295WAT     H2 4128   6.600   6.010   8.973
 1296WAT      O 4129   5.088   5.170   4.032
 1296WAT     H1 4130   5.164   5.116   3.993
 1296WAT     H2 4131   5.117   5.265   4.043
 1297WAT      O 4132   6.112   8.410   5.366
 1297WAT     H1 4133   6.040   8.479   5.376
 1297WAT     H2 4134   6.084   8.342   5.297
 1298WAT      O 4135   1.926   3.927   9.871
 1298WAT     H1 4136   1.830   3.946   9.849
 1298WAT     H2 4137   1.941   3.941   9.969
 1299WAT      O 4138   7.254   4.161   9.078
 1299WAT     H1 4139   7.192   4.177   9.155
 1299WAT     H2 4140   7.259   4.064   9.058
 1300WAT      O 4141   2.956   1.562   1.688
 1300WAT     H1 4142   2.932   1.467   1.667
 1300WAT     H2 4143   2.994   1.567   1.781
 1301WAT      O 4144   0.789   5.343   7.958
 1301WAT     H1 4145   0.855   5.287   8.009
 1301WAT     H2 4146   0.699   5.336   8.002
 1302WAT      O 4147   4.855   7.496   3.017
 1302WAT     H1 4148   4.924   7.430   2.987
 1302WAT     H2 4149   4.770   7.482   2.966
 1303WAT      O 4150   5.635   0.102   0.514
 1303WAT     H1 4151   5.723   0.057   0.498
 1303WAT     H2 4152   5.620   0.173   0.444
 1304WAT      O 4153   4.865   9.081   1.521
 1304WAT     H1 4154   4.946   9.053   1.572
 1304WAT     H2 4155   4.889   9.152   1.455
 1305WAT      O 4156   8.901   0.994   7.384
 1305WAT     H1 4157   8.889   0.931   7.308
 1305WAT     H2 4158   8.998   1.003   7.405
 1306WAT      O 4159   2.519   0.815   2.730
 1306WAT     H1 4160   2.609   0.772   2.740
 1306WAT     H2 4161   2.456   0.777   2.798
 1307WAT      O 4162   8.990   0.448   8.005
 1307WAT     H1 4163   9.073   0.391   8.006
 1307WAT     H2 4164   8.957   0.461   8.099
 1308WAT      O 4165   1.019   5.624   7.009
 1308WAT     H1 4166   0.948   5.641   6.941
 1308WAT     H2 4167   0.976   5.589   7.093
 1309WAT      O 4168   9.315   6.540   6.719
 1309WAT     H1 4169   9.413   6.526   6.706
 1309WAT     H2 4170   9.290   6.632   6.689
 1310WAT      O 4171   9.822   3.300   3.000
 1310WAT     H1 4172   9.749   3.268   3.061
 1310WAT     H2 4173   9.902   3.324   3.054
 1311WAT      O 4174   6.579   9.074   8.258
 1311WAT     H1 4175   6.633   8.991   8.270
 1311WAT     H2 4176   6.488   9.061   8.296
 1312WAT      O 4177   2.268   8.584   9.026
 1312WAT     H1 4178   2.317   8.527   8.960
 1312WAT     H2 4179   2.271   8.542   9.116
 1313WAT      O 4180   9.677   9.725   3.829
 1313WAT     H1 4181   9.679   9.780   3.913
 1313WAT     H2 4182   9.629   9.776   3.757
 1314WAT      O 4183   3.877   4.755   9.652
 1314WAT     H1 4184   3.780   4.730   9.651
 1314WAT     H2 4185   3.887   4.849   9.685
 1315WAT      O 4186   3.643   2.469   0.107
 1315WAT     H1 4187   3.712   2.396   0.108
 1315WAT     H2 4188   3.597   2.471   0.018
 1316WAT      O 4189   7.159   8.531   8.807
 1316WAT     H1 4190   7.072   8.483   8.800
 1316WAT     H2 4191   7.210   8.499   8.887
 1317WAT      O 4192   5.613   9.299   8.585
 1317WAT     H1 4193   5.583   9.266   8.496
 1317WAT     H2 4194   5.709   9.327   8.579
 1318WAT      O 4195   5.901   9.486   8.322
 1318WAT     H1 4196   5.825   9.550   8.312
 1318WAT     H2 4197   5.985   9.528   8.287
 1319WAT      O 4198   6.338   6.085   5.159
 1319WAT     H1 4199   6.323   5.987   5.173
 1319WAT     H2 4200   6.434   6.101   5.137
 1320WAT      O 4201   3.267   1.248   4.156
 1320WAT     H1 4202   3.188   1.271   4.214
 1320WAT     H2 4203   3.235   1.201   4.074
 1321WAT      O 4204   6.423   8.294   0.677
 1321WAT     H1 4205   6.428   8.331   0.769
 1321WAT     H2 4206   6.332   8.310   0.639
 1322WAT      O 4207   3.198   3.201   9.399
 1322WAT     H1 4208   3.186   3.144   9.318
 1322WAT     H2 4209   3.193   3.297   9.374
 1323WAT      O 4210   9.732   0.321   3.940
 1323WAT     H1 4211   9.704   0.239   3.989
 1323WAT     H2 4212   9.716   0.309   3.842
 1324WAT      O 4213   1.687   1.580   5.983
 1324WAT     H1 4214   1.631   1.601   6.063
 1324WAT     H2 4215   1.720   1.665   5.942
 1325WAT      O 4216   6.683   9.597   2.955
 1325WAT     H1 4217   6.619   9.527   2.922
 1325WAT     H2 4218   6.777   9.563   2.949
 1326WAT      O 4219   1.757   2.583   6.520
 1326WAT     H1 4220   1.763   2.672   6.475
 1326WAT     H2 4221   1.751   2.511   6.451
 1327WAT      O 4222   1.558   1.281   5.205
 1327WAT     H1 4223   1.478   1.330   5.169
 1327WAT     H2 4224   1.585   1.322   5.292
 1328WAT      O 4225   0.552   9.597   5.084
 1328WAT     H1 4226   0.454   9.614   5.093
 1328WAT     H2 4227   0.575   9.510   5.127
 1329WAT      O 4228   6.613   5.622   6.218
 1329WAT     H1 4229   6.523   5.582   6.236
 1329WAT     H2 4230   6.624   5.705   6.271
 1330WAT      O 4231   1.039   8.577   8.347
 1330WAT     H1 4232   0.939   8.571   8.355
 1330WAT     H2 4233   1.074   8.493   8.306
 1331WAT      O 4234   3.015   7.451   9.286
 1331WAT     H1 4235   3.063   7.520   9.231
 1331WAT     H2 4236   2.938   7.415   9.235
 1332WAT      O 4237   9.845   0.939   3.744
 1332WAT     H1 4238   9.942   0.965   3.745
 1332WAT     H2 4239   9.805   0.956   3.834
 1333WAT      O 4240   2.982   5.067   1.258
 1333WAT     H1 4241   2.934   5.155   1.259
 1333WAT     H2 4242   2.935   5.003   1.198
 1334WAT      O 4243   9.236   3.957   3.238
 1334WAT     H1 4244   9.254   3.875   3.291
 1334WAT     H2 4245   9.138   3.976   3.236
 1335WAT      O 4246   0.624   8.195   2.445
 1335WAT     H1 4247   0.547   8.220   2.504
 1335WAT     H2 4248   0.675   8.277   2.419
 1336WAT      O 4249   7.816   1.093   8.737
 1336WAT     H1 4250   7.837   1.187   8.763
 1336WAT     H2 4251   7.718   1.085   8.720
 1337WAT      O 4252   6.559   1.183   4.722
 1337WAT     H1 4253   6.522   1.276   4.719
 1337WAT     H2 4254   6.484   1.117   4.723
 1338WAT      O 4255   6.114   6.884   5.967
 1338WAT     H1 4256   6.034   6.862   5.911
 1338WAT     H2 4257   6.093   6.962   6.026
 1339WAT      O 4258   7.954   8.976   7.698
 1339WAT     H1 4259   7.961   9.052   7.633
 1339WAT     H2 4260   7.858   8.960   7.719
 1340WAT      O 4261   1.789   0.703   7.442
 1340WAT     H1 4262   1.869   0.697   7.384
 1340WAT     H2 4263   1.738   0.617   7.438
 1341WAT      O 4264   1.722   1.655   5.356
 1341WAT     H1 4265   1.650   1.613   5.411
 1341WAT     H2 4266   1.770   1.724   5.410
 1342WAT      O 4267   6.984   3.972   7.549
 1342WAT     H1 4268   6.893   3.965   7.508
 1342WAT     H2 4269   7.047   3.911   7.500
 1343WAT      O 4270   3.936   8.791   9.024
 1343WAT     H1 4271   3.921   8.784   9.122
 1343WAT     H2 4272   3.849   8.777   8.976
 1344WAT      O 4273   7.871   2.822   5.610
 1344WAT     H1 4274   7.898   2.853   5.519
 1344WAT     H2 4275   7.774   2.798   5.610
 1345WAT      O 4276   6.675   5.864   5.268
 1345WAT     H1 4277   6.608   5.868   5.342
 1345WAT     H2 4278   6.768   5.870   5.306
 1346WAT      O 4279   6.132   1.620   0.636
 1346WAT     H1 4280   6.193   1.699   0.641
 1346WAT     H2 4281   6.160   1.552   0.704
 1347WAT      O 4282   2.265   0.076   6.054
 1347WAT     H1 4283   2.210   0.140   6.001
 1347WAT     H2 4284   2.207   0.004   6.091
 1348WAT      O 4285   5.693   1.149   7.194
 1348WAT     H1 4286   5.679   1.073   7.257
 1348WAT     H2 4287   5.686   1.235   7.243
 1349WAT      O 4288   0.199   3.151   6.257
 1349WAT     H1 4289   0.295   3.152   6.231
 1349WAT     H2 4290   0.165   3.057   6.254
 1350WAT      O 4291   9.803   8.032   6.821
 1350WAT     H1 4292   9.839   8.030   6.727
 1350WAT     H2 4293   9.834   7.951   6.870
 1351WAT      O 4294   6.105   6.380   9.814
 1351WAT     H1 4295   6.187   6.377   9.871
 1351WAT     H2 4296   6.026   6.348   9.866
 1352WAT      O 4297   1.560   8.564   3.481
 1352WAT     H1 4298   1.520   8.472   3.486
 1352WAT     H2 4299   1.513   8.624   3.546
 1353WAT      O 4300   2.241   4.477   7.007
 1353WAT     H1 4301   2.307   4.548   7.034
 1353WAT     H2 4302   2.279   4.423   6.932
 1354WAT      O 4303   1.746   8.835   2.291
 1354WAT     H1 4304   1.809   8.847   2.214
 1354WAT     H2 4305   1.698   8.921   2.309
 1355WAT      O 4306   6.471   4.434   2.618
 1355WAT     H1 4307   6.501   4.424   2.712
 1355WAT     H2 4308   6.390   4.379   2.602
 1356WAT      O 4309   3.064   7.939   2.274
 1356WAT     H1 4310   2.978   7.939   2.325
 1356WAT     H2 4311   3.065   8.019   2.213
 1357WAT      O 4312   7.619   8.314   2.016
 1357WAT     H1 4313   7.682   8.244   1.983
 1357WAT     H2 4314   7.588   8.369   1.939
 1358WAT      O 4315   9.185   8.934   8.543
 1358WAT     H1 4316   9.237   8.898   8.621
 1358WAT     H2 4317   9.108   8.873   8.524
 1359WAT      O 4318   9.456   3.426   6.810
 1359WAT     H1 4319   9.361   3.405   6.788
 1359WAT     H2 4320   9.489   3.498   6.749
 1360WAT      O 4321   3.325   1.603   9.860
 1360WAT     H1 4322   3.273   1.686   9.880
 1360WAT     H2 4323   3.423   1.623   9.865
 1361WAT      O 4324   7.403   5.757   5.650
 1361WAT     H1 4325   7.422   5.805   5.564
 1361WAT     H2 4326   7.470   5.786   5.719
 1362WAT      O 4327   1.123   1.712   1.636
 1362WAT     H1 4328   1.164   1.802   1.624
 1362WAT     H2 4329   1.098   1.674   1.547
 1363WAT      O 4330   6.988   7.617   4.406
 1363WAT     H1 4331   6.905   7.641   4.457
 1363WAT     H2 4332   7.052   7.571   4.467
 1364WAT      O 4333   5.118   8.749   8.398
 1364WAT     H1 4334   5.033   8.798   8.382
 1364WAT     H2 4335   5.193   8.794   8.350
 1365WAT      O 4336   5.222   4.917   7.210
 1365WAT     H1 4337   5.317   4.945   7.229
 1365WAT     H2 4338   5.164   4.998   7.206
 1366WAT      O 4339   6.750   7.053   4.892
 1366WAT     H1 4340   6.777   6.962   4.859
 1366WAT     H2 4341   6.668   7.044   4.949
 1367WAT      O 4342   0.710   3.096   7.555
 1367WAT     H1 4343   0.661   3.159   7.495
 1367WAT     H2 4344   0.680   3.110   7.649
 1368WAT      O 4345   6.974   8.819   7.368
 1368WAT     H1 4346   7.051   8.767   7.330
 1368WAT     H2 4347   6.941   8.884   7.299
 1369WAT      O 4348   9.362   8.508   4.654
 1369WAT     H1 4349   9.411   8.485   4.569
 1369WAT     H2 4350   9.270   8.470   4.650
 1370WAT      O 4351   9.483   2.366   3.123
 1370WAT     H1 4352   9.477   2.396   3.219
 1370WAT     H2 4353   9.427   2.284   3.111
 1371WAT      O 4354   8.838   8.413   8.851
 1371WAT     H1 4355   8.739   8.397   8.845
 1371WAT     H2 4356   8.882   8.383   8.767
 1372WAT      O 4357   8.343   3.464   3.075
 1372WAT     H1 4358   8.439   3.488   3.093
 1372WAT     H2 4359   8.338   3.372   3.036
 1373WAT      O 4360   1.048   2.063   2.450
 1373WAT     H1 4361   1.078   1.979   2.495
 1373WAT     H2 4362   0.955   2.050   2.414
 1374WAT      O 4363   4.721   0.268   1.081
 1374WAT     H1 4364   4.660   0.347   1.080
 1374WAT     H2 4365   4.782   0.274   1.160
 1375WAT      O 4366   4.923   1.357   7.662
 1375WAT     H1 4367   4.918   1.457   7.653
 1375WAT     H2 4368   4.950   1.318   7.574
 1376WAT      O 4369   0.243   0.031   5.656
 1376WAT     H1 4370   0.162   0.053   5.602
 1376WAT     H2 4371   0.278  -0.059   5.628
 1377WAT      O 4372   3.135   3.221   1.043
 1377WAT     H1 4373   3.113   3.197   0.949
 1377WAT     H2 4374   3.091   3.307   1.068
 1378WAT      O 4375   8.773   1.973   9.736
 1378WAT     H1 4376   8.730   1.922   9.661
 1378WAT     H2 4377   8.872   1.958   9.733
 1379WAT      O 4378   8.348   5.159   6.053
 1379WAT     H1 4379   8.421   5.155   5.985
 1379WAT     H2 4380   8.329   5.255   6.076
 1380WAT      O 4381   5.800   0.030   2.757
 1380WAT     H1 4382   5.786   0.086   2.838
 1380WAT     H2 4383   5.889  -0.015   2.762
 1381WAT      O 4384   6.744   2.710   5.302
 1381WAT     H1 4385   6.790   2.641   5.247
 1381WAT     H2 4386   6.807   2.747   5.370
 1382WAT      O 4387   8.109   1.686   5.316
 1382WAT     H1 4388   8.061   1.745   5.251
 1382WAT     H2 4389   8.203   1.717   5.327
 1383WAT      O 4390   2.798   8.454   5.767
 1383WAT     H1 4391   2.893   8.484   5.759
 1383WAT     H2 4392   2.764   8.474   5.859
 1384WAT      O 4393   5.635   6.101   0.250
 1384WAT     H1 4394   5.547   6.065   0.281
 1384WAT     H2 4395   5.622   6.153   0.166
 1385WAT      O 4396   6.480   4.846   6.633
 1385WAT     H1 4397   6.557   4.794   6.595
 1385WAT     H2 4398   6.394   4.799   6.610
 1386WAT      O 4399   3.238   5.454   9.803
 1386WAT     H1 4400   3.158   5.502   9.766
 1386WAT     H2 4401   3.208   5.383   9.867
 1387WAT      O 4402   4.871   4.537   0.714
 1387WAT     H1 4403   4.927   4.461   0.680
 1387WAT     H2 4404   4.838   4.591   0.636
 1388WAT      O 4405   8.060   5.294   8.329
 1388WAT     H1 4406   8.150   5.305   8.285
 1388WAT     H2 4407   8.027   5.383   8.360
 1389WAT      O 4408   4.467   8.082   8.948
 1389WAT     H1 4409   4.473   8.161   8.887
 1389WAT     H2 4410   4.425   8.005   8.899
 1390WAT      O 4411   4.555   0.346   7.166
 1390WAT     H1 4412   4.511   0.257   7.177
 1390WAT     H2 4413   4.614   0.344   7.085
 1391WAT      O 4414   9.284   3.056   5.780
 1391WAT     H1 4415   9.247   2.985   5.720
 1391WAT     H2 4416   9.256   3.038   5.874
 1392WAT      O 4417   8.469   8.415   1.575
 1392WAT     H1 4418   8.388   8.358   1.583
 1392WAT     H2 4419   8.546   8.371   1.620
 1393WAT      O 4420   6.187   3.043   8.847
 1393WAT     H1 4421   6.168   3.100   8.767
 1393WAT     H2 4422   6.227   2.956   8.816
 1394WAT      O 4423   2.260   6.934   0.837
 1394WAT     H1 4424   2.237   7.012   0.897
 1394WAT     H2 4425   2.259   6.964   0.742
 1395WAT      O 4426   4.807   8.921   3.752
 1395WAT     H1 4427   4.798   8.882   3.660
 1395WAT     H2 4428   4.825   9.019   3.745
 1396WAT      O 4429   6.048   0.096   3.414
 1396WAT     H1 4430   6.119   0.165   3.430
 1396WAT     H2 4431   6.017   0.101   3.320
 1397WAT      O 4432   1.422   8.139   5.870
 1397WAT     H1 4433   1.439   8.052   5.824
 1397WAT     H2 4434   1.324   8.158   5.868
 1398WAT      O 4435   3.359   7.719   4.021
 1398WAT     H1 4436   3.458   7.711   4.012
 1398WAT     H2 4437   3.315   7.638   3.982
 1399WAT      O 4438   5.860   7.457   8.439
 1399WAT     H1 4439   5.774   7.506   8.453
 1399WAT     H2 4440   5.890   7.416   8.525
 1400WAT      O 4441   9.027   7.592   9.287
 1400WAT     H1 4442   9.100   7.650   9.323
 1400WAT     H2 4443   8.959   7.577   9.358
 1401WAT      O 4444   6.548   5.574   8.529
 1401WAT     H1 4445   6.543   5.658   8.474
 1401WAT     H2 4446   6.643   5.550   8.545
 1402WAT      O 4447   8.903   0.323   0.683
 1402WAT     H1 4448   8.928   0.420   0.682
 1402WAT     H2 4449   8.970   0.271   0.630
 1403WAT      O 4450   6.174   8.321   6.333
 1403WAT     H1 4451   6.232   8.391   6.373
 1403WAT     H2 4452   6.185   8.236   6.385
 1404WAT      O 4453   6.812   3.485   1.807
 1404WAT     H1 4454   6.715   3.463   1.811
 1404WAT     H2 4455   6.858   3.422   1.745
 1405WAT      O 4456   9.253   3.880   5.440
 1405WAT     H1 4457   9.202   3.799   5.467
 1405WAT     H2 4458   9.343   3.853   5.406
 1406WAT      O 4459   1.523   0.651   1.367
 1406WAT     H1 4460   1.465   0.692   1.297
 1406WAT     H2 4461   1.516   0.705   1.452
 1407WAT      O 4462   4.491   8.825   7.234
 1407WAT     H1 4463   4.565   8.860   7.178
 1407WAT     H2 4464   4.501   8.858   7.328
 1408WAT      O 4465   9.491   7.682   9.590
 1408WAT     H1 4466   9.529   7.766   9.552
 1408WAT     H2 4467   9.539   7.658   9.674
 1409WAT      O 4468   4.585   0.182   2.606
 1409WAT     H1 4469   4.612   0.096   2.650
 1409WAT     H2 4470   4.663   0.220   2.557
 1410WAT      O 4471   4.209   7.658   7.757
 1410WAT     H1 4472   4.275   7.629   7.688
 1410WAT     H2 4473   4.152   7.580   7.782
 1411WAT      O 4474   6.595   7.566   0.900
 1411WAT     H1 4475   6.512   7.617   0.922
 1411WAT     H2 4476   6.647   7.549   0.983
 1412WAT      O 4477   7.227   8.903   1.037
 1412WAT     H1 4478   7.188   8.871   0.951
 1412WAT     H2 4479   7.202   8.841   1.111
 1413WAT      O 4480   3.413   9.836   5.632
 1413WAT     H1 4481   3.336   9.837   5.568
 1413WAT     H2 4482   3.479   9.768   5.603
 1414WAT      O 4483   4.312   8.568   1.064
 1414WAT     H1 4484   4.234   8.533   1.116
 1414WAT     H2 4485   4.281   8.603   0.976
 1415WAT      O 4486   3.452   9.557   6.025
 1415WAT     H1 4487   3.475   9.484   6.089
 1415WAT     H2 4488   3.457   9.646   6.071
 1416WAT      O 4489   7.916   4.589   8.541
 1416WAT     H1 4490   7.887   4.555   8.451
 1416WAT     H2 4491   7.866   4.672   8.564
 1417WAT      O 4492   5.545   0.270   8.528
 1417WAT     H1 4493   5.452   0.253   8.495
 1417WAT     H2 4494   5.593   0.183   8.541
 1418WAT      O 4495   2.001   4.111   4.478
 1418WAT     H1 4496   2.032   4.089   4.385
 1418WAT     H2 4497   2.080   4.131   4.536
 1419WAT      O 4498   2.227   7.812   0.507
 1419WAT     H1 4499   2.294   7.875   0.468
 1419WAT     H2 4500   2.260   7.718   0.498
 1420WAT      O 4501   6.179   6.789   3.379
 1420WAT     H1 4502   6.191   6.774   3.281
 1420WAT     H2 4503   6.268   6.782   3.425
 1421WAT      O 4504   0.316   0.018   9.332
 1421WAT     H1 4505   0.230  -0.027   9.357
 1421WAT     H2 4506   0.392  -0.045   9.345
 1422WAT      O 4507   1.935   7.254   7.055
 1422WAT     H1 4508   1.935   7.344   7.098
 1422WAT     H2 4509   1.875   7.255   6.975
 1423WAT      O 4510   7.688   7.305   6.209
 1423WAT     H1 4511   7.763   7.342   6.154
 1423WAT     H2 4512   7.692   7.344   6.301
 1424WAT      O 4513   5.587   8.094   9.442
 1424WAT     H1 4514   5.592   8.010   9.388
 1424WAT     H2 4515   5.630   8.079   9.531
 1425WAT      O 4516   9.519   7.513   5.845
 1425WAT     H1 4517   9.465   7.567   5.781
 1425WAT     H2 4518   9.617   7.527   5.826
 1426WAT      O 4519   8.164   6.401   1.103
 1426WAT     H1 4520   8.199   6.466   1.170
 1426WAT     H2 4521   8.064   6.401   1.106
 1427WAT      O 4522   3.685   6.583   8.976
 1427WAT     H1 4523   3.704   6.640   9.056
 1427WAT     H2 4524   3.751   6.507   8.972
 1428WAT      O 4525   3.966   5.546   5.727
 1428WAT     H1 4526   3.952   5.589   5.638
 1428WAT     H2 4527   4.063   5.553   5.753
 1429WAT      O 4528   8.078   6.242   0.372
 1429WAT     H1 4529   8.012   6.282   0.308
 1429WAT     H2 4530   8.086   6.301   0.452
 1430WAT      O 4531   6.542   5.222   3.837
 1430WAT     H1 4532   6.513   5.239   3.931
 1430WAT     H2 4533   6.584   5.305   3.800
 1431WAT      O 4534   2.300   1.599   8.920
 1431WAT     H1 4535   2.268   1.621   9.012
 1431WAT     H2 4536   2.225   1.608   8.855
 1432WAT      O 4537   5.113   3.786   6.552
 1432WAT     H1 4538   5.092   3.851   6.625
 1432WAT     H2 4539   5.067   3.814   6.468
 1433WAT      O 4540   3.695   4.208   5.794
 1433WAT     H1 4541   3.680   4.228   5.697
 1433WAT     H2 4542   3.765   4.136   5.803
 1434WAT      O 4543   4.755   1.655   5.947
 1434WAT     H1 4544   4.787   1.740   5.905
 1434WAT     H2 4545   4.658   1.641   5.925
 1435WAT      O 4546   2.694   4.724   8.742
 1435WAT     H1 4547   2.594   4.726   8.736
 1435WAT     H2 4548   2.721   4.717   8.838
 1436WAT      O 4549   6.611   8.337   3.866
 1436WAT     H1 4550   6.636   8.263   3.803
 1436WAT     H2 4551   6.577   8.299   3.951
 1437WAT      O 4552   4.120   6.035   4.442
 1437WAT     H1 4553   4.169   6.122   4.455
 1437WAT     H2 4554   4.167   5.980   4.373
 1438WAT      O 4555   0.063   6.365   4.193
 1438WAT     H1 4556   0.096   6.420   4.269
 1438WAT     H2 4557   0.121   6.285   4.181
 1439WAT      O 4558   4.809   1.988   0.042
 1439WAT     H1 4559   4.862   1.982  -0.042
 1439WAT     H2 4560   4.743   2.063   0.035
 1440WAT      O 4561   6.479   3.640   0.846
 1440WAT     H1 4562   6.432   3.588   0.917
 1440WAT     H2 4563   6.553   3.693   0.886
 1441WAT      O 4564   5.133   0.907   0.686
 1441WAT     H1 4565   5.114   0.897   0.784
 1441WAT     H2 4566   5.202   0.979   0.672
 1442WAT      O 4567   0.245   2.965   7.896
 1442WAT     H1 4568   0.238   3.049   7.841
 1442WAT     H2 4569   0.314   2.978   7.967
 1443WAT      O 4570   6.340   9.292   5.376
 1443WAT     H1 4571   6.307   9.214   5.324
 1443WAT     H2 4572   6.404   9.262   5.446
 1444WAT      O 4573   8.835   8.210   7.359
 1444WAT     H1 4574   8.742   8.192   7.326
 1444WAT     H2 4575   8.884   8.264   7.291
 1445WAT      O 4576   0.031   6.900   1.767
 1445WAT     H1 4577  -0.002   6.926   1.857
 1445WAT     H2 4578  -0.047   6.884   1.706
 1446WAT      O 4579   6.643   7.177   3.035
 1446WAT     H1 4580   6.545   7.156   3.037
 1446WAT     H2 4581   6.658   7.269   3.072
 1447WAT      O 4582   0.320   8.618   1.812
 1447WAT     H1 4583   0.354   8.681   1.743
 1447WAT     H2 4584   0.301   8.667   1.897
 1448WAT      O 4585   6.632   5.162   6.051
 1448WAT     H1 4586   6.543   5.152   6.097
 1448WAT     H2 4587   6.620   5.213   5.966
 1449WAT      O 4588   9.232   3.752   0.356
 1449WAT     H1 4589   9.142   3.767   0.396
 1449WAT     H2 4590   9.301   3.749   0.429
 1450WAT      O 4591   3.922   7.663   6.132
 1450WAT     H1 4592   3.911   7.565   6.118
 1450WAT     H2 4593   3.949   7.681   6.227
 1451WAT      O 4594   1.455   7.460   2.599
 1451WAT     H1 4595   1.450   7.383   2.663
 1451WAT     H2 4596   1.393   7.532   2.629
 1452WAT      O 4597   0.204   6.809   3.564
 1452WAT     H1 4598   0.171   6.831   3.472
 1452WAT     H2 4599   0.127   6.815   3.628
 1453WAT      O 4600   1.028   9.677   3.584
 1453WAT     H1 4601   1.059   9.582   3.581
 1453WAT     H2 4602   1.069   9.722   3.664
 1454WAT      O 4603   9.010   8.948   9.668
 1454WAT     H1 4604   9.077   8.988   9.605
 1454WAT     H2 4605   8.953   8.883   9.620
 1455WAT      O 4606   9.762   9.759   5.735
 1455WAT     H1 4607   9.818   9.807   5.669
 1455WAT     H2 4608   9.798   9.666   5.748
 1456WAT      O 4609   2.312   1.588   3.278
 1456WAT     H1 4610   2.226   1.638   3.282
 1456WAT     H2 4611   2.360   1.597   3.365
 1457WAT      O 4612   1.303   2.201   3.911
 1457WAT     H1 4613   1.339   2.190   3.818
 1457WAT     H2 4614   1.351   2.276   3.956
 1458WAT      O 4615   4.974   0.767   4.551
 1458WAT     H1 4616   4.984   0.773   4.452
 1458WAT     H2 4617   4.968   0.671   4.578
 1459WAT      O 4618   7.288   3.235   4.113
 1459WAT     H1 4619   7.341   3.217   4.031
 1459WAT     H2 4620   7.321   3.319   4.157
 1460WAT      O 4621   3.356   4.179   6.847
 1460WAT     H1 4622   3.350   4.171   6.748
 1460WAT     H2 4623   3.293   4.251   6.878
 1461WAT      O 4624   3.991   6.607   1.184
 1461WAT     H1 4625   4.048   6.661   1.122
 1461WAT     H2 4626   3.904   6.653   1.198
 1462WAT      O 4627   3.874   3.674   7.563
 1462WAT     H1 4628   3.790   3.696   7.513
 1462WAT     H2 4629   3.910   3.587   7.531
 1463WAT      O 4630   2.784   7.690   8.516
 1463WAT     H1 4631   2.817   7.596   8.533
 1463WAT     H2 4632   2.699   7.686   8.464
 1464WAT      O 4633   3.101   4.097   3.358
 1464WAT     H1 4634   3.050   4.037   3.296
 1464WAT     H2 4635   3.062   4.189   3.355
 1465WAT      O 4636   8.404   5.166   0.413
 1465WAT     H1 4637   8.328   5.216   0.456
 1465WAT     H2 4638   8.438   5.220   0.335
 1466WAT      O 4639   0.232   7.880   3.727
 1466WAT     H1 4640   0.280   7.827   3.657
 1466WAT     H2 4641   0.154   7.828   3.761
 1467WAT      O 4642   3.047   0.193   1.131
 1467WAT     H1 4643   3.002   0.122   1.185
 1467WAT     H2 4644   2.996   0.208   1.046
 1468WAT      O 4645   1.921   7.580   3.059
 1468WAT     H1 4646   1.828   7.572   3.093
 1468WAT     H2 4647   1.941   7.675   3.038
 1469WAT      O 4648   8.973   0.437   7.022
 1469WAT     H1 4649   8.890   0.485   6.995
 1469WAT     H2 4650   9.047   0.462   6.960
 1470WAT      O 4651   7.230   1.874   6.905
 1470WAT     H1 4652   7.158   1.936   6.937
 1470WAT     H2 4653   7.309   1.928   6.875
 1471WAT      O 4654   5.423   8.513   0.601
 1471WAT     H1 4655   5.386   8.518   0.694
 1471WAT     H2 4656   5.449   8.419   0.581
 1472WAT      O 4657   6.247   3.589   6.207
 1472WAT     H1 4658   6.308   3.601   6.286
 1472WAT     H2 4659   6.162   3.546   6.237
 1473WAT      O 4660   8.737   7.440   6.242
 1473WAT     H1 4661   8.699   7.361   6.194
 1473WAT     H2 4662   8.733   7.424   6.341
 1474WAT      O 4663   3.378   6.207   8.316
 1474WAT     H1 4664   3.425   6.123   8.344
 1474WAT     H2 4665   3.425   6.286   8.355
 1475WAT      O 4666   1.338   3.611   7.940
 1475WAT     H1 4667   1.305   3.526   7.898
 1475WAT     H2 4668   1.334   3.685   7.872
 1476WAT      O 4669   2.800   7.981   8.298
 1476WAT     H1 4670   2.873   8.049   8.292
 1476WAT     H2 4671   2.840   7.889   8.297
 1477WAT      O 4672   1.109   5.973   4.383
 1477WAT     H1 4673   1.038   5.940   4.445
 1477WAT     H2 4674   1.197   5.975   4.431
 1478WAT      O 4675   6.932   7.289   9.513
 1478WAT     H1 4676   7.017   7.291   9.460
 1478WAT     H2 4677   6.925   7.372   9.567
 1479WAT      O 4678   0.548   2.507   2.288
 1479WAT     H1 4679   0.543   2.606   2.299
 1479WAT     H2 4680   0.458   2.467   2.306
 1480WAT      O 4681   3.919   4.059   4.142
 1480WAT     H1 4682   3.831   4.107   4.138
 1480WAT     H2 4683   3.943   4.042   4.238
 1481WAT      O 4684   5.844   0.975   9.214
 1481WAT     H1 4685   5.775   0.930   9.157
 1481WAT     H2 4686   5.910   0.907   9.245
 1482WAT      O 4687   3.343   4.340   6.295
 1482WAT     H1 4688   3.410   4.330   6.369
 1482WAT     H2 4689   3.341   4.257   6.241
 1483WAT      O 4690   6.650   9.760   6.968
 1483WAT     H1 4691   6.667   9.680   6.910
 1483WAT     H2 4692   6.687   9.744   7.059
 1484WAT      O 4693   4.890   4.287   8.674
 1484WAT     H1 4694   4.834   4.205   8.686
 1484WAT     H2 4695   4.876   4.349   8.752
 1485WAT      O 4696   3.072   9.278   6.813
 1485WAT     H1 4697   3.050   9.185   6.782
 1485WAT     H2 4698   3.114   9.328   6.738
 1486WAT      O 4699   3.906   0.854   3.385
 1486WAT     H1 4700   3.930   0.891   3.295
 1486WAT     H2 4701   3.985   0.804   3.422
 1487WAT      O 4702   7.413   0.836   8.463
 1487WAT     H1 4703   7.413   0.770   8.387
 1487WAT     H2 4704   7.455   0.794   8.543
 1488WAT      O 4705   4.466   2.005   0.590
 1488WAT     H1 4706   4.416   2.083   0.627
 1488WAT     H2 4707   4.527   1.968   0.660
 1489WAT      O 4708   7.184   2.515   2.598
 1489WAT     H1 4709   7.101   2.539   2.548
 1489WAT     H2 4710   7.227   2.598   2.633
 1490WAT      O 4711   3.520   3.676   4.303
 1490WAT     H1 4712   3.471   3.645   4.222
 1490WAT     H2 4713   3.581   3.603   4.335
 1491WAT      O 4714   5.450   7.353   2.998
 1491WAT     H1 4715   5.451   7.449   3.027
 1491WAT     H2 4716   5.403   7.346   2.910
 1492WAT      O 4717   6.393   3.586   7.553
 1492WAT     H1 4718   6.345   3.647   7.489
 1492WAT     H2 4719   6.338   3.503   7.567
 1493WAT      O 4720   1.915   8.236   7.355
 1493WAT     H1 4721   1.855   8.186   7.292
 1493WAT     H2 4722   1.871   8.322   7.381
 1494WAT      O 4723   3.684   6.982   5.802
 1494WAT     H1 4724   3.625   6.980   5.883
 1494WAT     H2 4725   3.628   6.969   5.720
 1495WAT      O 4726   4.840   1.981   1.824
 1495WAT     H1 4727   4.882   2.025   1.904
 1495WAT     H2 4728   4.884   2.014   1.741
 1496WAT      O 4729   1.632   5.780   1.991
 1496WAT     H1 4730   1.592   5.872   1.991
 1496WAT     H2 4731   1.584   5.723   1.924
 1497WAT      O 4732   5.083   7.003   0.617
 1497WAT     H1 4733   4.989   7.024   0.644
 1497WAT     H2 4734   5.093   6.904   0.606
 1498WAT      O 4735   2.210   6.274   9.488
 1498WAT     H1 4736   2.266   6.204   9.443
 1498WAT     H2 4737   2.267   6.354   9.508
 1499WAT      O 4738   4.348   4.664   3.098
 1499WAT     H1 4739   4.330   4.570   3.068
 1499WAT     H2 4740   4.283   4.726   3.053
 1500WAT      O 4741   9.276   3.787   3.781
 1500WAT     H1 4742   9.262   3.771   3.684
 1500WAT     H2 4743   9.197   3.835   3.819
 1501WAT      O 4744   6.320   9.038   8.035
 1501WAT     H1 4745   6.302   9.135   8.054
 1501WAT     H2 4746   6.244   9.000   7.983
 1502WAT      O 4747   5.265   6.875   7.849
 1502WAT     H1 4748   5.231   6.955   7.799
 1502WAT     H2 4749   5.338   6.902   7.912
 1503WAT      O 4750   3.775   0.361   3.313
 1503WAT     H1 4751   3.830   0.313   3.381
 1503WAT     H2 4752   3.835   0.408   3.248
 1504WAT      O 4753   6.449   1.248   3.856
 1504WAT     H1 4754   6.395   1.309   3.913
 1504WAT     H2 4755   6.513   1.301   3.800
 1505WAT      O 4756   1.909   0.772   9.830
 1505WAT     H1 4757   1.829   0.826   9.803
 1505WAT     H2 4758   1.992   0.816   9.795
 1506WAT      O 4759   1.945   5.082   6.208
 1506WAT     H1 4760   2.007   5.005   6.224
 1506WAT     H2 4761   1.851   5.052   6.223
 1507WAT      O 4762   3.460   5.496   0.887
 1507WAT     H1 4763   3.483   5.564   0.817
 1507WAT     H2 4764   3.462   5.405   0.846
 1508WAT      O 4765   9.882   1.484   0.116
 1508WAT     H1 4766   9.935   1.558   0.075
 1508WAT     H2 4767   9.818   1.447   0.048
 1509WAT      O 4768   0.141   0.709   7.707
 1509WAT     H1 4769   0.229   0.739   7.671
 1509WAT     H2 4770   0.109   0.774   7.775
 1510WAT      O 4771   1.933   1.486   6.462
 1510WAT     H1 4772   1.875   1.405   6.468
 1510WAT     H2 4773   1.878   1.567   6.444
 1511WAT      O 4774   6.917   0.335   2.251
 1511WAT     H1 4775   6.900   0.398   2.175
 1511WAT     H2 4776   6.879   0.246   2.230
 1512WAT      O 4777   5.528   7.842   7.768
 1512WAT     H1 4778   5.611   7.827   7.821
 1512WAT     H2 4779   5.511   7.940   7.760
 1513WAT      O 4780   0.621   9.801   9.688
 1513WAT     H1 4781   0.704   9.811   9.742
 1513WAT     H2 4782   0.636   9.837   9.596
 1514WAT      O 4783   3.565   3.988   3.013
 1514WAT     H1 4784   3.600   3.906   2.970
 1514WAT     H2 4785   3.642   4.039   3.054
 1515WAT      O 4786   2.589   4.402   1.796
 1515WAT     H1 4787   2.585   4.322   1.736
 1515WAT     H2 4788   2.536   4.477   1.755
 1516WAT      O 4789   7.153   3.910   2.785
 1516WAT     H1 4790   7.134   3.984   2.849
 1516WAT     H2 4791   7.068   3.886   2.737
 1517WAT      O 4792   6.646   6.777   3.711
 1517WAT     H1 4793   6.646   6.761   3.809
 1517WAT     H2 4794   6.641   6.689   3.663
 1518WAT      O 4795   6.353   5.750   4.077
 1518WAT     H1 4796   6.389   5.695   4.001
 1518WAT     H2 4797   6.407   5.834   4.087
 1519WAT      O 4798   4.225   6.950   8.264
 1519WAT     H1 4799   4.323   6.950   8.280
 1519WAT     H2 4800   4.205   7.001   8.180
 1520WAT      O 4801   6.330   9.691   3.546
 1520WAT     H1 4802   6.376   9.604   3.530
 1520WAT     H2 4803   6.232   9.677   3.556
 1521WAT      O 4804   5.805   7.518   2.337
 1521WAT     H1 4805   5.710   7.526   2.308
 1521WAT     H2 4806   5.814   7.444   2.403
 1522WAT      O 4807   5.105   1.941   3.850
 1522WAT     H1 4808   5.152   2.025   3.824
 1522WAT     H2 4809   5.038   1.917   3.780
 1523WAT      O 4810   5.388   3.656   0.877
 1523WAT     H1 4811   5.395   3.639   0.976
 1523WAT     H2 4812   5.448   3.594   0.828
 1524WAT      O 4813   2.731   5.823   1.036
 1524WAT     H1 4814   2.824   5.823   1.074
 1524WAT     H2 4815   2.720   5.745   0.975
 1525WAT      O 4816   9.145   2.611   0.527
 1525WAT     H1 4817   9.179   2.671   0.600
 1525WAT     H2 4818   9.045   2.610   0.528
 1526WAT      O 4819   6.784   2.560   4.557
 1526WAT     H1 4820   6.812   2.503   4.634
 1526WAT     H2 4821   6.757   2.651   4.589
 1527WAT      O 4822   5.214   7.154   2.192
 1527WAT     H1 4823   5.134   7.176   2.135
 1527WAT     H2 4824   5.185   7.124   2.282
 1528WAT      O 4825   4.015   0.495   1.539
 1528WAT     H1 4826   3.997   0.553   1.618
 1528WAT     H2 4827   3.963   0.410   1.548
 1529WAT      O 4828   6.211   0.683   1.695
 1529WAT     H1 4829   6.189   0.751   1.766
 1529WAT     H2 4830   6.246   0.600   1.739
 1530WAT      O 4831   1.050   4.713   1.443
 1530WAT     H1 4832   1.102   4.793   1.474
 1530WAT     H2 4833   1.026   4.724   1.347
 1531WAT      O 4834   0.476   5.556   8.749
 1531WAT     H1 4835   0.520   5.495   8.815
 1531WAT     H2 4836   0.538   5.571   8.672
 1532WAT      O 4837   5.361   5.668   2.056
 1532WAT     H1 4838   5.459   5.686   2.049
 1532WAT     H2 4839   5.333   5.604   1.984
 1533WAT      O 4840   9.630   2.596   7.107
 1533WAT     H1 4841   9.548   2.543   7.129
 1533WAT     H2 4842   9.708   2.559   7.156
 1534WAT      O 4843   0.279   5.268   9.429
 1534WAT     H1 4844   0.269   5.206   9.352
 1534WAT     H2 4845   0.347   5.231   9.493
 1535WAT      O 4846   2.907   7.382   4.361
 1535WAT     H1 4847   2.990   7.368   4.416
 1535WAT     H2 4848   2.827   7.380   4.420
 1536WAT      O 4849   1.693   0.101   9.248
 1536WAT     H1 4850   1.748   0.034   9.299
 1536WAT     H2 4851   1.753   0.174   9.215
 1537WAT      O 4852   6.820   5.271   1.482
 1537WAT     H1 4853   6.830   5.220   1.396
 1537WAT     H2 4854   6.785   5.362   1.463
 1538WAT      O 4855   3.059   8.695   6.512
 1538WAT     H1 4856   3.027   8.666   6.422
 1538WAT     H2 4857   3.020   8.637   6.582
 1539WAT      O 4858   5.153   1.819   8.218
 1539WAT     H1 4859   5.198   1.881   8.154
 1539WAT     H2 4860   5.204   1.734   8.225
 1540WAT      O 4861   5.080   2.033   7.076
 1540WAT     H1 4862   5.176   2.058   7.065
 1540WAT     H2 4863   5.036   2.029   6.986
 1541WAT      O 4864   7.309   3.908   9.288
 1541WAT     H1 4865   7.241   3.981   9.285
 1541WAT     H2 4866   7.370   3.916   9.209
 1542WAT      O 4867   8.813   3.614   1.929
 1542WAT     H1 4868   8.890   3.673   1.906
 1542WAT     H2 4869   8.838   3.553   2.004
 1543WAT      O 4870   8.131   5.422   4.710
 1543WAT     H1 4871   8.122   5.417   4.610
 1543WAT     H2 4872   8.187   5.500   4.735
 1544WAT      O 4873   2.076   7.618   3.677
 1544WAT     H1 4874   2.038   7.640   3.587
 1544WAT     H2 4875   2.003   7.624   3.746
 1545WAT      O 4876   3.772   4.780   4.376
 1545WAT     H1 4877   3.743   4.872   4.403
 1545WAT     H2 4878   3.807   4.783   4.282
 1546WAT      O 4879   3.334   8.798   3.133
 1546WAT     H1 4880   3.362   8.855   3.210
 1546WAT     H2 4881   3.349   8.847   3.047
 1547WAT      O 4882   3.773   7.468   4.135
 1547WAT     H1 4883   3.765   7.395   4.067
 1547WAT     H2 4884   3.706   7.452   4.208
 1548WAT      O 4885   8.669   8.530   9.807
 1548WAT     H1 4886   8.766   8.551   9.813
 1548WAT     H2 4887   8.623   8.557   9.892
 1549WAT      O 4888   5.043   6.305   7.146
 1549WAT     H1 4889   5.031   6.404   7.152
 1549WAT     H2 4890   4.962   6.259   7.182
 1550WAT      O 4891   8.697   4.868   8.502
 1550WAT     H1 4892   8.617   4.885   8.444
 1550WAT     H2 4893   8.773   4.926   8.470
 1551WAT      O 4894   4.858   6.359   2.616
 1551WAT     H1 4895   4.898   6.269   2.635
 1551WAT     H2 4896   4.792   6.351   2.541
 1552WAT      O 4897   6.741   2.807   2.964
 1552WAT     H1 4898   6.841   2.804   2.963
 1552WAT     H2 4899   6.707   2.781   3.054
 1553WAT      O 4900   8.251   1.112   6.734
 1553WAT     H1 4901   8.206   1.118   6.645
 1553WAT     H2 4902   8.187   1.140   6.806
 1554WAT      O 4903   5.771   0.716   5.977
 1554WAT     H1 4904   5.775   0.668   5.889
 1554WAT     H2 4905   5.856   0.766   5.991
 1555WAT      O 4906   4.858   0.834   1.018
 1555WAT     H1 4907   4.936   0.861   1.075
 1555WAT     H2 4908   4.783   0.805   1.077
 1556WAT      O 4909   5.035   1.734   6.318
 1556WAT     H1 4910   5.044   1.640   6.284
 1556WAT     H2 4911   4.967   1.783   6.263
 1557WAT      O 4912   5.321   5.796   0.324
 1557WAT     H1 4913   5.388   5.739   0.372
 1557WAT     H2 4914   5.229   5.776   0.359
 1558WAT      O 4915   9.327   5.679   6.651
 1558WAT     H1 4916   9.313   5.778   6.640
 1558WAT     H2 4917   9.264   5.630   6.591
 1559WAT      O 4918   1.874   3.730   1.875
 1559WAT     H1 4919   1.895   3.818   1.832
 1559WAT     H2 4920   1.888   3.737   1.974
 1560WAT      O 4921   2.050   0.501   0.843
 1560WAT     H1 4922   1.965   0.481   0.893
 1560WAT     H2 4923   2.028   0.532   0.751
 1561WAT      O 4924   9.343   7.143   5.663
 1561WAT     H1 4925   9.332   7.238   5.634
 1561WAT     H2 4926   9.440   7.121   5.669
 1562WAT      O 4927   4.637   4.894   7.823
 1562WAT     H1 4928   4.538   4.879   7.829
 1562WAT     H2 4929   4.675   4.835   7.752
 1563WAT      O 4930   9.015   9.069   3.913
 1563WAT     H1 4931   8.987   9.150   3.965
 1563WAT     H2 4932   9.096   9.091   3.858
 1564WAT      O 4933   2.792   5.101   9.034
 1564WAT     H1 4934   2.870   5.096   9.098
 1564WAT     H2 4935   2.719   5.040   9.066
 1565WAT      O 4936   7.669   2.433   1.258
 1565WAT     H1 4937   7.597   2.413   1.325
 1565WAT     H2 4938   7.631   2.425   1.166
 1566WAT      O 4939   0.049   7.287   4.631
 1566WAT     H1 4940   0.013   7.223   4.563
 1566WAT     H2 4941   0.010   7.265   4.721
 1567WAT      O 4942   8.530   2.873   4.681
 1567WAT     H1 4943   8.458   2.915   4.735
 1567WAT     H2 4944   8.613   2.930   4.686
 1568WAT      O 4945   1.615   5.175   5.866
 1568WAT     H1 4946   1.578   5.116   5.939
 1568WAT     H2 4947   1.702   5.213   5.895
 1569WAT      O 4948   2.381   8.305   7.152
 1569WAT     H1 4949   2.384   8.405   7.150
 1569WAT     H2 4950   2.454   8.271   7.212
 1570WAT      O 4951   6.520   4.157   0.040
 1570WAT     H1 4952   6.429   4.199   0.040
 1570WAT     H2 4953   6.585   4.219   0.085
 1571WAT      O 4954   7.035   2.361   1.165
 1571WAT     H1 4955   6.974   2.434   1.134
 1571WAT     H2 4956   6.997   2.319   1.248
 1572WAT      O 4957   1.926   0.863   3.965
 1572WAT     H1 4958   1.933   0.835   3.869
 1572WAT     H2 4959   1.986   0.941   3.981
 1573WAT      O 4960   1.182   4.250   0.653
 1573WAT     H1 4961   1.160   4.305   0.734
 1573WAT     H2 4962   1.128   4.166   0.655
 1574WAT      O 4963   4.002   0.882   0.120
 1574WAT     H1 4964   4.045   0.865   0.208
 1574WAT     H2 4965   3.965   0.796   0.084
 1575WAT      O 4966   1.309   6.877   9.819
 1575WAT     H1 4967   1.282   6.956   9.764
 1575WAT     H2 4968   1.343   6.907   9.908
 1576WAT      O 4969   5.699   3.659   8.270
 1576WAT     H1 4970   5.678   3.580   8.327
 1576WAT     H2 4971   5.634   3.664   8.195
 1577WAT      O 4972   9.472   4.359   1.596
 1577WAT     H1 4973   9.405   4.333   1.666
 1577WAT     H2 4974   9.478   4.459   1.591
 1578WAT      O 4975   0.343   2.491   7.550
 1578WAT     H1 4976   0.344   2.418   7.619
 1578WAT     H2 4977   0.429   2.488   7.499
 1579WAT      O 4978   1.235   6.708   2.765
 1579WAT     H1 4979   1.188   6.627   2.730
 1579WAT     H2 4980   1.315   6.727   2.707
 1580WAT      O 4981   7.174   2.784   8.099
 1580WAT     H1 4982   7.094   2.840   8.077
 1580WAT     H2 4983   7.185   2.713   8.029
 1581WAT      O 4984   3.803   8.422   4.311
 1581WAT     H1 4985   3.778   8.397   4.217
 1581WAT     H2 4986   3.729   8.395   4.373
 1582WAT      O 4987   4.822   8.140   1.718
 1582WAT     H1 4988   4.778   8.137   1.628
 1582WAT     H2 4989   4.921   8.141   1.707
 1583WAT      O 4990   9.672   1.586   9.460
 1583WAT     H1 4991   9.722   1.612   9.544
 1583WAT     H2 4992   9.634   1.668   9.417
 1584WAT      O 4993   6.495   9.681   2.697
 1584WAT     H1 4994   6.495   9.598   2.642
 1584WAT     H2 4995   6.402   9.717   2.704
 1585WAT      O 4996   1.755   9.300   8.205
 1585WAT     H1 4997   1.766   9.201   8.208
 1585WAT     H2 4998   1.789   9.334   8.117
 1586WAT      O 4999   1.578   6.789   0.953
 1586WAT     H1 5000   1.621   6.866   0.905
 1586WAT     H2 5001   1.642   6.752   1.020
 1587WAT      O 5002   8.456   4.962   3.103
 1587WAT     H1 5003   8.430   4.924   3.014
 1587WAT     H2 5004   8.540   4.918   3.135
 1588WAT      O 5005   1.820   8.299   6.895
 1588WAT     H1 5006   1.868   8.248   6.967
 1588WAT     H2 5007   1.886   8.355   6.844
 1589WAT      O 5008   6.757   1.390   2.956
 1589WAT     H1 5009   6.756   1.380   3.055
 1589WAT     H2 5010   6.751   1.300   2.913
 1590WAT      O 5011   4.366   1.376   7.525
 1590WAT     H1 5012   4.323   1.394   7.436
 1590WAT     H2 5013   4.314   1.306   7.573
 1591WAT      O 5014   8.643   8.157   2.705
 1591WAT     H1 5015   8.574   8.113   2.763
 1591WAT     H2 5016   8.734   8.124   2.730
 1592WAT      O 5017   9.844   8.600   9.239
 1592WAT     H1 5018   9.863   8.694   9.209
 1592WAT     H2 5019   9.829   8.600   9.338
 1593WAT      O 5020   1.528   4.378   5.722
 1593WAT     H1 5021   1.592   4.310   5.689
 1593WAT     H2 5022   1.537   4.462   5.668
 1594WAT      O 5023   0.855   1.646   3.062
 1594WAT     H1 5024   0.917   1.704   3.009
 1594WAT     H2 5025   0.762   1.683   3.056
 1595WAT      O 5026   8.163   7.222   6.972
 1595WAT     H1 5027   8.252   7.200   6.934
 1595WAT     H2 5028   8.159   7.194   7.068
 1596WAT      O 5029   5.696   7.689   3.569
 1596WAT     H1 5030   5.711   7.749   3.648
 1596WAT     H2 5031   5.606   7.646   3.577
 1597WAT      O 5032   0.315   4.840   7.186
 1597WAT     H1 5033   0.264   4.924   7.167
 1597WAT     H2 5034   0.279   4.766   7.129
 1598WAT      O 5035   5.003   4.564   1.301
 1598WAT     H1 5036   5.048   4.476   1.287
 1598WAT     H2 5037   4.942   4.558   1.380
 1599WAT      O 5038   5.865   6.130   0.806
 1599WAT     H1 5039   5.892   6.096   0.896
 1599WAT     H2 5040   5.796   6.069   0.766
 1600WAT      O 5041   0.122   1.952   9.483
 1600WAT     H1 5042   0.176   2.031   9.511
 1600WAT     H2 5043   0.025   1.974   9.491
 1601WAT      O 5044   4.904   1.723   5.224
 1601WAT     H1 5045   4.919   1.694   5.129
 1601WAT     H2 5046   4.991   1.721   5.273
 1602WAT      O 5047   1.464   5.393   3.009
 1602WAT     H1 5048   1.508   5.482   3.001
 1602WAT     H2 5049   1.427   5.382   3.102
 1603WAT      O 5050   8.814   5.952   8.988
 1603WAT     H1 5051   8.816   6.018   8.913
 1603WAT     H2 5052   8.782   5.864   8.953
 1604WAT      O 5053   6.356   6.317   8.472
 1604WAT     H1 5054   6.346   6.217   8.477
 1604WAT     H2 5055   6.277   6.356   8.425
 1605WAT      O 5056   7.194   1.972   3.363
 1605WAT     H1 5057   7.287   2.004   3.382
 1605WAT     H2 5058   7.181   1.881   3.401
 1606WAT      O 5059   2.661   6.490   1.947
 1606WAT     H1 5060   2.604   6.477   2.028
 1606WAT     H2 5061   2.757   6.483   1.973
 1607WAT      O 5062   4.821   6.826   0.280
 1607WAT     H1 5063   4.745   6.772   0.244
 1607WAT     H2 5064   4.870   6.869   0.205
 1608WAT      O 5065   7.942   9.080   5.007
 1608WAT     H1 5066   8.034   9.116   5.018
 1608WAT     H2 5067   7.940   8.984   5.035
 1609WAT      O 5068   3.495   0.652   2.061
 1609WAT     H1 5069   3.568   0.679   2.124
 1609WAT     H2 5070   3.458   0.733   2.015
 1610WAT      O 5071   4.364   8.275   2.688
 1610WAT     H1 5072   4.338   8.225   2.605
 1610WAT     H2 5073   4.360   8.213   2.766
 1611WAT      O 5074   2.095   0.449   4.971
 1611WAT     H1 5075   2.044   0.534   4.987
 1611WAT     H2 5076   2.179   0.470   4.921
 1612WAT      O 5077   5.906   1.202   0.034
 1612WAT     H1 5078   5.983   1.160   0.082
 1612WAT     H2 5079   5.821   1.177   0.080
 1613WAT      O 5080   1.446   0.016   5.078
 1613WAT     H1 5081   1.530   0.069   5.079
 1613WAT     H2 5082   1.460  -0.070   5.127
 1614WAT      O 5083   2.965   8.370   1.536
 1614WAT     H1 5084   2.894   8.429   1.575
 1614WAT     H2 5085   2.935   8.336   1.447
 1615WAT      O 5086   8.091   5.168   0.726
 1615WAT     H1 5087   8.004   5.215   0.714
 1615WAT     H2 5088   8.126   5.187   0.818
 1616WAT      O 5089   8.368   8.953   9.289
 1616WAT     H1 5090   8.405   8.907   9.208
 1616WAT     H2 5091   8.425   9.032   9.310
 1617WAT      O 5092   4.774   1.960   2.729
 1617WAT     H1 5093   4.720   1.926   2.652
 1617WAT     H2 5094   4.775   1.892   2.802
 1618WAT      O 5095   8.104   8.289   5.386
 1618WAT     H1 5096   8.188   8.338   5.362
 1618WAT     H2 5097   8.123   8.227   5.463
 1619WAT      O 5098   8.901   5.464   3.030
 1619WAT     H1 5099   8.850   5.465   2.944
 1619WAT     H2 5100   8.999   5.473   3.011
 1620WAT      O 5101   8.373   9.070   8.127
 1620WAT     H1 5102   8.412   9.062   8.035
 1620WAT     H2 5103   8.278   9.100   8.121
 1621WAT      O 5104   2.221   4.484   6.037
 1621WAT     H1 5105   2.163   4.449   6.110
 1621WAT     H2 5106   2.299   4.423   6.024
 1622WAT      O 5107   8.558   5.579   0.993
 1622WAT     H1 5108   8.636   5.593   1.055
 1622WAT     H2 5109   8.476   5.621   1.032
 1623WAT      O 5110   9.039   3.871   4.599
 1623WAT     H1 5111   9.085   3.820   4.672
 1623WAT     H2 5112   9.038   3.816   4.515
 1624WAT      O 5113   5.991   7.977   0.492
 1624WAT     H1 5114   6.066   8.042   0.475
 1624WAT     H2 5115   6.018   7.886   0.459
 1625WAT      O 5116   2.419   4.339   1.335
 1625WAT     H1 5117   2.461   4.287   1.409
 1625WAT     H2 5118   2.398   4.278   1.258
 1626WAT      O 5119   8.262   9.178   1.064
 1626WAT     H1 5120   8.210   9.135   0.991
 1626WAT     H2 5121   8.351   9.207   1.030
 1627WAT      O 5122   1.684   8.039   2.312
 1627WAT     H1 5123   1.706   7.944   2.333
 1627WAT     H2 5124   1.626   8.076   2.384
 1628WAT      O 5125   5.408   6.817   8.676
 1628WAT     H1 5126   5.356   6.736   8.648
 1628WAT     H2 5127   5.430   6.811   8.773
 1629WAT      O 5128   7.623   3.064   1.969
 1629WAT     H1 5129   7.650   3.010   1.889
 1629WAT     H2 5130   7.609   3.159   1.941
 1630WAT      O 5131   3.261   4.320   9.349
 1630WAT     H1 5132   3.249   4.223   9.371
 1630WAT     H2 5133   3.173   4.367   9.356
 1631WAT      O 5134   1.434   1.245   5.583
 1631WAT     H1 5135   1.397   1.335   5.607
 1631WAT     H2 5136   1.361   1.190   5.540
 1632WAT      O 5137   6.400   5.201   3.074
 1632WAT     H1 5138   6.327   5.217   3.008
 1632WAT     H2 5139   6.396   5.106   3.106
 1633WAT      O 5140   1.654   2.531   9.663
 1633WAT     H1 5141   1.620   2.607   9.718
 1633WAT     H2 5142   1.752   2.522   9.676
 1634WAT      O 5143   2.826   3.898   2.880
 1634WAT     H1 5144   2.890   3.821   2.874
 1634WAT     H2 5145   2.844   3.962   2.806
 1635WAT      O 5146   8.460   8.007   2.833
 1635WAT     H1 5147   8.375   8.020   2.883
 1635WAT     H2 5148   8.446   7.944   2.757
 1636WAT      O 5149   7.563   1.827   0.336
 1636WAT     H1 5150   7.509   1.910   0.349
 1636WAT     H2 5151   7.550   1.793   0.242
 1637WAT      O 5152   2.154   5.350   2.994
 1637WAT     H1 5153   2.238   5.403   3.009
 1637WAT     H2 5154   2.147   5.326   2.897
 1638WAT      O 5155   7.612   4.648   1.299
 1638WAT     H1 5156   7.571   4.636   1.390
 1638WAT     H2 5157   7.556   4.601   1.232
 1639WAT      O 5158   5.479   2.616   8.226
 1639WAT     H1 5159   5.431   2.578   8.147
 1639WAT     H2 5160   5.414   2.637   8.299
 1640WAT      O 5161   1.191   8.393   0.464
 1640WAT     H1 5162   1.241   8.351   0.388
 1640WAT     H2 5163   1.137   8.470   0.430
 1641WAT      O 5164   3.365   8.904   7.357
 1641WAT     H1 5165   3.293   8.971   7.375
 1641WAT     H2 5166   3.337   8.846   7.280
 1642WAT      O 5167   3.200   9.583   2.824
 1642WAT     H1 5168   3.197   9.678   2.792
 1642WAT     H2 5169   3.271   9.533   2.773
 1643WAT      O 5170   7.097   2.386   0.274
 1643WAT     H1 5171   7.122   2.442   0.353
 1643WAT     H2 5172   7.098   2.290   0.300
 1644WAT      O 5173   4.067   4.130   9.557
 1644WAT     H1 5174   4.027   4.096   9.472
 1644WAT     H2 5175   3.995   4.147   9.624
 1645WAT      O 5176   6.950   0.721   6.767
 1645WAT     H1 5177   7.044   0.751   6.783
 1645WAT     H2 5178   6.896   0.735   6.851
 1646WAT      O 5179   5.493   9.286   3.981
 1646WAT     H1 5180   5.477   9.320   3.889
 1646WAT     H2 5181   5.589   9.296   4.004
 1647WAT      O 5182   0.134   8.071   0.741
 1647WAT     H1 5183   0.063   8.019   0.788
 1647WAT     H2 5184   0.176   8.135   0.806
 1648WAT      O 5185   6.759   1.038   6.035
 1648WAT     H1 5186   6.698   0.963   6.011
 1648WAT     H2 5187   6.779   1.035   6.133
 1649WAT      O 5188   4.805   8.165   2.477
 1649WAT     H1 5189   4.770   8.257   2.460
 1649WAT     H2 5190   4.781   8.106   2.400
 1650WAT      O 5191   8.085   9.782   4.121
 1650WAT     H1 5192   8.071   9.839   4.039
 1650WAT     H2 5193   8.086   9.685   4.094
 1651WAT      O 5194   3.188   6.553   3.617
 1651WAT     H1 5195   3.126   6.597   3.552
 1651WAT     H2 5196   3.230   6.623   3.676
 1652WAT      O 5197   7.061   6.034   6.777
 1652WAT     H1 5198   7.088   6.115   6.726
 1652WAT     H2 5199   7.054   6.056   6.874
 1653WAT      O 5200   8.400   1.334   2.974
 1653WAT     H1 5201   8.372   1.243   2.941
 1653WAT     H2 5202   8.469   1.372   2.913
 1654WAT      O 5203   6.000   5.537   7.471
 1654WAT     H1 5204   6.042   5.627   7.478
 1654WAT     H2 5205   6.031   5.481   7.548
 1655WAT      O 5206   5.527   9.130   0.287
 1655WAT     H1 5207   5.568   9.055   0.339
 1655WAT     H2 5208   5.575   9.216   0.308
 1656WAT      O 5209   0.915   3.790   9.259
 1656WAT     H1 5210   1.008   3.752   9.263
 1656WAT     H2 5211   0.917   3.885   9.288
 1657WAT      O 5212   3.051   2.041   9.788
 1657WAT     H1 5213   3.146   2.070   9.795
 1657WAT     H2 5214   3.042   1.974   9.714
 1658WAT      O 5215   4.730   1.228   4.124
 1658WAT     H1 5216   4.799   1.261   4.060
 1658WAT     H2 5217   4.686   1.145   4.087
 1659WAT      O 5218   3.863   4.795   2.103
 1659WAT     H1 5219   3.800   4.801   2.181
 1659WAT     H2 5220   3.862   4.882   2.053
 1660WAT      O 5221   1.888   2.678   1.882
 1660WAT     H1 5222   1.861   2.650   1.974
 1660WAT     H2 5223   1.982   2.713   1.884
 1661WAT      O 5224   5.698   4.015   6.596
 1661WAT     H1 5225   5.690   4.096   6.539
 1661WAT     H2 5226   5.617   3.958   6.586
 1662WAT      O 5227   3.809   4.236   1.586
 1662WAT     H1 5228   3.887   4.245   1.524
 1662WAT     H2 5229   3.825   4.159   1.648
 1663WAT      O 5230   9.037   2.212   4.182
 1663WAT     H1 5231   9.049   2.115   4.160
 1663WAT     H2 5232   8.947   2.227   4.222
 1664WAT      O 5233   5.776   6.390   9.507
 1664WAT     H1 5234   5.715   6.315   9.531
 1664WAT     H2 5235   5.781   6.399   9.407
 1665WAT      O 5236   9.803   6.431   1.043
 1665WAT     H1 5237   9.851   6.348   1.014
 1665WAT     H2 5238   9.870   6.500   1.070
 1666WAT      O 5239   3.577   3.034   8.331
 1666WAT     H1 5240   3.508   2.962   8.319
 1666WAT     H2 5241   3.658   3.012   8.276
 1667WAT      O 5242   3.109   4.484   1.210
 1667WAT     H1 5243   3.066   4.573   1.195
 1667WAT     H2 5244   3.099   4.427   1.129
 1668WAT      O 5245   1.490   0.480   4.765
 1668WAT     H1 5246   1.416   0.469   4.698
 1668WAT     H2 5247   1.450   0.489   4.856
 1669WAT      O 5248   6.761   7.222   8.840
 1669WAT     H1 5249   6.803   7.260   8.757
 1669WAT     H2 5250   6.704   7.292   8.883
 1670WAT      O 5251   4.454   3.526   3.884
 1670WAT     H1 5252   4.410   3.573   3.961
 1670WAT     H2 5253   4.553   3.538   3.889
 1671WAT      O 5254   6.893   5.852   4.918
 1671WAT     H1 5255   6.849   5.864   4.829
 1671WAT     H2 5256   6.847   5.778   4.968
 1672WAT      O 5257   0.105   2.240   0.247
 1672WAT     H1 5258   0.197   2.217   0.277
 1672WAT     H2 5259   0.092   2.208   0.153
 1673WAT      O 5260   2.208   2.282   0.813
 1673WAT     H1 5261   2.216   2.354   0.744
 1673WAT     H2 5262   2.158   2.317   0.892
 1674WAT      O 5263   9.610   3.643   2.154
 1674WAT     H1 5264   9.610   3.741   2.135
 1674WAT     H2 5265   9.543   3.623   2.225
 1675WAT      O 5266   6.669   8.754   2.375
 1675WAT     H1 5267   6.710   8.843   2.354
 1675WAT     H2 5268   6.588   8.740   2.318
 1676WAT      O 5269   3.626   6.849   6.275
 1676WAT     H1 5270   3.585   6.907   6.346
 1676WAT     H2 5271   3.624   6.754   6.305
 1677WAT      O 5272   1.903   5.812   3.688
 1677WAT     H1 5273   1.851   5.730   3.711
 1677WAT     H2 5274   1.848   5.893   3.707
 1678WAT      O 5275   9.268   8.418   2.956
 1678WAT     H1 5276   9.312   8.328   2.947
 1678WAT     H2 5277   9.327   8.488   2.916
 1679WAT      O 5278   9.185   5.887   3.753
 1679WAT     H1 5279   9.197   5.926   3.661
 1679WAT     H2 5280   9.089   5.864   3.767
 1680WAT      O 5281   1.039   7.669   3.415
 1680WAT     H1 5282   1.058   7.626   3.503
 1680WAT     H2 5283   1.109   7.643   3.349
 1681WAT      O 5284   9.488   6.591   8.889
 1681WAT     H1 5285   9.477   6.655   8.813
 1681WAT     H2 5286   9.558   6.523   8.865
 1682WAT      O 5287   4.125   4.682   9.811
 1682WAT     H1 5288   4.038   4.694   9.762
 1682WAT     H2 5289   4.185   4.622   9.759
 1683WAT      O 5290   3.702   5.057   4.418
 1683WAT     H1 5291   3.756   5.084   4.338
 1683WAT     H2 5292   3.667   5.139   4.463
 1684WAT      O 5293   8.715   6.200   6.682
 1684WAT     H1 5294   8.732   6.102   6.675
 1684WAT     H2 5295   8.767   6.247   6.611
 1685WAT      O 5296   4.899   2.419   8.281
 1685WAT     H1 5297   4.869   2.443   8.374
 1685WAT     H2 5298   4.926   2.323   8.279
 1686WAT      O 5299   2.773   0.300   0.313
 1686WAT     H1 5300   2.774   0.249   0.399
 1686WAT     H2 5301   2.739   0.392   0.329
 1687WAT      O 5302   1.742   4.226   7.392
 1687WAT     H1 5303   1.703   4.231   7.484
 1687WAT     H2 5304   1.692   4.158   7.338
 1688WAT      O 5305   3.121   3.227   4.107
 1688WAT     H1 5306   3.205   3.251   4.157
 1688WAT     H2 5307   3.045   3.282   4.141
 1689WAT      O 5308   4.398   0.824   1.407
 1689WAT     H1 5309   4.394   0.893   1.479
 1689WAT     H2 5310   4.398   0.870   1.318
 1690WAT      O 5311   3.467   2.950   2.064
 1690WAT     H1 5312   3.502   2.967   1.971
 1690WAT     H2 5313   3.526   2.996   2.130
 1691WAT      O 5314   5.115   0.949   1.726
 1691WAT     H1 5315   5.092   1.045   1.705
 1691WAT     H2 5316   5.176   0.946   1.805
 1692WAT      O 5317   4.202   0.742   6.777
 1692WAT     H1 5318   4.271   0.806   6.745
 1692WAT     H2 5319   4.213   0.655   6.729
 1693WAT      O 5320   5.726   0.686   4.348
 1693WAT     H1 5321   5.810   0.661   4.395
 1693WAT     H2 5322   5.722   0.640   4.260
 1694WAT      O 5323   1.871   6.759   8.466
 1694WAT     H1 5324   1.838   6.853   8.456
 1694WAT     H2 5325   1.878   6.716   8.376
 1695WAT      O 5326   2.454   8.241   6.124
 1695WAT     H1 5327   2.550   8.266   6.113
 1695WAT     H2 5328   2.448   8.156   6.176
 1696WAT      O 5329   5.861   6.603   8.592
 1696WAT     H1 5330   5.906   6.580   8.678
 1696WAT     H2 5331   5.799   6.680   8.607
 1697WAT      O 5332   7.179   8.350   9.058
 1697WAT     H1 5333   7.266   8.349   9.108
 1697WAT     H2 5334   7.106   8.382   9.118
 1698WAT      O 5335   6.047   7.756   5.037
 1698WAT     H1 5336   5.954   7.786   5.015
 1698WAT     H2 5337   6.109   7.835   5.035
 1699WAT      O 5338   9.821   9.688   8.114
 1699WAT     H1 5339   9.725   9.680   8.140
 1699WAT     H2 5340   9.839   9.782   8.084
 1700WAT      O 5341   2.577   2.006   7.086
 1700WAT     H1 5342   2.576   2.105   7.100
 1700WAT     H2 5343   2.483   1.971   7.088
 1701WAT      O 5344   9.023   1.576   7.742
 1701WAT     H1 5345   8.979   1.516   7.808
 1701WAT     H2 5346   9.000   1.671   7.763
 1702WAT      O 5347   7.268   0.852   0.219
 1702WAT     H1 5348   7.282   0.946   0.248
 1702WAT     H2 5349   7.311   0.789   0.284
 1703WAT      O 5350   9.297   8.274   0.985
 1703WAT     H1 5351   9.390   8.255   1.017
 1703WAT     H2 5352   9.268   8.363   1.020
 1704WAT      O 5353   1.102   7.719   2.896
 1704WAT     H1 5354   1.150   7.671   2.823
 1704WAT     H2 5355   1.159   7.793   2.930
 1705WAT      O 5356   3.956   9.469   6.392
 1705WAT     H1 5357   3.949   9.378   6.352
 1705WAT     H2 5358   4.032   9.472   6.457
 1706WAT      O 5359   2.841   9.825   2.610
 1706WAT     H1 5360   2.855   9.923   2.599
 1706WAT     H2 5361   2.766   9.795   2.550
 1707WAT      O 5362   9.843   9.032   1.152
 1707WAT     H1 5363   9.766   9.038   1.215
 1707WAT     H2 5364   9.929   9.037   1.204
 1708WAT      O 5365   7.435   0.217   7.214
 1708WAT     H1 5366   7.363   0.175   7.158
 1708WAT     H2 5367   7.501   0.262   7.155
 1709WAT      O 5368   5.693   3.868   9.864
 1709WAT     H1 5369   5.723   3.773   9.859
 1709WAT     H2 5370   5.654   3.895   9.776
 1710WAT      O 5371   0.531   5.104   1.846
 1710WAT     H1 5372   0.488   5.026   1.892
 1710WAT     H2 5373   0.513   5.100   1.748
 1711WAT      O 5374   1.604   1.601   1.362
 1711WAT     H1 5375   1.524   1.585   1.420
 1711WAT     H2 5376   1.636   1.695   1.373
 1712WAT      O 5377   5.745   8.266   0.806
 1712WAT     H1 5378   5.668   8.314   0.849
 1712WAT     H2 5379   5.830   8.312   0.828
 1713WAT      O 5380   2.470   7.550   6.337
 1713WAT     H1 5381   2.411   7.558   6.256
 1713WAT     H2 5382   2.460   7.459   6.376
 1714WAT      O 5383   1.782   3.101   9.884
 1714WAT     H1 5384   1.724   3.182   9.882
 1714WAT     H2 5385   1.833   3.093   9.798
 1715WAT      O 5386   9.194   6.995   7.885
 1715WAT     H1 5387   9.180   6.905   7.843
 1715WAT     H2 5388   9.268   6.990   7.951
 1716WAT      O 5389   3.987   8.773   7.731
 1716WAT     H1 5390   3.965   8.750   7.636
 1716WAT     H2 5391   3.913   8.827   7.770
 1717WAT      O 5392   0.752   9.600   3.530
 1717WAT     H1 5393   0.841   9.632   3.564
 1717WAT     H2 5394   0.690   9.679   3.523
 1718WAT      O 5395   4.829   0.049   6.586
 1718WAT     H1 5396   4.887   0.102   6.523
 1718WAT     H2 5397   4.882  -0.026   6.624
 1719WAT      O 5398   5.512   7.855   6.068
 1719WAT     H1 5399   5.611   7.856   6.083
 1719WAT     H2 5400   5.488   7.928   6.003
 1720WAT      O 5401   1.783   5.608   1.109
 1720WAT     H1 5402   1.824   5.525   1.146
 1720WAT     H2 5403   1.720   5.646   1.177
 1721WAT      O 5404   1.337   0.833   8.254
 1721WAT     H1 5405   1.286   0.854   8.171
 1721WAT     H2 5406   1.315   0.740   8.285
 1722WAT      O 5407   5.730   9.069   3.685
 1722WAT     H1 5408   5.782   9.150   3.658
 1722WAT     H2 5409   5.742   9.053   3.783
 1723WAT      O 5410   2.768   4.726   0.206
 1723WAT     H1 5411   2.714   4.669   0.269
 1723WAT     H2 5412   2.823   4.790   0.259
 1724WAT      O 5413   2.272   4.199   5.677
 1724WAT     H1 5414   2.212   4.125   5.708
 1724WAT     H2 5415   2.264   4.276   5.739
 1725WAT      O 5416   0.634   2.853   7.016
 1725WAT     H1 5417   0.687   2.913   7.076
 1725WAT     H2 5418   0.626   2.895   6.925
 1726WAT      O 5419   3.406   9.054   0.080
 1726WAT     H1 5420   3.462   8.980   0.117
 1726WAT     H2 5421   3.405   9.047  -0.020
 1727WAT      O 5422   0.978   2.280   7.185
 1727WAT     H1 5423   1.046   2.219   7.226
 1727WAT     H2 5424   1.019   2.370   7.171
 1728WAT      O 5425   1.530   3.668   8.447
 1728WAT     H1 5426   1.508   3.588   8.504
 1728WAT     H2 5427   1.498   3.652   8.354
 1729WAT      O 5428   3.594   8.480   9.481
 1729WAT     H1 5429   3.649   8.396   9.478
 1729WAT     H2 5430   3.542   8.489   9.396
 1730WAT      O 5431   1.911   6.935   1.234
 1730WAT     H1 5432   1.997   6.982   1.254
 1730WAT     H2 5433   1.835   6.998   1.250
 1731WAT      O 5434   0.085   3.791   7.695
 1731WAT     H1 5435   0.007   3.797   7.632
 1731WAT     H2 5436   0.123   3.699   7.692
 1732WAT      O 5437   2.840   3.026   6.318
 1732WAT     H1 5438   2.841   2.933   6.354
 1732WAT     H2 5439   2.819   3.091   6.391
 1733WAT      O 5440   9.200   7.535   0.206
 1733WAT     H1 5441   9.205   7.476   0.126
 1733WAT     H2 5442   9.166   7.625   0.180
 1734WAT      O 5443   4.419   5.721   7.860
 1734WAT     H1 5444   4.488   5.782   7.900
 1734WAT     H2 5445   4.367   5.677   7.933
 1735WAT      O 5446   1.083   4.194   1.615
 1735WAT     H1 5447   1.018   4.250   1.667
 1735WAT     H2 5448   1.088   4.227   1.521
 1736WAT      O 5449   5.510   6.044   2.384
 1736WAT     H1 5450   5.511   6.057   2.285
 1736WAT     H2 5451   5.476   5.953   2.406
 1737WAT      O 5452   6.270   4.851   2.919
 1737WAT     H1 5453   6.191   4.907   2.945
 1737WAT     H2 5454   6.336   4.907   2.869
 1738WAT      O 5455   3.142   4.387   3.657
 1738WAT     H1 5456   3.200   4.312   3.623
 1738WAT     H2 5457   3.086   4.354   3.733
 1739WAT      O 5458   2.267   8.505   9.285
 1739WAT     H1 5459   2.192   8.544   9.338
 1739WAT     H2 5460   2.352   8.512   9.336
 1740WAT      O 5461   5.297   8.083   2.841
 1740WAT     H1 5462   5.298   8.109   2.744
 1740WAT     H2 5463   5.345   8.153   2.894
 1741WAT      O 5464   1.639   0.108   0.747
 1741WAT     H1 5465   1.625   0.161   0.663
 1741WAT     H2 5466   1.737   0.097   0.764
 1742WAT      O 5467   2.257   1.218   5.288
 1742WAT     H1 5468   2.194   1.248   5.359
 1742WAT     H2 5469   2.346   1.197   5.330
 1743WAT      O 5470   9.644   9.508   6.258
 1743WAT     H1 5471   9.649   9.559   6.172
 1743WAT     H2 5472   9.604   9.566   6.329
 1744WAT      O 5473   7.683   2.381   8.788
 1744WAT     H1 5474   7.584   2.392   8.797
 1744WAT     H2 5475   7.708   2.379   8.692
 1745WAT      O 5476   0.154   6.727   0.696
 1745WAT     H1 5477   0.214   6.648   0.682
 1745WAT     H2 5478   0.058   6.697   0.695
 1746WAT      O 5479   2.425   5.007   3.145
 1746WAT     H1 5480   2.478   4.932   3.185
 1746WAT     H2 5481   2.488   5.074   3.104
 1747WAT      O 5482   1.244   0.502   4.590
 1747WAT     H1 5483   1.187   0.427   4.625
 1747WAT     H2 5484   1.233   0.508   4.491
 1748WAT      O 5485   8.003   9.727   0.962
 1748WAT     H1 5486   7.933   9.753   1.029
 1748WAT     H2 5487   8.067   9.663   1.004
 1749WAT      O 5488   1.213   1.629   3.658
 1749WAT     H1 5489   1.273   1.614   3.580
 1749WAT     H2 5490   1.123   1.661   3.626
 1750WAT      O 5491   5.383   7.679   8.970
 1750WAT     H1 5492   5.476   7.642   8.965
 1750WAT     H2 5493   5.327   7.619   9.026
 1751WAT      O 5494   0.564   2.180   4.618
 1751WAT     H1 5495   0.492   2.111   4.621
 1751WAT     H2 5496   0.618   2.175   4.702
 1752WAT      O 5497   7.721   4.938   0.594
 1752WAT     H1 5498   7.805   4.981   0.561
 1752WAT     H2 5499   7.701   4.857   0.538
 1753WAT      O 5500   2.968   8.064   4.840
 1753WAT     H1 5501   2.994   8.025   4.752
 1753WAT     H2 5502   3.048   8.069   4.899
 1754WAT      O 5503   7.605   5.476   4.154
 1754WAT     H1 5504   7.598   5.496   4.056
 1754WAT     H2 5505   7.617   5.378   4.167
 1755WAT      O 5506   8.554   2.461   7.052
 1755WAT     H1 5507   8.624   2.523   7.016
 1755WAT     H2 5508   8.472   2.467   6.996
 1756WAT      O 5509   7.091   8.397   6.026
 1756WAT     H1 5510   7.007   8.451   6.025
 1756WAT     H2 5511   7.115   8.371   5.933
 1757WAT      O 5512   2.347   6.740   6.332
 1757WAT     H1 5513   2.330   6.664   6.395
 1757WAT     H2 5514   2.351   6.825   6.384
 1758WAT      O 5515   0.889   5.071   6.940
 1758WAT     H1 5516   0.879   5.080   7.039
 1758WAT     H2 5517   0.970   5.016   6.920
 1759WAT      O 5518   4.028   1.988   1.033
 1759WAT     H1 5519   4.124   1.984   1.061
 1759WAT     H2 5520   3.970   1.964   1.111
 1760WAT      O 5521   5.550   3.309   2.647
 1760WAT     H1 5522   5.476   3.253   2.611
 1760WAT     H2 5523   5.552   3.304   2.746
 1761WAT      O 5524   2.618   5.278   1.664
 1761WAT     H1 5525   2.626   5.215   1.741
 1761WAT     H2 5526   2.637   5.229   1.578
 1762WAT      O 5527   7.969   8.330   3.622
 1762WAT     H1 5528   7.923   8.282   3.697
 1762WAT     H2 5529   8.068   8.325   3.635
 1763WAT      O 5530   7.506   4.245   9.172
 1763WAT     H1 5531   7.586   4.215   9.121
 1763WAT     H2 5532   7.428   4.186   9.149
 1764WAT      O 5533   0.821   9.672   0.761
 1764WAT     H1 5534   0.724   9.698   0.761
 1764WAT     H2 5535   0.833   9.587   0.711
 1765WAT      O 5536   2.761   8.652   9.450
 1765WAT     H1 5537   2.800   8.571   9.493
 1765WAT     H2 5538   2.803   8.665   9.360
 1766WAT      O 5539   6.487   5.897   6.755
 1766WAT     H1 5540   6.573   5.846   6.760
 1766WAT     H2 5541   6.500   5.988   6.794
 1767WAT      O 5542   2.608   2.575   5.723
 1767WAT     H1 5543   2.663   2.525   5.657
 1767WAT     H2 5544   2.511   2.558   5.706
 1768WAT      O 5545   2.086   1.365   6.077
 1768WAT     H1 5546   2.001   1.406   6.042
 1768WAT     H2 5547   2.064   1.282   6.128
 1769WAT      O 5548   9.564   5.781   0.289
 1769WAT     H1 5549   9.611   5.761   0.376
 1769WAT     H2 5550   9.628   5.768   0.214
 1770WAT      O 5551   0.174   5.123   3.703
 1770WAT     H1 5552   0.085   5.161   3.730
 1770WAT     H2 5553   0.247   5.172   3.751
 1771WAT      O 5554   0.114   9.608   6.020
 1771WAT     H1 5555   0.123   9.516   5.982
 1771WAT     H2 5556   0.124   9.604   6.119
 1772WAT      O 5557   1.174   6.503   4.065
 1772WAT     H1 5558   1.087   6.550   4.078
 1772WAT     H2 5559   1.180   6.471   3.970
 1773WAT      O 5560   9.569   3.459   0.295
 1773WAT     H1 5561   9.587   3.367   0.261
 1773WAT     H2 5562   9.558   3.521   0.217
 1774WAT      O 5563   6.559   7.212   9.273
 1774WAT     H1 5564   6.653   7.242   9.259
 1774WAT     H2 5565   6.537   7.217   9.371
 1775WAT      O 5566   0.728   2.517   8.071
 1775WAT     H1 5567   0.630   2.498   8.073
 1775WAT     H2 5568   0.744   2.612   8.099
 1776WAT      O 5569   7.147   6.412   0.182
 1776WAT     H1 5570   7.106   6.340   0.126
 1776WAT     H2 5571   7.247   6.402   0.182
 1777WAT      O 5572   2.666   5.212   5.438
 1777WAT     H1 5573   2.599   5.258   5.496
 1777WAT     H2 5574   2.759   5.233   5.471
 1778WAT      O 5575   1.073   4.140   0.198
 1778WAT     H1 5576   0.985   4.188   0.191
 1778WAT     H2 5577   1.134   4.193   0.258
 1779WAT      O 5578   8.991   4.188   9.102
 1779WAT     H1 5579   9.071   4.135   9.075
 1779WAT     H2 5580   8.975   4.261   9.035
 1780WAT      O 5581   5.359   9.795   2.645
 1780WAT     H1 5582   5.398   9.863   2.582
 1780WAT     H2 5583   5.433   9.745   2.689
 1781WAT      O 5584   6.444   4.080   0.904
 1781WAT     H1 5585   6.484   4.049   0.990
 1781WAT     H2 5586   6.411   4.002   0.852
 1782WAT      O 5587   0.591   8.001   7.102
 1782WAT     H1 5588   0.665   7.947   7.063
 1782WAT     H2 5589   0.610   8.020   7.198
 1783WAT      O 5590   9.180   3.028   0.383
 1783WAT     H1 5591   9.149   3.110   0.335
 1783WAT     H2 5592   9.264   3.049   0.434
 1784WAT      O 5593   5.949   9.383   3.845
 1784WAT     H1 5594   6.015   9.451   3.877
 1784WAT     H2 5595   5.913   9.331   3.922
 1785WAT      O 5596   6.439   1.774   6.072
 1785WAT     H1 5597   6.513   1.754   6.008
 1785WAT     H2 5598   6.477   1.794   6.162
 1786WAT      O 5599   8.514   4.036   6.678
 1786WAT     H1 5600   8.444   4.103   6.701
 1786WAT     H2 5601   8.591   4.046   6.741
 1787WAT      O 5602   0.634   7.071   4.787
 1787WAT     H1 5603   0.682   7.073   4.700
 1787WAT     H2 5604   0.571   6.994   4.790
 1788WAT      O 5605   1.154   1.346   2.564
 1788WAT     H1 5606   1.214   1.270   2.588
 1788WAT     H2 5607   1.151   1.411   2.640
 1789WAT      O 5608   2.245   6.617   4.248
 1789WAT     H1 5609   2.249   6.585   4.154
 1789WAT     H2 5610   2.178   6.691   4.256
 1790WAT      O 5611   7.727   4.407   6.429
 1790WAT     H1 5612   7.812   4.377   6.472
 1790WAT     H2 5613   7.656   4.415   6.499
 1791WAT      O 5614   9.481   3.792   5.043
 1791WAT     H1 5615   9.579   3.798   5.029
 1791WAT     H2 5616   9.433   3.827   4.962
 1792WAT      O 5617   2.457   8.936   0.992
 1792WAT     H1 5618   2.456   8.839   1.018
 1792WAT     H2 5619   2.496   8.945   0.901
 1793WAT      O 5620   4.726   8.475   9.270
 1793WAT     H1 5621   4.692   8.388   9.306
 1793WAT     H2 5622   4.649   8.529   9.238
 1794WAT      O 5623   6.097   5.565   8.231
 1794WAT     H1 5624   6.012   5.572   8.180
 1794WAT     H2 5625   6.174   5.561   8.168
 1795WAT      O 5626   9.426   6.724   3.946
 1795WAT     H1 5627   9.443   6.815   3.910
 1795WAT     H2 5628   9.413   6.660   3.870
 1796WAT      O 5629   9.744   4.211   1.208
 1796WAT     H1 5630   9.720   4.140   1.142
 1796WAT     H2 5631   9.782   4.169   1.290
 1797WAT      O 5632   5.638   2.517   6.961
 1797WAT     H1 5633   5.647   2.423   6.991
 1797WAT     H2 5634   5.542   2.536   6.939
 1798WAT      O 5635   6.013   7.652   0.688
 1798WAT     H1 5636   6.088   7.686   0.745
 1798WAT     H2 5637   5.931   7.706   0.707
 1799WAT      O 5638   5.716   3.265   8.050
 1799WAT     H1 5639   5.715   3.178   8.001
 1799WAT     H2 5640   5.707   3.248   8.148
 1800WAT      O 5641   1.868   6.948   5.770
 1800WAT     H1 5642   1.958   6.955   5.726
 1800WAT     H2 5643   1.809   7.022   5.736
 1801WAT      O 5644   6.750   0.012   3.073
 1801WAT     H1 5645   6.726   0.046   3.164
 1801WAT     H2 5646   6.709  -0.078   3.060
 1802WAT      O 5647   0.734   8.739   5.543
 1802WAT     H1 5648   0.832   8.722   5.533
 1802WAT     H2 5649   0.703   8.798   5.469
 1803WAT      O 5650   0.020   8.470   2.034
 1803WAT     H1 5651   0.054   8.504   2.121
 1803WAT     H2 5652   0.091   8.416   1.989
 1804WAT      O 5653   0.422   4.709   7.794
 1804WAT     H1 5654   0.422   4.809   7.785
 1804WAT     H2 5655   0.368   4.669   7.720
 1805WAT      O 5656   2.603   1.615   0.789
 1805WAT     H1 5657   2.559   1.526   0.779
 1805WAT     H2 5658   2.533   1.686   0.798
 1806WAT      O 5659   9.265   9.498   4.740
 1806WAT     H1 5660   9.264   9.406   4.779
 1806WAT     H2 5661   9.284   9.492   4.642
 1807WAT      O 5662   7.627   9.005   4.641
 1807WAT     H1 5663   7.584   9.057   4.567
 1807WAT     H2 5664   7.681   8.930   4.602
 1808WAT      O 5665   3.679   5.662   4.445
 1808WAT     H1 5666   3.599   5.716   4.419
 1808WAT     H2 5667   3.728   5.707   4.519
 1809WAT      O 5668   6.323   8.079   3.954
 1809WAT     H1 5669   6.376   8.120   4.028
 1809WAT     H2 5670   6.341   7.981   3.950
 1810WAT      O 5671   3.303   3.200   6.301
 1810WAT     H1 5672   3.303   3.220   6.203
 1810WAT     H2 5673   3.219   3.235   6.343
 1811WAT      O 5674   8.456   4.887   5.067
 1811WAT     H1 5675   8.416   4.866   5.156
 1811WAT     H2 5676   8.409   4.835   4.996
 1812WAT      O 5677   7.628   1.853   1.317
 1812WAT     H1 5678   7.560   1.890   1.254
 1812WAT     H2 5679   7.583   1.806   1.392
 1813WAT      O 5680   6.431   3.571   9.803
 1813WAT     H1 5681   6.505   3.521   9.848
 1813WAT     H2 5682   6.410   3.653   9.856
 1814WAT      O 5683   9.281   3.701   9.642
 1814WAT     H1 5684   9.305   3.606   9.662
 1814WAT     H2 5685   9.254   3.709   9.546
 1815WAT      O 5686   7.807   2.690   2.080
 1815WAT     H1 5687   7.827   2.599   2.118
 1815WAT     H2 5688   7.709   2.705   2.078
 1816WAT      O 5689   2.077   0.240   5.914
 1816WAT     H1 5690   2.088   0.329   5.958
 1816WAT     H2 5691   1.984   0.207   5.929
 1817WAT      O 5692   8.170   4.329   0.490
 1817WAT     H1 5693   8.255   4.376   0.465
 1817WAT     H2 5694   8.120   4.305   0.407
 1818WAT      O 5695   1.644   5.941   3.463
 1818WAT     H1 5696   1.715   5.888   3.415
 1818WAT     H2 5697   1.655   6.038   3.441
 1819WAT      O 5698   0.750   3.454   4.702
 1819WAT     H1 5699   0.686   3.531   4.707
 1819WAT     H2 5700   0.840   3.488   4.676
 1820WAT      O 5701   7.698   5.504   2.752
 1820WAT     H1 5702   7.737   5.480   2.841
 1820WAT     H2 5703   7.620   5.445   2.733
 1821WAT      O 5704   5.861   6.626   3.805
 1821WAT     H1 5705   5.927   6.597   3.736
 1821WAT     H2 5706   5.787   6.559   3.812
 1822WAT      O 5707   1.308   5.763   0.462
 1822WAT     H1 5708   1.241   5.700   0.423
 1822WAT     H2 5709   1.262   5.847   0.491
 1823WAT      O 5710   5.827   1.703   7.363
 1823WAT     H1 5711   5.773   1.752   7.431
 1823WAT     H2 5712   5.861   1.617   7.402
 1824WAT      O 5713   6.247   9.343   5.011
 1824WAT     H1 5714   6.293   9.390   4.936
 1824WAT     H2 5715   6.195   9.409   5.065
 1825WAT      O 5716   5.022   3.575   4.516
 1825WAT     H1 5717   4.971   3.620   4.443
 1825WAT     H2 5718   4.979   3.487   4.537
 1826WAT      O 5719   9.407   0.434   9.597
 1826WAT     H1 5720   9.445   0.344   9.576
 1826WAT     H2 5721   9.444   0.502   9.533
 1827WAT      O 5722   8.367   2.062   3.329
 1827WAT     H1 5723   8.344   2.122   3.252
 1827WAT     H2 5724   8.401   2.117   3.404
 1828WAT      O 5725   8.006   2.417   6.742
 1828WAT     H1 5726   8.041   2.340   6.689
 1828WAT     H2 5727   7.939   2.468   6.688
 1829WAT      O 5728   2.225   5.932   2.050
 1829WAT     H1 5729   2.273   5.906   2.134
 1829WAT     H2 5730   2.130   5.901   2.056
 1830WAT      O 5731   5.813   5.682   9.225
 1830WAT     H1 5732   5.771   5.605   9.272
 1830WAT     H2 5733   5.801   5.672   9.127
 1831WAT      O 5734   6.060   0.449   9.618
 1831WAT     H1 5735   6.051   0.438   9.519
 1831WAT     H2 5736   5.990   0.513   9.651
 1832WAT      O 5737   4.366   1.428   8.970
 1832WAT     H1 5738   4.424   1.417   8.889
 1832WAT     H2 5739   4.288   1.487   8.947
 1833WAT      O 5740   1.656   2.822   7.888
 1833WAT     H1 5741   1.595   2.901   7.887
 1833WAT     H2 5742   1.711   2.820   7.804
 1834WAT      O 5743   3.304   0.988   9.702
 1834WAT     H1 5744   3.387   1.042   9.711
 1834WAT     H2 5745   3.224   1.048   9.712
 1835WAT      O 5746   7.827   5.684   0.335
 1835WAT     H1 5747   7.778   5.763   0.372
 1835WAT     H2 5748   7.809   5.604   0.392
 1836WAT      O 5749   1.438   1.375   9.570
 1836WAT     H1 5750   1.505   1.344   9.638
 1836WAT     H2 5751   1.407   1.467   9.593
 1837WAT      O 5752   6.775   5.000   5.831
 1837WAT     H1 5753   6.765   5.040   5.922
 1837WAT     H2 5754   6.723   4.916   5.826
 1838WAT      O 5755   2.422   4.762   1.249
 1838WAT     H1 5756   2.347   4.753   1.314
 1838WAT     H2 5757   2.476   4.677   1.249
 1839WAT      O 5758   4.647   1.588   6.250
 1839WAT     H1 5759   4.559   1.601   6.204
 1839WAT     H2 5760   4.705   1.668   6.235
 1840WAT      O 5761   3.578   8.123   2.486
 1840WAT     H1 5762   3.610   8.201   2.541
 1840WAT     H2 5763   3.562   8.045   2.546
 1841WAT      O 5764   6.176   5.528   9.232
 1841WAT     H1 5765   6.161   5.451   9.170
 1841WAT     H2 5766   6.272   5.555   9.228
 1842WAT      O 5767   1.555   9.490   3.645
 1842WAT     H1 5768   1.627   9.432   3.683
 1842WAT     H2 5769   1.568   9.500   3.547
 1843WAT      O 5770   8.057   9.156   4.325
 1843WAT     H1 5771   7.999   9.120   4.251
 1843WAT     H2 5772   8.143   9.106   4.328
 1844WAT      O 5773   7.664   9.136   9.276
 1844WAT     H1 5774   7.705   9.049   9.300
 1844WAT     H2 5775   7.682   9.203   9.347
 1845WAT      O 5776   2.064   7.108   6.539
 1845WAT     H1 5777   2.133   7.104   6.467
 1845WAT     H2 5778   2.087   7.182   6.603
 1846WAT      O 5779   1.056   6.285   4.962
 1846WAT     H1 5780   0.989   6.231   4.912
 1846WAT     H2 5781   1.018   6.374   4.985
 1847WAT      O 5782   9.523   0.671   5.986
 1847WAT     H1 5783   9.525   0.670   5.886
 1847WAT     H2 5784   9.492   0.582   6.020
 1848WAT      O 5785   5.354   1.826   9.513
 1848WAT     H1 5786   5.402   1.753   9.562
 1848WAT     H2 5787   5.339   1.797   9.418
 1849WAT      O 5788   0.206   5.051   0.118
 1849WAT     H1 5789   0.239   4.959   0.098
 1849WAT     H2 5790   0.214   5.069   0.215
 1850WAT      O 5791   9.550   2.309   8.038
 1850WAT     H1 5792   9.504   2.361   7.966
 1850WAT     H2 5793   9.538   2.355   8.125
 1851WAT      O 5794   5.091   7.452   5.784
 1851WAT     H1 5795   5.166   7.487   5.840
 1851WAT     H2 5796   5.110   7.358   5.757
 1852WAT      O 5797   7.999   3.763   8.117
 1852WAT     H1 5798   8.029   3.670   8.137
 1852WAT     H2 5799   8.071   3.828   8.141
 1853WAT      O 5800   7.869   8.368   2.516
 1853WAT     H1 5801   7.826   8.395   2.602
 1853WAT     H2 5802   7.869   8.268   2.508
 1854WAT      O 5803   4.058   5.263   1.588
 1854WAT     H1 5804   4.105   5.210   1.658
 1854WAT     H2 5805   4.111   5.346   1.568
 1855WAT      O 5806   0.957   3.192   7.013
 1855WAT     H1 5807   1.022   3.131   6.967
 1855WAT     H2 5808   0.864   3.167   6.986
 1856WAT      O 5809   2.233   1.229   8.207
 1856WAT     H1 5810   2.267   1.156   8.266
 1856WAT     H2 5811   2.134   1.234   8.214
 1857WAT      O 5812   7.550   4.497   4.932
 1857WAT     H1 5813   7.484   4.567   4.959
 1857WAT     H2 5814   7.616   4.535   4.868
 1858WAT      O 5815   6.005   7.621   0.202
 1858WAT     H1 5816   5.975   7.670   0.119
 1858WAT     H2 5817   6.044   7.686   0.267
 1859WAT      O 5818   9.759   7.113   4.529
 1859WAT     H1 5819   9.673   7.156   4.502
 1859WAT     H2 5820   9.740   7.025   4.573
 1860WAT      O 5821   5.011   5.899   2.496
 1860WAT     H1 5822   5.057   5.946   2.421
 1860WAT     H2 5823   5.080   5.860   2.558
 1861WAT      O 5824   8.705   0.588   8.682
 1861WAT     H1 5825   8.627   0.526   8.685
 1861WAT     H2 5826   8.709   0.642   8.766
 1862WAT      O 5827   8.566   0.015   8.720
 1862WAT     H1 5828   8.545   0.083   8.650
 1862WAT     H2 5829   8.616  -0.062   8.679
 1863WAT      O 5830   1.981   1.496   3.406
 1863WAT     H1 5831   1.963   1.402   3.379
 1863WAT     H2 5832   2.026   1.544   3.331
 1864WAT      O 5833   0.675   4.407   9.533
 1864WAT     H1 5834   0.623   4.334   9.577
 1864WAT     H2 5835   0.744   4.442   9.596
 1865WAT      O 5836   8.836   0.939   2.427
 1865WAT     H1 5837   8.801   0.980   2.511
 1865WAT     H2 5838   8.834   0.839   2.436
 1866WAT      O 5839   4.081   2.238   8.600
 1866WAT     H1 5840   4.036   2.179   8.667
 1866WAT     H2 5841   4.176   2.254   8.627
 1867WAT      O 5842   9.656   6.166   4.661
 1867WAT     H1 5843   9.620   6.257   4.640
 1867WAT     H2 5844   9.685   6.121   4.577
 1868WAT      O 5845   0.863   0.948   0.284
 1868WAT     H1 5846   0.900   0.895   0.360
 1868WAT     H2 5847   0.763   0.949   0.290
 1869WAT      O 5848   2.587   3.099   8.930
 1869WAT     H1 5849   2.552   3.086   9.023
 1869WAT     H2 5850   2.511   3.096   8.865
 1870WAT      O 5851   1.653   7.369   8.799
 1870WAT     H1 5852   1.582   7.331   8.739
 1870WAT     H2 5853   1.736   7.313   8.793
 1871WAT      O 5854   3.187   6.225   6.487
 1871WAT     H1 5855   3.253   6.285   6.442
 1871WAT     H2 5856   3.156   6.155   6.422
 1872WAT      O 5857   0.758   7.808   9.286
 1872WAT     H1 5858   0.758   7.853   9.375
 1872WAT     H2 5859   0.681   7.840   9.232
 1873WAT      O 5860   3.472   1.150   1.018
 1873WAT     H1 5861   3.512   1.059   1.015
 1873WAT     H2 5862   3.421   1.161   1.103
 1874WAT      O 5863   9.828   0.615   5.021
 1874WAT     H1 5864   9.898   0.555   5.061
 1874WAT     H2 5865   9.865   0.658   4.938
 1875WAT      O 5866   0.658   6.878   9.374
 1875WAT     H1 5867   0.757   6.889   9.381
 1875WAT     H2 5868   0.623   6.836   9.457
 1876WAT      O 5869   6.470   5.468   5.188
 1876WAT     H1 5870   6.452   5.369   5.187
 1876WAT     H2 5871   6.468   5.503   5.094
 1877WAT      O 5872   9.875   1.484   2.588
 1877WAT     H1 5873   9.922   1.457   2.672
 1877WAT     H2 5874   9.815   1.410   2.558
 1878WAT      O 5875   6.154   0.711   9.820
 1878WAT     H1 5876   6.067   0.712   9.769
 1878WAT     H2 5877   6.180   0.616   9.839
 1879WAT      O 5878   9.365   8.439   6.144
 1879WAT     H1 5879   9.387   8.359   6.200
 1879WAT     H2 5880   9.295   8.494   6.190
 1880WAT      O 5881   8.906   6.911   1.362
 1880WAT     H1 5882   8.951   6.998   1.342
 1880WAT     H2 5883   8.835   6.894   1.293
 1881WAT      O 5884   0.742   2.772   5.039
 1881WAT     H1 5885   0.779   2.699   5.095
 1881WAT     H2 5886   0.812   2.804   4.975
 1882WAT      O 5887   9.013   3.651   1.349
 1882WAT     H1 5888   9.047   3.614   1.262
 1882WAT     H2 5889   8.981   3.575   1.407
 1883WAT      O 5890   7.294   6.443   7.140
 1883WAT     H1 5891   7.349   6.523   7.164
 1883WAT     H2 5892   7.274   6.390   7.223
 1884WAT      O 5893   4.771   6.204   3.005
 1884WAT     H1 5894   4.765   6.122   2.948
 1884WAT     H2 5895   4.764   6.178   3.102
 1885WAT      O 5896   9.502   1.579   9.037
 1885WAT     H1 5897   9.442   1.522   9.092
 1885WAT     H2 5898   9.528   1.530   8.954
 1886WAT      O 5899   7.143   3.565   8.330
 1886WAT     H1 5900   7.173   3.610   8.246
 1886WAT     H2 5901   7.125   3.634   8.400
 1887WAT      O 5902   4.441   3.072   7.367
 1887WAT     H1 5903   4.470   2.997   7.309
 1887WAT     H2 5904   4.482   3.157   7.335
 1888WAT      O 5905   0.896   7.655   7.489
 1888WAT     H1 5906   0.876   7.746   7.527
 1888WAT     H2 5907   0.854   7.647   7.399
 1889WAT      O 5908   9.589   2.367   7.416
 1889WAT     H1 5909   9.575   2.325   7.506
 1889WAT     H2 5910   9.645   2.449   7.426
 1890WAT      O 5911   0.791   2.614   2.640
 1890WAT     H1 5912   0.710   2.565   2.672
 1890WAT     H2 5913   0.841   2.652   2.718
 1891WAT      O 5914   4.261   6.696   0.669
 1891WAT     H1 5915   4.202   6.678   0.590
 1891WAT     H2 5916   4.335   6.758   0.641
 1892WAT      O 5917   3.236   1.508   7.748
 1892WAT     H1 5918   3.163   1.568   7.782
 1892WAT     H2 5919   3.204   1.459   7.667
 1893WAT      O 5920   4.042   7.487   4.807
 1893WAT     H1 5921   4.015   7.560   4.744
 1893WAT     H2 5922   4.060   7.527   4.897
 1894WAT      O 5923   6.452   6.392   5.461
 1894WAT     H1 5924   6.353   6.400   5.472
 1894WAT     H2 5925   6.491   6.343   5.539
 1895WAT      O 5926   1.746   3.162   0.406
 1895WAT     H1 5927   1.705   3.073   0.423
 1895WAT     H2 5928   1.808   3.186   0.482
 1896WAT      O 5929   8.675   7.677   5.668
 1896WAT     H1 5930   8.666   7.724   5.580
 1896WAT     H2 5931   8.591   7.690   5.721
 1897WAT      O 5932   7.582   6.517   6.857
 1897WAT     H1 5933   7.502   6.567   6.891
 1897WAT     H2 5934   7.589   6.429   6.903
 1898WAT      O 5935   7.160   2.605   9.537
 1898WAT     H1 5936   7.220   2.578   9.462
 1898WAT     H2 5937   7.065   2.580   9.515
 1899WAT      O 5938   6.383   7.780   7.733
 1899WAT     H1 5939   6.471   7.736   7.713
 1899WAT     H2 5940   6.399   7.869   7.775
 1900WAT      O 5941   3.185   5.993   8.892
 1900WAT     H1 5942   3.261   6.050   8.862
 1900WAT     H2 5943   3.217   5.900   8.909
 1901WAT      O 5944   9.516   6.241   0.252
 1901WAT     H1 5945   9.615   6.240   0.237
 1901WAT     H2 5946   9.469   6.205   0.171
 1902WAT      O 5947   4.614   1.822   8.829
 1902WAT     H1 5948   4.700   1.783   8.797
 1902WAT     H2 5949   4.577   1.883   8.758
 1903WAT      O 5950   2.542   3.483   0.387
 1903WAT     H1 5951   2.450   3.469   0.425
 1903WAT     H2 5952   2.599   3.403   0.408
 1904WAT      O 5953   3.287   1.343   0.316
 1904WAT     H1 5954   3.271   1.330   0.218
 1904WAT     H2 5955   3.226   1.415   0.350
 1905WAT      O 5956   6.641   2.739   1.253
 1905WAT     H1 5957   6.542   2.722   1.255
 1905WAT     H2 5958   6.659   2.825   1.206
 1906WAT      O 5959   1.193   9.553   7.957
 1906WAT     H1 5960   1.277   9.576   8.006
 1906WAT     H2 5961   1.152   9.472   7.999
 1907WAT      O 5962   8.590   0.171   7.248
 1907WAT     H1 5963   8.528   0.134   7.316
 1907WAT     H2 5964   8.625   0.259   7.278
 1908WAT      O 5965   6.315   4.040   5.589
 1908WAT     H1 5966   6.412   4.063   5.586
 1908WAT     H2 5967   6.262   4.112   5.545
 1909WAT      O 5968   3.934   6.555   0.834
 1909WAT     H1 5969   3.864   6.517   0.774
 1909WAT     H2 5970   3.891   6.614   0.903
 1910WAT      O 5971   9.485   4.118   2.728
 1910WAT     H1 5972   9.385   4.113   2.735
 1910WAT     H2 5973   9.519   4.188   2.790
 1911WAT      O 5974   4.257   0.480   3.414
 1911WAT     H1 5975   4.338   0.422   3.407
 1911WAT     H2 5976   4.195   0.442   3.482
 1912WAT      O 5977   8.550   1.108   6.964
 1912WAT     H1 5978   8.536   1.116   6.866
 1912WAT     H2 5979   8.507   1.185   7.011
 1913WAT      O 5980   9.253   4.300   7.723
 1913WAT     H1 5981   9.326   4.282   7.789
 1913WAT     H2 5982   9.178   4.350   7.768
 1914WAT      O 5983   4.124   8.249   1.232
 1914WAT     H1 5984   4.083   8.175   1.179
 1914WAT     H2 5985   4.104   8.336   1.187
 1915WAT      O 5986   6.667   5.231   3.041
 1915WAT     H1 5987   6.571   5.228   3.067
 1915WAT     H2 5988   6.693   5.325   3.020
 1916WAT      O 5989   8.386   9.646   6.035
 1916WAT     H1 5990   8.388   9.746   6.040
 1916WAT     H2 5991   8.453   9.615   5.968
 1917WAT      O 5992   3.422   2.175   7.467
 1917WAT     H1 5993   3.507   2.191   7.417
 1917WAT     H2 5994   3.396   2.259   7.514
 1918WAT      O 5995   9.408   1.429   7.384
 1918WAT     H1 5996   9.504   1.447   7.405
 1918WAT     H2 5997   9.402   1.369   7.305
 1919WAT      O 5998   8.219   7.527   0.121
 1919WAT     H1 5999   8.263   7.522   0.031
 1919WAT     H2 6000   8.226   7.438   0.166
 1920WAT      O 6001   8.658   9.349   2.901
 1920WAT     H1 6002   8.651   9.288   2.822
 1920WAT     H2 6003   8.705   9.301   2.975
 1921WAT      O 6004   2.561   5.825   8.025
 1921WAT     H1 6005   2.469   5.791   8.007
 1921WAT     H2 6006   2.628   5.771   7.973
 1922WAT      O 6007   4.744   5.772   9.364
 1922WAT     H1 6008   4.803   5.828   9.306
 1922WAT     H2 6009   4.703   5.699   9.310
 1923WAT      O 6010   0.252   9.547   2.812
 1923WAT     H1 6011   0.292   9.591   2.732
 1923WAT     H2 6012   0.160   9.514   2.789
 1924WAT      O 6013   1.385   6.454   9.357
 1924WAT     H1 6014   1.386   6.369   9.411
 1924WAT     H2 6015   1.457   6.450   9.288
 1925WAT      O 6016   6.190   9.220   0.030
 1925WAT     H1 6017   6.201   9.306   0.079
 1925WAT     H2 6018   6.203   9.235  -0.068
 1926WAT      O 6019   6.229   1.070   5.553
 1926WAT     H1 6020   6.168   1.149   5.558
 1926WAT     H2 6021   6.177   0.986   5.571
 1927WAT      O 6022   5.889   6.996   6.813
 1927WAT     H1 6023   5.878   6.903   6.776
 1927WAT     H2 6024   5.979   7.030   6.788
 1928WAT      O 6025   3.085   7.940   1.450
 1928WAT     H1 6026   3.080   7.932   1.351
 1928WAT     H2 6027   3.006   7.895   1.491
 1929WAT      O 6028   6.923   9.804   3.684
 1929WAT     H1 6029   6.877   9.757   3.608
 1929WAT     H2 6030   6.888   9.897   3.691
 1930WAT      O 6031   6.821   4.381   7.590
 1930WAT     H1 6032   6.878   4.463   7.589
 1930WAT     H2 6033   6.830   4.333   7.503
 1931WAT      O 6034   3.673   8.086   0.561
 1931WAT     H1 6035   3.712   8.132   0.481
 1931WAT     H2 6036   3.730   8.008   0.585
 1932WAT      O 6037   4.250   1.248   4.544
 1932WAT     H1 6038   4.176   1.183   4.526
 1932WAT     H2 6039   4.281   1.238   4.638
 1933WAT      O 6040   6.658   0.593   8.081
 1933WAT     H1 6041   6.629   0.666   8.144
 1933WAT     H2 6042   6.665   0.507   8.131
 1934WAT      O 6043   2.862   8.345   4.348
 1934WAT     H1 6044   2.902   8.269   4.398
 1934WAT     H2 6045   2.794   8.392   4.405
 1935WAT      O 6046   8.357   7.808   2.659
 1935WAT     H1 6047   8.413   7.767   2.587
 1935WAT     H2 6048   8.308   7.736   2.708
 1936WAT      O 6049   3.154   5.987   6.258
 1936WAT     H1 6050   3.229   5.946   6.206
 1936WAT     H2 6051   3.071   5.934   6.245
 1937WAT      O 6052   1.907   8.259   9.744
 1937WAT     H1 6053   1.960   8.174   9.748
 1937WAT     H2 6054   1.959   8.327   9.693
 1938WAT      O 6055   9.373   5.685   8.962
 1938WAT     H1 6056   9.310   5.650   8.893
 1938WAT     H2 6057   9.409   5.609   9.016
 1939WAT      O 6058   0.311   1.327   2.533
 1939WAT     H1 6059   0.276   1.400   2.591
 1939WAT     H2 6060   0.274   1.239   2.563
 1940WAT      O 6061   7.843   9.000   6.459
 1940WAT     H1 6062   7.936   8.992   6.423
 1940WAT     H2 6063   7.834   9.086   6.509
 1941WAT      O 6064   9.550   0.435   8.355
 1941WAT     H1 6065   9.451   0.433   8.337
 1941WAT     H2 6066   9.592   0.355   8.312
 1942WAT      O 6067   0.209   2.647   9.743
 1942WAT     H1 6068   0.264   2.642   9.827
 1942WAT     H2 6069   0.265   2.682   9.668
 1943WAT      O 6070   4.234   6.146   5.276
 1943WAT     H1 6071   4.159   6.155   5.342
 1943WAT     H2 6072   4.278   6.234   5.265
 1944WAT      O 6073   1.589   3.071   7.506
 1944WAT     H1 6074   1.675   3.028   7.479
 1944WAT     H2 6075   1.522   3.061   7.433
 1945WAT      O 6076   6.417   7.690   0.606
 1945WAT     H1 6077   6.383   7.671   0.698
 1945WAT     H2 6078   6.499   7.747   0.612
 1946WAT      O 6079   1.981   2.769   7.225
 1946WAT     H1 6080   1.969   2.690   7.165
 1946WAT     H2 6081   1.982   2.738   7.320
 1947WAT      O 6082   3.030   7.864   9.133
 1947WAT     H1 6083   2.945   7.844   9.183
 1947WAT     H2 6084   3.107   7.819   9.179
 1948WAT      O 6085   9.033   2.357   4.814
 1948WAT     H1 6086   8.979   2.356   4.899
 1948WAT     H2 6087   9.107   2.291   4.822
 1949WAT      O 6088   0.359   3.520   7.298
 1949WAT     H1 6089   0.283   3.582   7.280
 1949WAT     H2 6090   0.444   3.572   7.307
 1950WAT      O 6091   9.425   9.240   2.718
 1950WAT     H1 6092   9.360   9.296   2.667
 1950WAT     H2 6093   9.432   9.150   2.675
 1951WAT      O 6094   7.467   1.507   0.332
 1951WAT     H1 6095   7.521   1.544   0.256
 1951WAT     H2 6096   7.460   1.407   0.323
 1952WAT      O 6097   0.401   8.204   0.317
 1952WAT     H1 6098   0.311   8.242   0.338
 1952WAT     H2 6099   0.442   8.167   0.400
 1953WAT      O 6100   4.323   8.275   8.170
 1953WAT     H1 6101   4.225   8.294   8.171
 1953WAT     H2 6102   4.368   8.335   8.104
 1954WAT      O 6103   2.944   5.284   1.773
 1954WAT     H1 6104   2.927   5.359   1.836
 1954WAT     H2 6105   2.871   5.216   1.782
 1955WAT      O 6106   9.756   1.690   9.685
 1955WAT     H1 6107   9.742   1.686   9.784
 1955WAT     H2 6108   9.853   1.700   9.665
 1956WAT      O 6109   8.819   1.831   2.233
 1956WAT     H1 6110   8.770   1.743   2.238
 1956WAT     H2 6111   8.878   1.841   2.313
 1957WAT      O 6112   8.088   6.008   9.531
 1957WAT     H1 6113   8.088   5.941   9.457
 1957WAT     H2 6114   8.090   5.960   9.619
 1958WAT      O 6115   5.363   2.909   9.344
 1958WAT     H1 6116   5.297   2.910   9.419
 1958WAT     H2 6117   5.418   2.825   9.349
 1959WAT      O 6118   6.916   4.443   0.731
 1959WAT     H1 6119   6.924   4.414   0.635
 1959WAT     H2 6120   6.995   4.410   0.782
 1960WAT      O 6121   5.034   7.060   4.402
 1960WAT     H1 6122   4.975   7.097   4.474
 1960WAT     H2 6123   5.130   7.075   4.427
 1961WAT      O 6124   1.100   7.682   1.743
 1961WAT     H1 6125   1.109   7.591   1.703
 1961WAT     H2 6126   1.014   7.723   1.714
 1962WAT      O 6127   3.515   2.499   7.369
 1962WAT     H1 6128   3.572   2.556   7.308
 1962WAT     H2 6129   3.475   2.424   7.316
 1963WAT      O 6130   9.653   1.138   4.684
 1963WAT     H1 6131   9.724   1.151   4.752
 1963WAT     H2 6132   9.638   1.040   4.669
 1964WAT      O 6133   3.995   8.182   2.116
 1964WAT     H1 6134   4.006   8.148   2.209
 1964WAT     H2 6135   4.081   8.224   2.086
 1965WAT      O 6136   4.469   9.358   1.787
 1965WAT     H1 6137   4.443   9.373   1.692
 1965WAT     H2 6138   4.567   9.339   1.792
 1966WAT      O 6139   5.046   9.492   0.624
 1966WAT     H1 6140   5.028   9.586   0.652
 1966WAT     H2 6141   5.096   9.492   0.537
 1967WAT      O 6142   0.675   5.607   0.128
 1967WAT     H1 6143   0.756   5.578   0.077
 1967WAT     H2 6144   0.655   5.703   0.107
 1968WAT      O 6145   6.566   6.467   8.545
 1968WAT     H1 6146   6.493   6.404   8.520
 1968WAT     H2 6147   6.629   6.422   8.609
 1969WAT      O 6148   3.046   1.173   6.891
 1969WAT     H1 6149   2.977   1.196   6.959
 1969WAT     H2 6150   3.012   1.101   6.831
 1970WAT      O 6151   1.446   0.847   1.618
 1970WAT     H1 6152   1.504   0.925   1.643
 1970WAT     H2 6153   1.385   0.825   1.695
 1971WAT      O 6154   0.888   6.542   4.100
 1971WAT     H1 6155   0.836   6.627   4.104
 1971WAT     H2 6156   0.863   6.490   4.019
 1972WAT      O 6157   7.931   5.402   4.887
 1972WAT     H1 6158   7.997   5.417   4.814
 1972WAT     H2 6159   7.917   5.487   4.938
 1973WAT      O 6160   5.295   6.745   5.964
 1973WAT     H1 6161   5.305   6.689   5.882
 1973WAT     H2 6162   5.199   6.770   5.976
 1974WAT      O 6163   8.822   5.175   8.770
 1974WAT     H1 6164   8.892   5.246   8.764
 1974WAT     H2 6165   8.859   5.089   8.735
 1975WAT      O 6166   2.025   1.013   8.292
 1975WAT     H1 6167   1.940   1.042   8.247
 1975WAT     H2 6168   2.072   0.947   8.233
 1976WAT      O 6169   6.135   1.946   0.424
 1976WAT     H1 6170   6.218   1.965   0.371
 1976WAT     H2 6171   6.057   1.941   0.363
 1977WAT      O 6172   4.698   8.009   2.969
 1977WAT     H1 6173   4.756   8.072   3.021
 1977WAT     H2 6174   4.715   8.021   2.871
 1978WAT      O 6175   1.507   9.723   7.291
 1978WAT     H1 6176   1.471   9.795   7.232
 1978WAT     H2 6177   1.519   9.640   7.238
 1979WAT      O 6178   8.319   5.331   8.244
 1979WAT     H1 6179   8.390   5.315   8.312
 1979WAT     H2 6180   8.360   5.366   8.160
 1980WAT      O 6181   6.185   1.692   1.026
 1980WAT     H1 6182   6.119   1.758   0.990
 1980WAT     H2 6183   6.193   1.615   0.963
 1981WAT      O 6184   6.704   2.082   0.429
 1981WAT     H1 6185   6.671   2.171   0.397
 1981WAT     H2 6186   6.795   2.065   0.392
 1982WAT      O 6187   2.912   1.295   1.669
 1982WAT     H1 6188   2.993   1.288   1.728
 1982WAT     H2 6189   2.831   1.263   1.720
 1983WAT      O 6190   2.587   2.174   6.432
 1983WAT     H1 6191   2.572   2.118   6.513
 1983WAT     H2 6192   2.685   2.176   6.411
 1984WAT      O 6193   5.886   5.152   7.317
 1984WAT     H1 6194   5.972   5.107   7.293
 1984WAT     H2 6195   5.817   5.133   7.247
 1985WAT      O 6196   3.401   1.296   1.765
 1985WAT     H1 6197   3.427   1.277   1.860
 1985WAT     H2 6198   3.375   1.392   1.756
 1986WAT      O 6199   3.723   6.147   2.875
 1986WAT     H1 6200   3.749   6.066   2.823
 1986WAT     H2 6201   3.802   6.209   2.881
 1987WAT      O 6202   2.820   9.038   3.236
 1987WAT     H1 6203   2.762   9.046   3.317
 1987WAT     H2 6204   2.781   8.970   3.174
 1988WAT      O 6205   4.410   1.775   2.026
 1988WAT     H1 6206   4.348   1.727   1.963
 1988WAT     H2 6207   4.454   1.851   1.978
 1989WAT      O 6208   8.122   2.924   6.650
 1989WAT     H1 6209   8.149   2.999   6.711
 1989WAT     H2 6210   8.181   2.924   6.569
 1990WAT      O 6211   9.139   8.614   3.625
 1990WAT     H1 6212   9.082   8.542   3.664
 1990WAT     H2 6213   9.100   8.703   3.648
 1991WAT      O 6214   4.406   5.338   1.713
 1991WAT     H1 6215   4.360   5.352   1.801
 1991WAT     H2 6216   4.366   5.399   1.644
 1992WAT      O 6217   8.296   4.514   6.042
 1992WAT     H1 6218   8.259   4.485   6.130
 1992WAT     H2 6219   8.287   4.439   5.976
 1993WAT      O 6220   1.355   9.097   8.876
 1993WAT     H1 6221   1.452   9.074   8.869
 1993WAT     H2 6222   1.315   9.104   8.785
 1994WAT      O 6223   5.626   8.093   5.676
 1994WAT     H1 6224   5.603   8.064   5.583
 1994WAT     H2 6225   5.718   8.133   5.677
 1995WAT      O 6226   3.895   4.327   5.357
 1995WAT     H1 6227   3.972   4.370   5.406
 1995WAT     H2 6228   3.914   4.325   5.259
 1996WAT      O 6229   1.767   0.360   2.677
 1996WAT     H1 6230   1.719   0.277   2.652
 1996WAT     H2 6231   1.861   0.338   2.704
 1997WAT      O 6232   8.928   8.598   9.768
 1997WAT     H1 6233   8.946   8.517   9.823
 1997WAT     H2 6234   9.015   8.633   9.732
 1998WAT      O 6235   9.605   8.082   3.049
 1998WAT     H1 6236   9.577   8.053   3.141
 1998WAT     H2 6237   9.690   8.135   3.056
 1999WAT      O 6238   6.931   6.173   2.560
 1999WAT     H1 6239   6.989   6.239   2.513
 1999WAT     H2 6240   6.960   6.164   2.655
 2000WAT      O 6241   9.756   2.161   3.326
 2000WAT     H1 6242   9.818   2.175   3.403
 2000WAT     H2 6243   9.759   2.241   3.266
 2001WAT      O 6244   2.932   7.365   1.165
 2001WAT     H1 6245   2.851   7.411   1.200
 2001WAT     H2 6246   3.005   7.432   1.149
 2002WAT      O 6247   8.189   5.626   6.204
 2002WAT     H1 6248   8.142   5.628   6.293
 2002WAT     H2 6249   8.252   5.704   6.199
 2003WAT      O 6250   7.771   4.577   0.075
 2003WAT     H1 6251   7.868   4.598   0.088
 2003WAT     H2 6252   7.742   4.608  -0.016
 2004WAT      O 6253   3.343   0.737   3.835
 2004WAT     H1 6254   3.298   0.648   3.829
 2004WAT     H2 6255   3.411   0.734   3.908
 2005WAT      O 6256   0.755   4.074   0.095
 2005WAT     H1 6257   0.788   4.023   0.174
 2005WAT     H2 6258   0.729   4.167   0.123
 2006WAT      O 6259   7.257   2.099   4.317
 2006WAT     H1 6260   7.196   2.135   4.246
 2006WAT     H2 6261   7.351   2.097   4.283
 2007WAT      O 6262   3.285   8.036   6.334
 2007WAT     H1 6263   3.216   8.028   6.407
 2007WAT     H2 6264   3.261   7.973   6.260
 2008WAT      O 6265   6.761   1.431   4.897
 2008WAT     H1 6266   6.829   1.430   4.823
 2008WAT     H2 6267   6.713   1.519   4.897
 2009WAT      O 6268   2.952   6.878   1.379
 2009WAT     H1 6269   2.934   6.969   1.341
 2009WAT     H2 6270   2.987   6.819   1.307
 2010WAT      O 6271   9.763   8.576   3.573
 2010WAT     H1 6272   9.847   8.524   3.579
 2010WAT     H2 6273   9.759   8.622   3.484
 2011WAT      O 6274   6.540   5.065   1.368
 2011WAT     H1 6275   6.484   5.116   1.302
 2011WAT     H2 6276   6.547   5.119   1.452
 2012WAT      O 6277   8.071   9.316   2.591
 2012WAT     H1 6278   8.064   9.230   2.642
 2012WAT     H2 6279   7.982   9.339   2.552
 2013WAT      O 6280   3.308   3.677   9.007
 2013WAT     H1 6281   3.397   3.663   9.049
 2013WAT     H2 6282   3.267   3.588   8.987
 2014WAT      O 6283   6.954   9.653   9.871
 2014WAT     H1 6284   6.870   9.635   9.820
 2014WAT     H2 6285   6.981   9.748   9.857
 2015WAT      O 6286   1.049   4.360   8.132
 2015WAT     H1 6287   1.134   4.339   8.181
 2015WAT     H2 6288   1.070   4.382   8.037
 2016WAT      O 6289   2.648   0.162   0.114
 2016WAT     H1 6290   2.655   0.063   0.126
 2016WAT     H2 6291   2.712   0.207   0.176
 2017WAT      O 6292   8.950   5.915   6.233
 2017WAT     H1 6293   8.853   5.925   6.213
 2017WAT     H2 6294   8.972   5.965   6.317
 2018WAT      O 6295   4.517   3.778   8.485
 2018WAT     H1 6296   4.451   3.853   8.484
 2018WAT     H2 6297   4.557   3.768   8.393
 2019WAT      O 6298   5.232   6.268   1.880
 2019WAT     H1 6299   5.244   6.340   1.949
 2019WAT     H2 6300   5.174   6.301   1.806
 2020WAT      O 6301   5.536   9.134   2.168
 2020WAT     H1 6302   5.629   9.172   2.165
 2020WAT     H2 6303   5.535   9.055   2.231
 2021WAT      O 6304   6.748   1.794   5.161
 2021WAT     H1 6305   6.844   1.772   5.144
 2021WAT     H2 6306   6.730   1.793   5.259
 2022WAT      O 6307   3.925   0.448   3.085
 2022WAT     H1 6308   3.847   0.490   3.038
 2022WAT     H2 6309   3.977   0.393   3.020
 2023WAT      O 6310   2.901   4.040   6.484
 2023WAT     H1 6311   2.882   4.135   6.509
 2023WAT     H2 6312   2.847   3.979   6.542
 2024WAT      O 6313   5.417   4.569   0.749
 2024WAT     H1 6314   5.345   4.500   0.749
 2024WAT     H2 6315   5.496   4.535   0.800
 2025WAT      O 6316   6.484   5.976   4.373
 2025WAT     H1 6317   6.459   6.055   4.430
 2025WAT     H2 6318   6.462   5.996   4.278
 2026WAT      O 6319   4.444   0.095   7.180
 2026WAT     H1 6320   4.382   0.121   7.254
 2026WAT     H2 6321   4.396   0.102   7.092
 2027WAT      O 6322   0.359   0.125   7.786
 2027WAT     H1 6323   0.443   0.170   7.755
 2027WAT     H2 6324   0.299   0.110   7.707
 2028WAT      O 6325   4.637   0.056   0.918
 2028WAT     H1 6326   4.546   0.062   0.876
 2028WAT     H2 6327   4.648   0.130   0.984
 2029WAT      O 6328   6.786   2.986   2.283
 2029WAT     H1 6329   6.827   3.010   2.195
 2029WAT     H2 6330   6.698   3.033   2.293
 2030WAT      O 6331   8.401   4.366   5.808
 2030WAT     H1 6332   8.411   4.292   5.875
 2030WAT     H2 6333   8.476   4.431   5.820
 2031WAT      O 6334   9.749   1.356   4.326
 2031WAT     H1 6335   9.810   1.430   4.355
 2031WAT     H2 6336   9.803   1.272   4.313
 2032WAT      O 6337   1.980   5.466   1.850
 2032WAT     H1 6338   1.957   5.559   1.878
 2032WAT     H2 6339   2.033   5.469   1.765
 2033WAT      O 6340   1.388   0.651   8.849
 2033WAT     H1 6341   1.487   0.666   8.851
 2033WAT     H2 6342   1.342   0.729   8.892
 2034WAT      O 6343   2.547   7.263   5.646
 2034WAT     H1 6344   2.642   7.238   5.663
 2034WAT     H2 6345   2.512   7.208   5.570
 2035WAT      O 6346   6.334   9.492   4.523
 2035WAT     H1 6347   6.321   9.590   4.504
 2035WAT     H2 6348   6.429   9.475   4.547
 2036WAT      O 6349   2.227   3.446   6.455
 2036WAT     H1 6350   2.192   3.478   6.367
 2036WAT     H2 6351   2.161   3.384   6.496
 2037WAT      O 6352   0.185   4.441   4.461
 2037WAT     H1 6353   0.285   4.442   4.453
 2037WAT     H2 6354   0.144   4.417   4.373
 2038WAT      O 6355   9.540   4.820   7.810
 2038WAT     H1 6356   9.625   4.814   7.863
 2038WAT     H2 6357   9.465   4.848   7.870
 2039WAT      O 6358   7.348   7.451   3.646
 2039WAT     H1 6359   7.304   7.509   3.714
 2039WAT     H2 6360   7.317   7.357   3.658
 2040WAT      O 6361   7.835   7.388   8.507
 2040WAT     H1 6362   7.826   7.292   8.535
 2040WAT     H2 6363   7.932   7.408   8.491
 2041WAT      O 6364   2.169   5.909   3.089
 2041WAT     H1 6365   2.184   5.881   3.184
 2041WAT     H2 6366   2.079   5.879   3.059
 2042WAT      O 6367   5.600   8.706   6.110
 2042WAT     H1 6368   5.530   8.686   6.178
 2042WAT     H2 6369   5.604   8.805   6.095
 2043WAT      O 6370   0.697   9.299   9.322
 2043WAT     H1 6371   0.656   9.209   9.338
 2043WAT     H2 6372   0.795   9.290   9.307
 2044WAT      O 6373   8.526   4.021   7.067
 2044WAT     H1 6374   8.566   4.102   7.023
 2044WAT     H2 6375   8.568   4.009   7.158
 2045WAT      O 6376   3.848   9.341   3.628
 2045WAT     H1 6377   3.771   9.397   3.658
 2045WAT     H2 6378   3.887   9.379   3.544
 2046WAT      O 6379   0.155   5.961   3.091
 2046WAT     H1 6380   0.170   5.974   2.993
 2046WAT     H2 6381   0.171   5.865   3.114
 2047WAT      O 6382   6.357   4.426   6.045
 2047WAT     H1 6383   6.380   4.366   5.968
 2047WAT     H2 6384   6.258   4.436   6.052
 2048WAT      O 6385   8.582   4.418   6.420
 2048WAT     H1 6386   8.581   4.485   6.345
 2048WAT     H2 6387   8.672   4.418   6.464
 2049WAT      O 6388   7.851   8.093   2.570
 2049WAT     H1 6389   7.924   8.103   2.503
 2049WAT     H2 6390   7.833   7.996   2.585
 2050WAT      O 6391   4.507   1.483   8.282
 2050WAT     H1 6392   4.423   1.537   8.290
 2050WAT     H2 6393   4.574   1.535   8.227
 2051WAT      O 6394   1.815   8.298   6.134
 2051WAT     H1 6395   1.882   8.278   6.206
 2051WAT     H2 6396   1.744   8.358   6.171
 2052WAT      O 6397   0.989   9.394   9.304
 2052WAT     H1 6398   0.946   9.450   9.234
 2052WAT     H2 6399   1.071   9.350   9.266
 2053WAT      O 6400   3.365   6.688   8.289
 2053WAT     H1 6401   3.311   6.717   8.368
 2053WAT     H2 6402   3.305   6.678   8.210
 2054WAT      O 6403   1.243   6.088   8.523
 2054WAT     H1 6404   1.287   6.029   8.591
 2054WAT     H2 6405   1.302   6.094   8.442
 2055WAT      O 6406   9.470   6.154   0.970
 2055WAT     H1 6407   9.506   6.190   1.055
 2055WAT     H2 6408   9.525   6.077   0.940
 2056WAT      O 6409   2.279   0.908   7.519
 2056WAT     H1 6410   2.360   0.850   7.513
 2056WAT     H2 6411   2.201   0.854   7.552
 2057WAT      O 6412   9.778   6.100   4.335
 2057WAT     H1 6413   9.734   6.189   4.350
 2057WAT     H2 6414   9.709   6.028   4.339
 2058WAT      O 6415   8.363   0.184   1.757
 2058WAT     H1 6416   8.359   0.156   1.853
 2058WAT     H2 6417   8.446   0.147   1.714
 2059WAT      O 6418   6.552   8.480   4.212
 2059WAT     H1 6419   6.558   8.383   4.188
 2059WAT     H2 6420   6.509   8.531   4.138
 2060WAT      O 6421   0.644   4.376   3.746
 2060WAT     H1 6422   0.719   4.432   3.783
 2060WAT     H2 6423   0.586   4.346   3.822
 2061WAT      O 6424   0.923   5.575   1.243
 2061WAT     H1 6425   0.863   5.495   1.244
 2061WAT     H2 6426   1.008   5.553   1.290
 2062WAT      O 6427   5.297   7.610   5.216
 2062WAT     H1 6428   5.377   7.663   5.190
 2062WAT     H2 6429   5.250   7.657   5.291
 2063WAT      O 6430   5.015   4.664   5.986
 2063WAT     H1 6431   5.091   4.678   5.924
 2063WAT     H2 6432   4.943   4.612   5.940
 2064WAT      O 6433   6.064   4.715   0.382
 2064WAT     H1 6434   6.142   4.662   0.415
 2064WAT     H2 6435   6.096   4.801   0.342
 2065WAT      O 6436   8.590   6.757   7.857
 2065WAT     H1 6437   8.688   6.749   7.838
 2065WAT     H2 6438   8.538   6.704   7.789
 2066WAT      O 6439   2.765   1.188   4.008
 2066WAT     H1 6440   2.777   1.286   3.998
 2066WAT     H2 6441   2.844   1.140   3.968
 2067WAT      O 6442   5.082   7.700   7.702
 2067WAT     H1 6443   5.125   7.787   7.679
 2067WAT     H2 6444   5.139   7.650   7.767
 2068WAT      O 6445   7.149   4.696   1.703
 2068WAT     H1 6446   7.187   4.611   1.666
 2068WAT     H2 6447   7.208   4.730   1.775
 2069WAT      O 6448   6.838   3.534   2.725
 2069WAT     H1 6449   6.837   3.523   2.825
 2069WAT     H2 6450   6.754   3.495   2.687
 2070WAT      O 6451   6.361   0.036   0.532
 2070WAT     H1 6452   6.411  -0.050   0.545
 2070WAT     H2 6453   6.335   0.073   0.621
 2071WAT      O 6454   5.855   2.568   1.322
 2071WAT     H1 6455   5.880   2.660   1.355
 2071WAT     H2 6456   5.820   2.575   1.229
 2072WAT      O 6457   9.643   4.158   5.852
 2072WAT     H1 6458   9.715   4.125   5.914
 2072WAT     H2 6459   9.647   4.105   5.767
 2073WAT      O 6460   0.621   9.019   6.464
 2073WAT     H1 6461   0.708   8.974   6.443
 2073WAT     H2 6462   0.588   9.067   6.382
 2074WAT      O 6463   2.404   2.330   6.065
 2074WAT     H1 6464   2.486   2.380   6.038
 2074WAT     H2 6465   2.329   2.353   6.002
 2075WAT      O 6466   2.243   2.961   5.008
 2075WAT     H1 6467   2.171   2.957   5.078
 2075WAT     H2 6468   2.317   2.898   5.033
 2076WAT      O 6469   4.748   5.338   7.892
 2076WAT     H1 6470   4.779   5.244   7.907
 2076WAT     H2 6471   4.825   5.401   7.901
 2077WAT      O 6472   6.422   6.417   7.506
 2077WAT     H1 6473   6.362   6.486   7.467
 2077WAT     H2 6474   6.514   6.455   7.517
 2078WAT      O 6475   9.886   5.931   5.602
 2078WAT     H1 6476   9.787   5.936   5.585
 2078WAT     H2 6477   9.931   6.005   5.552
 2079WAT      O 6478   7.579   8.423   7.892
 2079WAT     H1 6479   7.549   8.515   7.869
 2079WAT     H2 6480   7.664   8.428   7.945
 2080WAT      O 6481   6.840   9.628   4.175
 2080WAT     H1 6482   6.826   9.532   4.148
 2080WAT     H2 6483   6.883   9.677   4.099
 2081WAT      O 6484   7.901   2.460   2.206
 2081WAT     H1 6485   7.990   2.453   2.160
 2081WAT     H2 6486   7.915   2.465   2.305
 2082WAT      O 6487   1.527   3.888   8.826
 2082WAT     H1 6488   1.592   3.949   8.871
 2082WAT     H2 6489   1.560   3.865   8.734
 2083WAT      O 6490   1.877   5.744   4.325
 2083WAT     H1 6491   1.833   5.729   4.414
 2083WAT     H2 6492   1.876   5.842   4.303
 2084WAT      O 6493   5.476   6.673   9.599
 2084WAT     H1 6494   5.548   6.629   9.652
 2084WAT     H2 6495   5.489   6.772   9.602
 2085WAT      O 6496   5.882   9.197   8.296
 2085WAT     H1 6497   5.886   9.295   8.313
 2085WAT     H2 6498   5.945   9.173   8.223
 2086WAT      O 6499   7.002   8.747   5.712
 2086WAT     H1 6500   7.016   8.844   5.733
 2086WAT     H2 6501   6.984   8.736   5.614
 2087WAT      O 6502   7.798   0.312   0.339
 2087WAT     H1 6503   7.821   0.409   0.331
 2087WAT     H2 6504   7.882   0.258   0.344
 2088WAT      O 6505   3.675   2.691   6.171
 2088WAT     H1 6506   3.580   2.665   6.156
 2088WAT     H2 6507   3.693   2.698   6.269
 2089WAT      O 6508   0.310   7.461   3.597
 2089WAT     H1 6509   0.323   7.393   3.526
 2089WAT     H2 6510   0.361   7.434   3.679
 2090WAT      O 6511   1.584   2.477   6.690
 2090WAT     H1 6512   1.533   2.543   6.745
 2090WAT     H2 6513   1.651   2.525   6.633
 2091WAT      O 6514   2.514   9.653   5.875
 2091WAT     H1 6515   2.444   9.687   5.813
 2091WAT     H2 6516   2.471   9.627   5.962
 2092WAT      O 6517   4.340   0.689   3.220
 2092WAT     H1 6518   4.338   0.607   3.277
 2092WAT     H2 6519   4.250   0.702   3.178
 2093WAT      O 6520   4.097   2.026   2.150
 2093WAT     H1 6521   4.083   2.049   2.246
 2093WAT     H2 6522   4.081   2.107   2.094
 2094WAT      O 6523   9.744   7.260   2.313
 2094WAT     H1 6524   9.764   7.302   2.225
 2094WAT     H2 6525   9.684   7.320   2.366
 2095WAT      O 6526   0.330   4.068   6.214
 2095WAT     H1 6527   0.410   4.126   6.198
 2095WAT     H2 6528   0.304   4.024   6.128
 2096WAT      O 6529   4.555   6.960   5.788
 2096WAT     H1 6530   4.476   7.010   5.824
 2096WAT     H2 6531   4.615   7.023   5.740
 2097WAT      O 6532   9.045   6.511   0.252
 2097WAT     H1 6533   9.033   6.537   0.348
 2097WAT     H2 6534   9.068   6.592   0.198
 2098WAT      O 6535   7.680   1.417   2.070
 2098WAT     H1 6536   7.621   1.444   1.994
 2098WAT     H2 6537   7.647   1.331   2.110
 2099WAT      O 6538   7.190   5.989   8.649
 2099WAT     H1 6539   7.231   6.079   8.664
 2099WAT     H2 6540   7.260   5.926   8.616
 2100WAT      O 6541   1.017   5.959   7.585
 2100WAT     H1 6542   1.041   5.872   7.628
 2100WAT     H2 6543   1.098   6.018   7.583
 2101WAT      O 6544   9.487   9.352   1.495
 2101WAT     H1 6545   9.515   9.334   1.589
 2101WAT     H2 6546   9.542   9.296   1.433
 2102WAT      O 6547   3.345   8.528   9.671
 2102WAT     H1 6548   3.423   8.527   9.609
 2102WAT     H2 6549   3.349   8.609   9.729
 2103WAT      O 6550   6.993   5.386   7.165
 2103WAT     H1 6551   6.939   5.374   7.248
 2103WAT     H2 6552   6.940   5.353   7.086
 2104WAT      O 6553   3.054   6.112   4.725
 2104WAT     H1 6554   2.963   6.082   4.751
 2104WAT     H2 6555   3.057   6.212   4.725
 2105WAT      O 6556   8.545   7.035   1.551
 2105WAT     H1 6557   8.596   7.073   1.473
 2105WAT     H2 6558   8.477   6.969   1.517
 2106WAT      O 6559   9.141   0.364   6.073
 2106WAT     H1 6560   9.172   0.327   6.161
 2106WAT     H2 6561   9.052   0.327   6.050
 2107WAT      O 6562   0.232   8.646   5.572
 2107WAT     H1 6563   0.154   8.588   5.597
 2107WAT     H2 6564   0.235   8.657   5.473
 2108WAT      O 6565   8.833   7.600   1.874
 2108WAT     H1 6566   8.772   7.673   1.842
 2108WAT     H2 6567   8.886   7.632   1.952
 2109WAT      O 6568   6.149   0.355   4.863
 2109WAT     H1 6569   6.055   0.363   4.831
 2109WAT     H2 6570   6.196   0.443   4.852
 2110WAT      O 6571   0.791   1.036   5.165
 2110WAT     H1 6572   0.822   1.094   5.089
 2110WAT     H2 6573   0.764   1.094   5.242
 2111WAT      O 6574   6.156   5.359   1.707
 2111WAT     H1 6575   6.098   5.306   1.768
 2111WAT     H2 6576   6.163   5.453   1.742
 2112WAT      O 6577   9.173   0.437   8.902
 2112WAT     H1 6578   9.203   0.517   8.954
 2112WAT     H2 6579   9.074   0.435   8.899
 2113WAT      O 6580   6.342   1.150   5.853
 2113WAT     H1 6581   6.330   1.101   5.766
 2113WAT     H2 6582   6.307   1.243   5.844
 2114WAT      O 6583   5.756   1.162   1.932
 2114WAT     H1 6584   5.734   1.066   1.950
 2114WAT     H2 6585   5.685   1.202   1.874
 2115WAT      O 6586   3.360   6.215   9.106
 2115WAT     H1 6587   3.372   6.157   9.026
 2115WAT     H2 6588   3.327   6.160   9.183
 2116WAT      O 6589   2.430   5.961   1.526
 2116WAT     H1 6590   2.405   5.957   1.429
 2116WAT     H2 6591   2.445   6.057   1.552
 2117WAT      O 6592   9.118   2.360   6.669
 2117WAT     H1 6593   9.171   2.275   6.671
 2117WAT     H2 6594   9.121   2.399   6.577
 2118WAT      O 6595   0.223   1.314   2.044
 2118WAT     H1 6596   0.312   1.354   2.065
 2118WAT     H2 6597   0.151   1.371   2.084
 2119WAT      O 6598   0.975   3.126   1.333
 2119WAT     H1 6599   0.943   3.048   1.279
 2119WAT     H2 6600   0.960   3.107   1.430
 2120WAT      O 6601   9.180   1.003   7.440
 2120WAT     H1 6602   9.249   0.994   7.369
 2120WAT     H2 6603   9.193   1.090   7.489
 2121WAT      O 6604   4.181   2.649   6.976
 2121WAT     H1 6605   4.094   2.698   6.981
 2121WAT     H2 6606   4.194   2.614   6.883
 2122WAT      O 6607   9.733   8.286   6.239
 2122WAT     H1 6608   9.755   8.380   6.211
 2122WAT     H2 6609   9.804   8.224   6.206
 2123WAT      O 6610   4.246   3.566   4.492
 2123WAT     H1 6611   4.222   3.661   4.473
 2123WAT     H2 6612   4.162   3.511   4.495
 2124WAT      O 6613   2.570   8.766   6.239
 2124WAT     H1 6614   2.625   8.792   6.159
 2124WAT     H2 6615   2.485   8.724   6.208
 2125WAT      O 6616   1.034   4.408   9.868
 2125WAT     H1 6617   1.041   4.450   9.958
 2125WAT     H2 6618   1.059   4.311   9.874
 2126WAT      O 6619   2.203   3.083   4.058
 2126WAT     H1 6620   2.228   3.047   3.969
 2126WAT     H2 6621   2.161   3.011   4.113
 2127WAT      O 6622   3.780   1.890   6.216
 2127WAT     H1 6623   3.833   1.975   6.215
 2127WAT     H2 6624   3.713   1.891   6.142
 2128WAT      O 6625   8.041   5.144   1.346
 2128WAT     H1 6626   7.997   5.057   1.324
 2128WAT     H2 6627   7.986   5.193   1.413
 2129WAT      O 6628   5.225   3.381   2.725
 2129WAT     H1 6629   5.249   3.466   2.678
 2129WAT     H2 6630   5.261   3.303   2.674
 2130WAT      O 6631   3.052   2.697   1.151
 2130WAT     H1 6632   2.991   2.633   1.104
 2130WAT     H2 6633   3.146   2.681   1.124
 2131WAT      O 6634   3.732   9.146   3.132
 2131WAT     H1 6635   3.722   9.229   3.187
 2131WAT     H2 6636   3.820   9.104   3.151
 2132WAT      O 6637   8.333   9.257   7.354
 2132WAT     H1 6638   8.306   9.259   7.451
 2132WAT     H2 6639   8.381   9.172   7.335
 2133WAT      O 6640   1.953   8.964   7.844
 2133WAT     H1 6641   1.933   8.866   7.840
 2133WAT     H2 6642   1.954   8.994   7.939
 2134WAT      O 6643   1.763   4.531   4.859
 2134WAT     H1 6644   1.796   4.498   4.771
 2134WAT     H2 6645   1.839   4.575   4.908
 2135WAT      O 6646   0.429   0.023   1.561
 2135WAT     H1 6647   0.498   0.092   1.539
 2135WAT     H2 6648   0.406  -0.029   1.478
 2136WAT      O 6649   1.485   1.470   7.636
 2136WAT     H1 6650   1.389   1.449   7.617
 2136WAT     H2 6651   1.501   1.568   7.619
 2137WAT      O 6652   3.571   7.113   0.176
 2137WAT     H1 6653   3.640   7.048   0.145
 2137WAT     H2 6654   3.540   7.089   0.268
 2138WAT      O 6655   8.243   1.673   9.177
 2138WAT     H1 6656   8.310   1.645   9.109
 2138WAT     H2 6657   8.204   1.593   9.222
 2139WAT      O 6658   7.502   8.521   6.383
 2139WAT     H1 6659   7.545   8.467   6.311
 2139WAT     H2 6660   7.539   8.614   6.381
 2140WAT      O 6661   1.053   2.578   5.068
 2140WAT     H1 6662   1.090   2.670   5.079
 2140WAT     H2 6663   1.117   2.523   5.015
 2141WAT      O 6664   7.736   7.429   1.922
 2141WAT     H1 6665   7.790   7.434   1.837
 2141WAT     H2 6666   7.735   7.335   1.956
 2142WAT      O 6667   3.446   8.596   8.327
 2142WAT     H1 6668   3.531   8.636   8.294
 2142WAT     H2 6669   3.464   8.506   8.367
 2143WAT      O 6670   5.156   8.740   5.318
 2143WAT     H1 6671   5.228   8.804   5.346
 2143WAT     H2 6672   5.123   8.767   5.227
 2144WAT      O 6673   9.382   2.323   6.822
 2144WAT     H1 6674   9.380   2.407   6.769
 2144WAT     H2 6675   9.357   2.246   6.764
 2145WAT      O 6676   0.626   1.752   5.584
 2145WAT     H1 6677   0.708   1.705   5.615
 2145WAT     H2 6678   0.642   1.850   5.582
 2146WAT      O 6679   6.484   5.785   4.960
 2146WAT     H1 6680   6.453   5.690   4.951
 2146WAT     H2 6681   6.432   5.830   5.032
 2147WAT      O 6682   0.468   9.699   7.910
 2147WAT     H1 6683   0.454   9.788   7.867
 2147WAT     H2 6684   0.449   9.705   8.008
 2148WAT      O 6685   9.688   2.205   9.212
 2148WAT     H1 6686   9.769   2.260   9.190
 2148WAT     H2 6687   9.709   2.108   9.200
 2149WAT      O 6688   5.692   2.099   5.192
 2149WAT     H1 6689   5.715   2.097   5.094
 2149WAT     H2 6690   5.726   2.016   5.236
 2150WAT      O 6691   2.195   9.796   2.233
 2150WAT     H1 6692   2.285   9.782   2.274
 2150WAT     H2 6693   2.205   9.816   2.135
 2151WAT      O 6694   6.946   5.634   5.269
 2151WAT     H1 6695   6.975   5.695   5.342
 2151WAT     H2 6696   7.025   5.607   5.214
 2152WAT      O 6697   8.076   9.708   9.242
 2152WAT     H1 6698   8.166   9.684   9.205
 2152WAT     H2 6699   8.081   9.800   9.282
 2153WAT      O 6700   4.663   2.535   8.297
 2153WAT     H1 6701   4.736   2.468   8.282
 2153WAT     H2 6702   4.603   2.538   8.217
 2154WAT      O 6703   2.365   2.741   5.416
 2154WAT     H1 6704   2.286   2.681   5.425
 2154WAT     H2 6705   2.445   2.687   5.389
 2155WAT      O 6706   0.548   2.908   0.341
 2155WAT     H1 6707   0.551   2.810   0.323
 2155WAT     H2 6708   0.633   2.937   0.384
 2156WAT      O 6709   4.704   9.243   8.538
 2156WAT     H1 6710   4.737   9.338   8.538
 2156WAT     H2 6711   4.769   9.185   8.586
 2157WAT      O 6712   4.347   8.903   3.307
 2157WAT     H1 6713   4.357   8.984   3.364
 2157WAT     H2 6714   4.386   8.921   3.216
 2158WAT      O 6715   3.141   2.923   5.039
 2158WAT     H1 6716   3.231   2.895   5.006
 2158WAT     H2 6717   3.078   2.933   4.962
 2159WAT      O 6718   1.114   5.897   2.115
 2159WAT     H1 6719   1.188   5.838   2.081
 2159WAT     H2 6720   1.032   5.841   2.131
 2160WAT      O 6721   0.634   8.557   6.286
 2160WAT     H1 6722   0.718   8.535   6.337
 2160WAT     H2 6723   0.650   8.543   6.188
 2161WAT      O 6724   7.048   0.965   8.643
 2161WAT     H1 6725   7.136   0.957   8.691
 2161WAT     H2 6726   7.052   0.911   8.559
 2162WAT      O 6727   9.836   3.182   1.736
 2162WAT     H1 6728   9.767   3.154   1.670
 2162WAT     H2 6729   9.803   3.164   1.829
 2163WAT      O 6730   0.360   0.320   0.506
 2163WAT     H1 6731   0.374   0.272   0.420
 2163WAT     H2 6732   0.357   0.254   0.581
 2164WAT      O 6733   6.123   4.897   1.852
 2164WAT     H1 6734   6.041   4.881   1.797
 2164WAT     H2 6735   6.184   4.818   1.845
 2165WAT      O 6736   7.745   3.642   3.053
 2165WAT     H1 6737   7.718   3.546   3.057
 2165WAT     H2 6738   7.799   3.665   3.134
 2166WAT      O 6739   1.363   1.109   7.486
 2166WAT     H1 6740   1.263   1.111   7.489
 2166WAT     H2 6741   1.394   1.143   7.397
 2167WAT      O 6742   9.324   1.035   9.380
 2167WAT     H1 6743   9.357   1.083   9.299
 2167WAT     H2 6744   9.242   1.082   9.415
 2168WAT      O 6745   2.075   3.473   3.856
 2168WAT     H1 6746   2.070   3.405   3.783
 2168WAT     H2 6747   2.093   3.563   3.817
 2169WAT      O 6748   5.689   0.523   0.666
 2169WAT     H1 6749   5.656   0.598   0.722
 2169WAT     H2 6750   5.778   0.492   0.699
 2170WAT      O 6751   2.374   0.471   4.899
 2170WAT     H1 6752   2.459   0.502   4.941
 2170WAT     H2 6753   2.394   0.413   4.820
 2171WAT      O 6754   2.725   6.532   0.961
 2171WAT     H1 6755   2.671   6.452   0.990
 2171WAT     H2 6756   2.784   6.506   0.885
 2172WAT      O 6757   8.479   5.703   1.356
 2172WAT     H1 6758   8.493   5.616   1.402
 2172WAT     H2 6759   8.561   5.760   1.366
 2173WAT      O 6760   8.075   2.061   3.241
 2173WAT     H1 6761   8.161   2.096   3.206
 2173WAT     H2 6762   8.088   2.027   3.335
 2174WAT      O 6763   4.415   3.371   6.229
 2174WAT     H1 6764   4.318   3.357   6.249
 2174WAT     H2 6765   4.461   3.408   6.309
 2175WAT      O 6766   6.874   7.316   1.827
 2175WAT     H1 6767   6.776   7.300   1.813
 2175WAT     H2 6768   6.915   7.347   1.741
 2176WAT      O 6769   7.764   2.446   7.079
 2176WAT     H1 6770   7.730   2.448   6.985
 2176WAT     H2 6771   7.856   2.484   7.082
 2177WAT      O 6772   0.314   4.643   6.453
 2177WAT     H1 6773   0.347   4.620   6.362
 2177WAT     H2 6774   0.355   4.581   6.520
 2178WAT      O 6775   0.079   6.869   3.022
 2178WAT     H1 6776   0.006   6.931   2.992
 2178WAT     H2 6777   0.138   6.847   2.944
 2179WAT      O 6778   2.640   2.401   4.007
 2179WAT     H1 6779   2.630   2.342   3.927
 2179WAT     H2 6780   2.733   2.436   4.012
 2180WAT      O 6781   5.643   3.110   0.800
 2180WAT     H1 6782   5.636   3.032   0.863
 2180WAT     H2 6783   5.557   3.119   0.749
 2181WAT      O 6784   1.500   4.994   2.636
 2181WAT     H1 6785   1.463   4.932   2.567
 2181WAT     H2 6786   1.492   5.089   2.605
 2182WAT      O 6787   0.836   4.876   8.723
 2182WAT     H1 6788   0.811   4.821   8.644
 2182WAT     H2 6789   0.861   4.816   8.799
 2183WAT      O 6790   7.684   4.771   2.964
 2183WAT     H1 6791   7.689   4.865   2.999
 2183WAT     H2 6792   7.767   4.722   2.990
 2184WAT      O 6793   0.532   0.083   4.051
 2184WAT     H1 6794   0.438   0.094   4.018
 2184WAT     H2 6795   0.541  -0.005   4.098
 2185WAT      O 6796   1.399   5.500   0.551
 2185WAT     H1 6797   1.356   5.463   0.633
 2185WAT     H2 6798   1.345   5.577   0.517
 2186WAT      O 6799   5.850   6.512   7.911
 2186WAT     H1 6800   5.933   6.543   7.957
 2186WAT     H2 6801   5.874   6.458   7.831
 2187WAT      O 6802   7.256   5.741   7.042
 2187WAT     H1 6803   7.218   5.651   7.065
 2187WAT     H2 6804   7.288   5.786   7.125
 2188WAT      O 6805   3.498   8.675   6.406
 2188WAT     H1 6806   3.473   8.771   6.397
 2188WAT     H2 6807   3.480   8.645   6.499
 2189WAT      O 6808   3.883   4.102   1.854
 2189WAT     H1 6809   3.959   4.076   1.794
 2189WAT     H2 6810   3.918   4.161   1.927
 2190WAT      O 6811   1.241   7.163   5.887
 2190WAT     H1 6812   1.196   7.188   5.802
 2190WAT     H2 6813   1.267   7.067   5.885
 2191WAT      O 6814   8.883   7.418   4.789
 2191WAT     H1 6815   8.860   7.492   4.852
 2191WAT     H2 6816   8.902   7.335   4.841
 2192WAT      O 6817   8.510   4.075   2.444
 2192WAT     H1 6818   8.605   4.041   2.447
 2192WAT     H2 6819   8.510   4.171   2.417
 2193WAT      O 6820   4.153   0.643   8.827
 2193WAT     H1 6821   4.152   0.604   8.735
 2193WAT     H2 6822   4.070   0.614   8.876
 2194WAT      O 6823   7.372   2.486   8.725
 2194WAT     H1 6824   7.287   2.538   8.739
 2194WAT     H2 6825   7.429   2.535   8.659
 2195WAT      O 6826   8.564   7.944   3.504
 2195WAT     H1 6827   8.479   7.906   3.538
 2195WAT     H2 6828   8.551   7.975   3.409
 2196WAT      O 6829   1.627   8.353   2.298
 2196WAT     H1 6830   1.620   8.441   2.252
 2196WAT     H2 6831   1.694   8.296   2.251
 2197WAT      O 6832   7.494   1.696   1.064
 2197WAT     H1 6833   7.484   1.614   1.007
 2197WAT     H2 6834   7.590   1.706   1.090
 2198WAT      O 6835   7.802   2.390   7.462
 2198WAT     H1 6836   7.896   2.401   7.493
 2198WAT     H2 6837   7.778   2.463   7.398
 2199WAT      O 6838   7.740   7.324   9.829
 2199WAT     H1 6839   7.812   7.327   9.760
 2199WAT     H2 6840   7.773   7.366   9.913
 2200WAT      O 6841   8.089   6.620   0.111
 2200WAT     H1 6842   8.087   6.696   0.176
 2200WAT     H2 6843   8.183   6.600   0.085
 2201WAT      O 6844   4.998   3.040   3.970
 2201WAT     H1 6845   4.903   3.036   4.001
 2201WAT     H2 6846   5.055   3.075   4.044
 2202WAT      O 6847   2.400   3.110   8.761
 2202WAT     H1 6848   2.354   3.036   8.711
 2202WAT     H2 6849   2.355   3.197   8.741
 2203WAT      O 6850   5.073   4.737   7.053
 2203WAT     H1 6851   5.121   4.814   7.096
 2203WAT     H2 6852   5.027   4.683   7.123
 2204WAT      O 6853   8.360   4.814   7.777
 2204WAT     H1 6854   8.296   4.841   7.705
 2204WAT     H2 6855   8.372   4.890   7.840
 2205WAT      O 6856   9.719   3.562   5.633
 2205WAT     H1 6857   9.679   3.479   5.595
 2205WAT     H2 6858   9.742   3.547   5.729
 2206WAT      O 6859   7.422   4.129   0.703
 2206WAT     H1 6860   7.517   4.118   0.675
 2206WAT     H2 6861   7.398   4.226   0.702
 2207WAT      O 6862   4.878   9.088   3.119
 2207WAT     H1 6863   4.923   9.024   3.182
 2207WAT     H2 6864   4.931   9.094   3.034
 2208WAT      O 6865   1.751   8.449   7.415
 2208WAT     H1 6866   1.714   8.438   7.323
 2208WAT     H2 6867   1.784   8.542   7.427
 2209WAT      O 6868   5.664   0.395   7.766
 2209WAT     H1 6869   5.608   0.358   7.841
 2209WAT     H2 6870   5.705   0.319   7.715
 2210WAT      O 6871   2.633   7.022   1.632
 2210WAT     H1 6872   2.638   6.952   1.704
 2210WAT     H2 6873   2.640   6.978   1.542
 2211WAT      O 6874   1.286   7.550   6.766
 2211WAT     H1 6875   1.227   7.504   6.832
 2211WAT     H2 6876   1.370   7.580   6.811
 2212WAT      O 6877   5.441   9.121   6.059
 2212WAT     H1 6878   5.509   9.062   6.016
 2212WAT     H2 6879   5.403   9.184   5.991
 2213WAT      O 6880   3.537   7.761   4.916
 2213WAT     H1 6881   3.626   7.798   4.891
 2213WAT     H2 6882   3.481   7.833   4.957
 2214WAT      O 6883   1.259   0.598   2.184
 2214WAT     H1 6884   1.237   0.680   2.131
 2214WAT     H2 6885   1.282   0.523   2.121
 2215WAT      O 6886   8.196   9.364   4.195
 2215WAT     H1 6887   8.268   9.322   4.140
 2215WAT     H2 6888   8.157   9.296   4.256
 2216WAT      O 6889   8.505   3.682   7.647
 2216WAT     H1 6890   8.592   3.707   7.691
 2216WAT     H2 6891   8.514   3.694   7.548
 2217WAT      O 6892   2.464   3.835   9.388
 2217WAT     H1 6893   2.502   3.916   9.342
 2217WAT     H2 6894   2.512   3.822   9.475
 2218WAT      O 6895   4.196   1.399   9.354
 2218WAT     H1 6896   4.162   1.363   9.267
 2218WAT     H2 6897   4.123   1.452   9.398
 2219WAT      O 6898   1.582   9.448   8.771
 2219WAT     H1 6899   1.646   9.524   8.758
 2219WAT     H2 6900   1.631   9.368   8.806
 2220WAT      O 6901   7.695   9.611   8.156
 2220WAT     H1 6902   7.664   9.703   8.132
 2220WAT     H2 6903   7.672   9.593   8.252
 2221WAT      O 6904   0.679   2.217   2.077
 2221WAT     H1 6905   0.753   2.244   2.015
 2221WAT     H2 6906   0.689   2.267   2.163
 2222WAT      O 6907   7.923   2.418   5.009
 2222WAT     H1 6908   8.020   2.435   4.991
 2222WAT     H2 6909   7.896   2.464   5.093
 2223WAT      O 6910   4.603   7.496   6.308
 2223WAT     H1 6911   4.619   7.397   6.308
 2223WAT     H2 6912   4.688   7.543   6.284
 2224WAT      O 6913   5.713   5.099   7.664
 2224WAT     H1 6914   5.804   5.131   7.690
 2224WAT     H2 6915   5.705   5.002   7.686
 2225WAT      O 6916   5.613   4.577   6.265
 2225WAT     H1 6917   5.548   4.643   6.228
 2225WAT     H2 6918   5.641   4.606   6.357
 2226WAT      O 6919   3.940   6.309   1.581
 2226WAT     H1 6920   3.959   6.333   1.485
 2226WAT     H2 6921   3.929   6.393   1.634
 2227WAT      O 6922   1.641   8.567   8.741
 2227WAT     H1 6923   1.649   8.665   8.723
 2227WAT     H2 6924   1.588   8.553   8.825
 2228WAT      O 6925   3.909   5.943   9.271
 2228WAT     H1 6926   3.938   6.025   9.319
 2228WAT     H2 6927   3.815   5.921   9.297
 2229WAT      O 6928   0.133   3.395   2.791
 2229WAT     H1 6929   0.201   3.333   2.830
 2229WAT     H2 6930   0.051   3.396   2.849
 2230WAT      O 6931   2.418   3.669   2.148
 2230WAT     H1 6932   2.338   3.611   2.162
 2230WAT     H2 6933   2.489   3.616   2.102
 2231WAT      O 6934   6.089   8.550   0.312
 2231WAT     H1 6935   6.027   8.508   0.245
 2231WAT     H2 6936   6.175   8.498   0.315
 2232WAT      O 6937   2.643   3.520   2.023
 2232WAT     H1 6938   2.649   3.453   2.097
 2232WAT     H2 6939   2.661   3.474   1.936
 2233WAT      O 6940   6.256   0.235   9.232
 2233WAT     H1 6941   6.275   0.143   9.199
 2233WAT     H2 6942   6.316   0.300   9.186
 2234WAT      O 6943   8.630   3.393   8.580
 2234WAT     H1 6944   8.545   3.419   8.535
 2234WAT     H2 6945   8.634   3.436   8.670
 2235WAT      O 6946   6.343   7.045   4.141
 2235WAT     H1 6947   6.334   7.135   4.099
 2235WAT     H2 6948   6.317   7.050   4.237
 2236WAT      O 6949   5.522   7.896   2.827
 2236WAT     H1 6950   5.491   7.803   2.809
 2236WAT     H2 6951   5.442   7.956   2.842
 2237WAT      O 6952   3.059   6.678   0.936
 2237WAT     H1 6953   3.155   6.658   0.919
 2237WAT     H2 6954   3.002   6.609   0.892
 2238WAT      O 6955   1.217   0.848   2.797
 2238WAT     H1 6956   1.187   0.784   2.726
 2238WAT     H2 6957   1.313   0.869   2.784
 2239WAT      O 6958   5.235   2.758   8.727
 2239WAT     H1 6959   5.308   2.758   8.795
 2239WAT     H2 6960   5.148   2.734   8.771
 2240WAT      O 6961   6.301   2.556   9.852
 2240WAT     H1 6962   6.328   2.636   9.797
 2240WAT     H2 6963   6.345   2.561   9.942
 2241WAT      O 6964   7.643   2.813   7.191
 2241WAT     H1 6965   7.596   2.879   7.250
 2241WAT     H2 6966   7.710   2.861   7.135
 2242WAT      O 6967   7.784   8.061   4.187
 2242WAT     H1 6968   7.837   7.986   4.149
 2242WAT     H2 6969   7.695   8.028   4.217
 2243WAT      O 6970   0.701   3.285   9.060
 2243WAT     H1 6971   0.616   3.331   9.085
 2243WAT     H2 6972   0.778   3.343   9.086
 2244WAT      O 6973   2.193   5.022   6.442
 2244WAT     H1 6974   2.153   4.954   6.380
 2244WAT     H2 6975   2.183   4.992   6.536
 2245WAT      O 6976   9.147   1.110   4.595
 2245WAT     H1 6977   9.072   1.102   4.661
 2245WAT     H2 6978   9.173   1.020   4.562
 2246WAT      O 6979   1.391   5.954   4.475
 2246WAT     H1 6980   1.414   5.988   4.566
 2246WAT     H2 6981   1.466   5.976   4.412
 2247WAT      O 6982   5.881   3.059   1.775
 2247WAT     H1 6983   5.907   3.134   1.836
 2247WAT     H2 6984   5.958   3.036   1.716
 2248WAT      O 6985   3.683   2.808   9.742
 2248WAT     H1 6986   3.697   2.869   9.665
 2248WAT     H2 6987   3.585   2.806   9.766
 2249WAT      O 6988   7.227   2.488   9.775
 2249WAT     H1 6989   7.268   2.396   9.771
 2249WAT     H2 6990   7.191   2.512   9.685
 2250WAT      O 6991   2.495   0.462   1.172
 2250WAT     H1 6992   2.516   0.523   1.095
 2250WAT     H2 6993   2.421   0.401   1.147
 2251WAT      O 6994   5.449   2.942   4.382
 2251WAT     H1 6995   5.377   2.909   4.444
 2251WAT     H2 6996   5.535   2.895   4.404
 2252WAT      O 6997   8.094   8.903   9.454
 2252WAT     H1 6998   8.065   8.815   9.417
 2252WAT     H2 6999   8.085   8.973   9.384
 2253WAT      O 7000   8.312   8.754   8.503
 2253WAT     H1 7001   8.394   8.698   8.498
 2253WAT     H2 7002   8.334   8.843   8.540
 2254WAT      O 7003   3.171   2.186   0.989
 2254WAT     H1 7004   3.208   2.268   1.031
 2254WAT     H2 7005   3.173   2.195   0.890
 2255WAT      O 7006   6.394   0.972   4.681
 2255WAT     H1 7007   6.327   0.986   4.607
 2255WAT     H2 7008   6.464   0.907   4.651
 2256WAT      O 7009   8.748   9.135   6.025
 2256WAT     H1 7010   8.832   9.187   6.039
 2256WAT     H2 7011   8.691   9.141   6.107
 2257WAT      O 7012   9.846   8.237   4.224
 2257WAT     H1 7013   9.787   8.293   4.282
 2257WAT     H2 7014   9.802   8.149   4.205
 2258WAT      O 7015   2.530   1.784   5.002
 2258WAT     H1 7016   2.528   1.692   4.962
 2258WAT     H2 7017   2.598   1.839   4.954
 2259WAT      O 7018   2.850   6.994   7.503
 2259WAT     H1 7019   2.787   6.981   7.580
 2259WAT     H2 7020   2.901   7.078   7.515
 2260WAT      O 7021   1.273   7.560   0.693
 2260WAT     H1 7022   1.204   7.504   0.646
 2260WAT     H2 7023   1.237   7.589   0.781
 2261WAT      O 7024   8.691   1.538   8.791
 2261WAT     H1 7025   8.630   1.474   8.744
 2261WAT     H2 7026   8.784   1.503   8.789
 2262WAT      O 7027   5.696   8.684   1.312
 2262WAT     H1 7028   5.656   8.745   1.243
 2262WAT     H2 7029   5.750   8.613   1.267
 2263WAT      O 7030   1.734   2.792   3.075
 2263WAT     H1 7031   1.828   2.757   3.081
 2263WAT     H2 7032   1.731   2.885   3.111
 2264WAT      O 7033   4.777   7.687   1.497
 2264WAT     H1 7034   4.796   7.638   1.412
 2264WAT     H2 7035   4.746   7.780   1.476
 2265WAT      O 7036   8.736   8.534   4.616
 2265WAT     H1 7037   8.835   8.528   4.624
 2265WAT     H2 7038   8.712   8.600   4.544
 2266WAT      O 7039   1.499   8.689   6.318
 2266WAT     H1 7040   1.499   8.732   6.408
 2266WAT     H2 7041   1.407   8.693   6.279
 2267WAT      O 7042   0.511   6.550   8.300
 2267WAT     H1 7043   0.549   6.514   8.214
 2267WAT     H2 7044   0.412   6.537   8.300
 2268WAT      O 7045   4.173   0.544   6.387
 2268WAT     H1 7046   4.086   0.576   6.424
 2268WAT     H2 7047   4.239   0.619   6.386
 2269WAT      O 7048   3.693   4.512   3.434
 2269WAT     H1 7049   3.651   4.570   3.364
 2269WAT     H2 7050   3.623   4.452   3.473
 2270WAT      O 7051   8.699   1.585   6.244
 2270WAT     H1 7052   8.771   1.650   6.222
 2270WAT     H2 7053   8.627   1.590   6.175
 2271WAT      O 7054   2.498   7.544   8.678
 2271WAT     H1 7055   2.431   7.617   8.695
 2271WAT     H2 7056   2.585   7.568   8.719
 2272WAT      O 7057   8.917   7.698   9.056
 2272WAT     H1 7058   8.825   7.660   9.053
 2272WAT     H2 7059   8.966   7.663   9.135
 2273WAT      O 7060   6.850   7.076   3.738
 2273WAT     H1 7061   6.899   7.153   3.780
 2273WAT     H2 7062   6.755   7.100   3.724
 2274WAT      O 7063   4.259   7.967   9.445
 2274WAT     H1 7064   4.179   8.019   9.475
 2274WAT     H2 7065   4.288   7.998   9.355
 2275WAT      O 7066   7.749   3.702   6.610
 2275WAT     H1 7067   7.658   3.664   6.623
 2275WAT     H2 7068   7.798   3.702   6.698
 2276WAT      O 7069   5.334   0.306   6.863
 2276WAT     H1 7070   5.348   0.334   6.768
 2276WAT     H2 7071   5.330   0.387   6.922
 2277WAT      O 7072   5.987   7.327   1.714
 2277WAT     H1 7073   6.074   7.345   1.668
 2277WAT     H2 7074   5.951   7.239   1.684
 2278WAT      O 7075   3.816   6.090   0.135
 2278WAT     H1 7076   3.909   6.088   0.097
 2278WAT     H2 7077   3.752   6.055   0.067
 2279WAT      O 7078   8.314   6.227   2.627
 2279WAT     H1 7079   8.321   6.260   2.721
 2279WAT     H2 7080   8.226   6.256   2.588
 2280WAT      O 7081   0.696   7.328   0.251
 2280WAT     H1 7082   0.722   7.266   0.326
 2280WAT     H2 7083   0.693   7.422   0.285
 2281WAT      O 7084   0.285   2.281   9.853
 2281WAT     H1 7085   0.272   2.380   9.863
 2281WAT     H2 7086   0.196   2.236   9.853
 2282WAT      O 7087   8.292   2.086   9.142
 2282WAT     H1 7088   8.285   2.181   9.112
 2282WAT     H2 7089   8.216   2.033   9.105
 2283WAT      O 7090   9.873   1.935   8.927
 2283WAT     H1 7091   9.860   1.850   8.980
 2283WAT     H2 7092   9.961   1.976   8.952
 2284WAT      O 7093   1.758   4.987   4.033
 2284WAT     H1 7094   1.805   4.918   3.979
 2284WAT     H2 7095   1.767   5.077   3.989
 2285WAT      O 7096   5.015   0.008   8.276
 2285WAT     H1 7097   4.950   0.038   8.345
 2285WAT     H2 7098   5.011  -0.091   8.266
 2286WAT      O 7099   7.990   1.933   9.702
 2286WAT     H1 7100   8.088   1.915   9.697
 2286WAT     H2 7101   7.972   2.027   9.674
 2287WAT      O 7102   8.658   3.779   6.700
 2287WAT     H1 7103   8.630   3.696   6.653
 2287WAT     H2 7104   8.625   3.859   6.649
 2288WAT      O 7105   4.683   8.578   9.572
 2288WAT     H1 7106   4.628   8.516   9.516
 2288WAT     H2 7107   4.780   8.555   9.561
 2289WAT      O 7108   0.575   0.691   9.398
 2289WAT     H1 7109   0.654   0.732   9.354
 2289WAT     H2 7110   0.528   0.630   9.334
 2290WAT      O 7111   5.937   5.641   6.996
 2290WAT     H1 7112   5.896   5.576   6.932
 2290WAT     H2 7113   5.956   5.594   7.083
 2291WAT      O 7114   4.965   3.391   3.331
 2291WAT     H1 7115   5.039   3.329   3.305
 2291WAT     H2 7116   4.905   3.406   3.252
 2292WAT      O 7117   6.167   3.459   6.503
 2292WAT     H1 7118   6.087   3.400   6.508
 2292WAT     H2 7119   6.250   3.404   6.500
 2293WAT      O 7120   4.930   8.708   3.859
 2293WAT     H1 7121   4.908   8.799   3.824
 2293WAT     H2 7122   4.939   8.644   3.783
 2294WAT      O 7123   1.252   7.891   9.235
 2294WAT     H1 7124   1.198   7.839   9.168
 2294WAT     H2 7125   1.337   7.842   9.254
 2295WAT      O 7126   0.474   4.868   5.493
 2295WAT     H1 7127   0.461   4.957   5.535
 2295WAT     H2 7128   0.421   4.863   5.408
 2296WAT      O 7129   2.122   8.437   8.669
 2296WAT     H1 7130   2.212   8.405   8.639
 2296WAT     H2 7131   2.056   8.425   8.595
 2297WAT      O 7132   3.114   7.070   8.753
 2297WAT     H1 7133   3.072   7.103   8.837
 2297WAT     H2 7134   3.211   7.055   8.768
 2298WAT      O 7135   2.833   0.016   3.427
 2298WAT     H1 7136   2.911   0.074   3.404
 2298WAT     H2 7137   2.866  -0.074   3.456
 2299WAT      O 7138   3.135   7.599   4.379
 2299WAT     H1 7139   3.159   7.516   4.430
 2299WAT     H2 7140   3.049   7.585   4.330
 2300WAT      O 7141   1.999   1.811   8.982
 2300WAT     H1 7142   1.940   1.855   9.050
 2300WAT     H2 7143   2.030   1.723   9.017
 2301WAT      O 7144   9.183   1.305   1.236
 2301WAT     H1 7145   9.249   1.287   1.309
 2301WAT     H2 7146   9.099   1.343   1.276
 2302WAT      O 7147   9.605   1.674   8.496
 2302WAT     H1 7148   9.656   1.755   8.525
 2302WAT     H2 7149   9.593   1.677   8.396
 2303WAT      O 7150   6.732   0.968   8.376
 2303WAT     H1 7151   6.811   0.971   8.315
 2303WAT     H2 7152   6.756   0.918   8.460
 2304WAT      O 7153   2.372   2.586   9.115
 2304WAT     H1 7154   2.346   2.669   9.067
 2304WAT     H2 7155   2.461   2.555   9.081
 2305WAT      O 7156   3.541   3.337   7.905
 2305WAT     H1 7157   3.527   3.389   7.820
 2305WAT     H2 7158   3.573   3.245   7.883
 2306WAT      O 7159   5.937   8.655   9.644
 2306WAT     H1 7160   5.865   8.599   9.686
 2306WAT     H2 7161   5.996   8.692   9.716
 2307WAT      O 7162   3.855   2.290   8.943
 2307WAT     H1 7163   3.805   2.255   9.023
 2307WAT     H2 7164   3.880   2.214   8.884
 2308WAT      O 7165   0.406   1.858   8.710
 2308WAT     H1 7166   0.408   1.858   8.610
 2308WAT     H2 7167   0.460   1.781   8.744
 2309WAT      O 7168   4.181   1.521   1.622
 2309WAT     H1 7169   4.246   1.506   1.696
 2309WAT     H2 7170   4.097   1.470   1.640
 2310WAT      O 7171   8.120   7.345   0.311
 2310WAT     H1 7172   8.140   7.268   0.251
 2310WAT     H2 7173   8.053   7.317   0.380
 2311WAT      O 7174   7.003   3.494   9.889
 2311WAT     H1 7175   6.940   3.570   9.870
 2311WAT     H2 7176   7.090   3.532   9.921
 2312WAT      O 7177   2.773   4.859   3.824
 2312WAT     H1 7178   2.690   4.805   3.836
 2312WAT     H2 7179   2.804   4.892   3.913
 2313WAT      O 7180   5.612   0.964   3.850
 2313WAT     H1 7181   5.675   0.960   3.927
 2313WAT     H2 7182   5.552   1.044   3.861
 2314WAT      O 7183   4.068   8.780   5.214
 2314WAT     H1 7184   4.095   8.811   5.305
 2314WAT     H2 7185   4.032   8.687   5.219
 2315WAT      O 7186   9.324   0.275   2.223
 2315WAT     H1 7187   9.297   0.198   2.166
 2315WAT     H2 7188   9.309   0.252   2.319
 2316WAT      O 7189   9.496   8.607   5.042
 2316WAT     H1 7190   9.506   8.528   4.981
 2316WAT     H2 7191   9.581   8.621   5.092
 2317WAT      O 7192   5.328   8.201   4.142
 2317WAT     H1 7193   5.379   8.286   4.126
 2317WAT     H2 7194   5.312   8.190   4.240
 2318WAT      O 7195   4.973   3.867   1.406
 2318WAT     H1 7196   4.938   3.802   1.338
 2318WAT     H2 7197   4.978   3.823   1.495
 2319WAT      O 7198   9.151   5.023   7.168
 2319WAT     H1 7199   9.052   5.026   7.177
 2319WAT     H2 7200   9.185   5.115   7.150
 2320WAT      O 7201   5.399   5.402   0.346
 2320WAT     H1 7202   5.344   5.357   0.417
 2320WAT     H2 7203   5.459   5.335   0.303
 2321WAT      O 7204   5.881   7.985   8.767
 2321WAT     H1 7205   5.973   7.989   8.729
 2321WAT     H2 7206   5.852   8.076   8.796
 2322WAT      O 7207   0.072   7.836   1.466
 2322WAT     H1 7208   0.149   7.805   1.410
 2322WAT     H2 7209   0.076   7.792   1.556
 2323WAT      O 7210   4.128   6.109   3.572
 2323WAT     H1 7211   4.106   6.013   3.587
 2323WAT     H2 7212   4.206   6.117   3.511
 2324WAT      O 7213   0.317   3.345   4.451
 2324WAT     H1 7214   0.413   3.324   4.432
 2324WAT     H2 7215   0.266   3.260   4.462
 2325WAT      O 7216   9.261   6.985   8.301
 2325WAT     H1 7217   9.292   6.988   8.206
 2325WAT     H2 7218   9.179   7.041   8.311
 2326WAT      O 7219   0.137   8.138   1.502
 2326WAT     H1 7220   0.095   8.048   1.493
 2326WAT     H2 7221   0.078   8.207   1.461
 2327WAT      O 7222   5.463   7.623   2.840
 2327WAT     H1 7223   5.366   7.629   2.819
 2327WAT     H2 7224   5.476   7.619   2.939
 2328WAT      O 7225   0.378   2.682   0.792
 2328WAT     H1 7226   0.403   2.778   0.802
 2328WAT     H2 7227   0.403   2.632   0.874
 2329WAT      O 7228   0.050   0.458   8.862
 2329WAT     H1 7229  -0.014   0.507   8.803
 2329WAT     H2 7230  -0.001   0.404   8.929
 2330WAT      O 7231   0.265   4.763   9.523
 2330WAT     H1 7232   0.266   4.828   9.599
 2330WAT     H2 7233   0.327   4.794   9.451
 2331WAT      O 7234   0.047   2.039   1.824
 2331WAT     H1 7235   0.013   1.945   1.825
 2331WAT     H2 7236   0.033   2.079   1.733
 2332WAT      O 7237   5.138   6.645   7.908
 2332WAT     H1 7238   5.165   6.736   7.876
 2332WAT     H2 7239   5.156   6.578   7.835
 2333WAT      O 7240   3.934   0.257   3.498
 2333WAT     H1 7241   3.986   0.195   3.439
 2333WAT     H2 7242   3.997   0.317   3.547
 2334WAT      O 7243   5.079   3.541   8.906
 2334WAT     H1 7244   5.158   3.576   8.956
 2334WAT     H2 7245   5.059   3.448   8.936
 2335WAT      O 7246   3.514   6.083   3.919
 2335WAT     H1 7247   3.454   6.162   3.922
 2335WAT     H2 7248   3.463   6.001   3.944
 2336WAT      O 7249   8.129   3.985   8.653
 2336WAT     H1 7250   8.103   4.082   8.660
 2336WAT     H2 7251   8.079   3.932   8.721
 2337WAT      O 7252   3.477   7.634   6.030
 2337WAT     H1 7253   3.418   7.568   5.984
 2337WAT     H2 7254   3.476   7.616   6.129
 2338WAT      O 7255   9.131   8.690   6.564
 2338WAT     H1 7256   9.200   8.619   6.576
 2338WAT     H2 7257   9.174   8.780   6.572
 2339WAT      O 7258   2.817   9.152   6.586
 2339WAT     H1 7259   2.726   9.176   6.552
 2339WAT     H2 7260   2.856   9.080   6.528
 2340WAT      O 7261   5.685   9.741   4.267
 2340WAT     H1 7262   5.755   9.739   4.339
 2340WAT     H2 7263   5.718   9.798   4.191
 2341WAT      O 7264   0.129   5.267   1.756
 2341WAT     H1 7265   0.140   5.231   1.849
 2341WAT     H2 7266   0.219   5.276   1.713
 2342WAT      O 7267   8.493   2.562   5.944
 2342WAT     H1 7268   8.508   2.566   6.043
 2342WAT     H2 7269   8.577   2.589   5.897
 2343WAT      O 7270   6.006   3.428   1.630
 2343WAT     H1 7271   6.050   3.518   1.624
 2343WAT     H2 7272   5.910   3.435   1.604
 2344WAT      O 7273   8.463   0.843   1.716
 2344WAT     H1 7274   8.490   0.928   1.762
 2344WAT     H2 7275   8.485   0.850   1.618
 2345WAT      O 7276   9.047   6.240   9.720
 2345WAT     H1 7277   9.049   6.249   9.820
 2345WAT     H2 7278   8.952   6.235   9.689
 2346WAT      O 7279   6.885   8.810   1.245
 2346WAT     H1 7280   6.844   8.860   1.322
 2346WAT     H2 7281   6.978   8.783   1.269
 2347WAT      O 7282   7.438   9.196   5.502
 2347WAT     H1 7283   7.452   9.222   5.597
 2347WAT     H2 7284   7.522   9.156   5.465
 2348WAT      O 7285   2.742   3.809   7.794
 2348WAT     H1 7286   2.652   3.847   7.815
 2348WAT     H2 7287   2.732   3.717   7.754
 2349WAT      O 7288   2.750   5.104   4.280
 2349WAT     H1 7289   2.689   5.063   4.348
 2349WAT     H2 7290   2.740   5.204   4.282
 2350WAT      O 7291   8.531   6.248   2.446
 2350WAT     H1 7292   8.583   6.332   2.430
 2350WAT     H2 7293   8.459   6.265   2.513
 2351WAT      O 7294   4.734   8.823   8.620
 2351WAT     H1 7295   4.642   8.798   8.590
 2351WAT     H2 7296   4.756   8.775   8.705
 2352WAT      O 7297   6.527   4.088   8.834
 2352WAT     H1 7298   6.432   4.058   8.821
 2352WAT     H2 7299   6.589   4.010   8.821
 2353WAT      O 7300   4.492   8.260   3.373
 2353WAT     H1 7301   4.466   8.191   3.440
 2353WAT     H2 7302   4.561   8.222   3.311
 2354WAT      O 7303   9.304   7.730   0.543
 2354WAT     H1 7304   9.230   7.679   0.499
 2354WAT     H2 7305   9.271   7.820   0.571
 2355WAT      O 7306   3.846   6.665   2.518
 2355WAT     H1 7307   3.792   6.744   2.488
 2355WAT     H2 7308   3.785   6.590   2.541
 2356WAT      O 7309   1.917   9.618   4.727
 2356WAT     H1 7310   1.827   9.646   4.759
 2356WAT     H2 7311   1.985   9.638   4.797
 2357WAT      O 7312   3.786   0.340   8.071
 2357WAT     H1 7313   3.808   0.342   7.974
 2357WAT     H2 7314   3.870   0.328   8.124
 2358WAT      O 7315   7.344   0.460   9.776
 2358WAT     H1 7316   7.295   0.546   9.763
 2358WAT     H2 7317   7.372   0.423   9.687
 2359WAT      O 7318   7.706   8.088   1.827
 2359WAT     H1 7319   7.725   8.105   1.731
 2359WAT     H2 7320   7.609   8.065   1.838
 2360WAT      O 7321   9.322   6.437   1.473
 2360WAT     H1 7322   9.306   6.340   1.457
 2360WAT     H2 7323   9.249   6.491   1.430
 2361WAT      O 7324   3.059   6.822   3.550
 2361WAT     H1 7325   2.974   6.801   3.599
 2361WAT     H2 7326   3.093   6.911   3.579
 2362WAT      O 7327   0.919   4.678   8.909
 2362WAT     H1 7328   0.863   4.597   8.894
 2362WAT     H2 7329   1.015   4.657   8.890
 2363WAT      O 7330   3.628   4.078   0.242
 2363WAT     H1 7331   3.721   4.115   0.232
 2363WAT     H2 7332   3.562   4.151   0.226
 2364WAT      O 7333   6.201   1.019   9.533
 2364WAT     H1 7334   6.289   1.040   9.489
 2364WAT     H2 7335   6.166   1.101   9.579
 2365WAT      O 7336   7.495   0.930   6.306
 2365WAT     H1 7337   7.399   0.950   6.327
 2365WAT     H2 7338   7.531   0.868   6.376
 2366WAT      O 7339   6.456   0.532   5.101
 2366WAT     H1 7340   6.375   0.577   5.064
 2366WAT     H2 7341   6.447   0.523   5.200
 2367WAT      O 7342   1.176   3.052   0.624
 2367WAT     H1 7343   1.188   3.121   0.696
 2367WAT     H2 7344   1.144   2.967   0.665
 2368WAT      O 7345   5.518   1.036   5.025
 2368WAT     H1 7346   5.488   1.023   4.930
 2368WAT     H2 7347   5.439   1.058   5.082
 2369WAT      O 7348   5.856   4.591   8.932
 2369WAT     H1 7349   5.762   4.567   8.910
 2369WAT     H2 7350   5.917   4.515   8.909
 2370WAT      O 7351   5.656   8.093   7.194
 2370WAT     H1 7352   5.685   8.142   7.112
 2370WAT     H2 7353   5.567   8.051   7.179
 2371WAT      O 7354   1.488   5.544   3.936
 2371WAT     H1 7355   1.531   5.579   4.019
 2371WAT     H2 7356   1.433   5.463   3.959
 2372WAT      O 7357   8.491   6.515   7.007
 2372WAT     H1 7358   8.560   6.453   6.970
 2372WAT     H2 7359   8.452   6.476   7.090
 2373WAT      O 7360   1.744   9.191   0.367
 2373WAT     H1 7361   1.644   9.193   0.357
 2373WAT     H2 7362   1.784   9.158   0.281
 2374WAT      O 7363   2.656   4.300   7.268
 2374WAT     H1 7364   2.724   4.372   7.281
 2374WAT     H2 7365   2.699   4.211   7.280
 2375WAT      O 7366   6.330   8.614   7.519
 2375WAT     H1 7367   6.340   8.523   7.558
 2375WAT     H2 7368   6.248   8.617   7.462
 2376WAT      O 7369   3.116   3.428   9.300
 2376WAT     H1 7370   3.160   3.499   9.356
 2376WAT     H2 7371   3.018   3.425   9.321
 2377WAT      O 7372   0.151   5.167   3.434
 2377WAT     H1 7373   0.167   5.151   3.531
 2377WAT     H2 7374   0.091   5.246   3.422
 2378WAT      O 7375   7.816   1.714   8.801
 2378WAT     H1 7376   7.815   1.687   8.705
 2378WAT     H2 7377   7.904   1.689   8.842
 2379WAT      O 7378   0.199   3.282   3.177
 2379WAT     H1 7379   0.268   3.288   3.249
 2379WAT     H2 7380   0.241   3.254   3.091
 2380WAT      O 7381   2.945   9.388   0.725
 2380WAT     H1 7382   2.911   9.300   0.693
 2380WAT     H2 7383   2.930   9.395   0.824
 2381WAT      O 7384   0.902   5.322   7.442
 2381WAT     H1 7385   0.856   5.365   7.520
 2381WAT     H2 7386   0.995   5.295   7.469
 2382WAT      O 7387   0.974   5.976   0.034
 2382WAT     H1 7388   0.958   5.945  -0.059
 2382WAT     H2 7389   0.905   6.043   0.059
 2383WAT      O 7390   8.970   6.789   3.919
 2383WAT     H1 7391   9.034   6.774   3.844
 2383WAT     H2 7392   8.937   6.883   3.916
 2384WAT      O 7393   8.373   2.032   3.011
 2384WAT     H1 7394   8.298   2.086   3.048
 2384WAT     H2 7395   8.375   2.041   2.911
 2385WAT      O 7396   9.490   8.032   3.598
 2385WAT     H1 7397   9.435   8.099   3.647
 2385WAT     H2 7398   9.452   8.020   3.506
 2386WAT      O 7399   1.116   1.955   6.653
 2386WAT     H1 7400   1.186   1.883   6.651
 2386WAT     H2 7401   1.025   1.914   6.658
 2387WAT      O 7402   1.900   3.925   9.488
 2387WAT     H1 7403   1.813   3.944   9.443
 2387WAT     H2 7404   1.967   3.894   9.421
 2388WAT      O 7405   8.380   4.473   3.391
 2388WAT     H1 7406   8.450   4.516   3.334
 2388WAT     H2 7407   8.327   4.543   3.438
 2389WAT      O 7408   1.611   8.820   0.962
 2389WAT     H1 7409   1.675   8.853   1.032
 2389WAT     H2 7410   1.654   8.828   0.872
 2390WAT      O 7411   4.511   7.285   0.702
 2390WAT     H1 7412   4.426   7.297   0.754
 2390WAT     H2 7413   4.588   7.283   0.765
 2391WAT      O 7414   5.806   3.419   8.812
 2391WAT     H1 7415   5.754   3.482   8.755
 2391WAT     H2 7416   5.872   3.370   8.756
 2392WAT      O 7417   4.626   9.603   8.082
 2392WAT     H1 7418   4.603   9.601   8.179
 2392WAT     H2 7419   4.616   9.512   8.042
 2393WAT      O 7420   0.031   8.783   7.266
 2393WAT     H1 7421   0.069   8.693   7.288
 2393WAT     H2 7422   0.059   8.848   7.337
 2394WAT      O 7423   7.858   4.167   7.916
 2394WAT     H1 7424   7.809   4.083   7.891
 2394WAT     H2 7425   7.854   4.232   7.841
 2395WAT      O 7426   8.216   5.167   2.853
 2395WAT     H1 7427   8.219   5.177   2.754
 2395WAT     H2 7428   8.253   5.077   2.879
 2396WAT      O 7429   5.056   1.490   6.228
 2396WAT     H1 7430   5.082   1.503   6.132
 2396WAT     H2 7431   5.030   1.395   6.243
 2397WAT      O 7432   4.905   5.563   9.454
 2397WAT     H1 7433   4.921   5.506   9.374
 2397WAT     H2 7434   4.819   5.614   9.442
 2398WAT      O 7435   4.399   7.551   7.602
 2398WAT     H1 7436   4.437   7.642   7.585
 2398WAT     H2 7437   4.433   7.487   7.533
 2399WAT      O 7438   4.581   0.328   9.817
 2399WAT     H1 7439   4.550   0.282   9.900
 2399WAT     H2 7440   4.517   0.402   9.794
 2400WAT      O 7441   1.485   0.090   6.769
 2400WAT     H1 7442   1.397   0.046   6.747
 2400WAT     H2 7443   1.544   0.088   6.688
 2401WAT      O 7444   9.873   8.866   6.437
 2401WAT     H1 7445   9.967   8.869   6.405
 2401WAT     H2 7446   9.817   8.930   6.385
 2402WAT      O 7447   8.435   0.578   0.400
 2402WAT     H1 7448   8.525   0.535   0.407
 2402WAT     H2 7449   8.364   0.513   0.429
 2403WAT      O 7450   1.315   1.709   5.260
 2403WAT     H1 7451   1.266   1.766   5.326
 2403WAT     H2 7452   1.327   1.617   5.298
 2404WAT      O 7453   8.426   8.981   7.244
 2404WAT     H1 7454   8.454   8.972   7.340
 2404WAT     H2 7455   8.504   9.011   7.189
 2405WAT      O 7456   0.965   5.167   1.177
 2405WAT     H1 7457   0.960   5.213   1.265
 2405WAT     H2 7458   0.963   5.235   1.103
 2406WAT      O 7459   9.872   5.688   2.571
 2406WAT     H1 7460   9.850   5.617   2.505
 2406WAT     H2 7461   9.822   5.772   2.547
 2407WAT      O 7462   3.155   6.904   7.343
 2407WAT     H1 7463   3.073   6.902   7.400
 2407WAT     H2 7464   3.236   6.888   7.401
 2408WAT      O 7465   9.196   8.556   7.306
 2408WAT     H1 7466   9.098   8.563   7.288
 2408WAT     H2 7467   9.244   8.539   7.220
 2409WAT      O 7468   1.218   8.682   6.211
 2409WAT     H1 7469   1.262   8.694   6.122
 2409WAT     H2 7470   1.124   8.717   6.206
 2410WAT      O 7471   6.879   4.203   9.704
 2410WAT     H1 7472   6.933   4.169   9.627
 2410WAT     H2 7473   6.784   4.174   9.694
 2411WAT      O 7474   7.862   4.132   9.712
 2411WAT     H1 7475   7.906   4.042   9.714
 2411WAT     H2 7476   7.794   4.134   9.639
 2412WAT      O 7477   9.063   3.030   0.093
 2412WAT     H1 7478   9.117   2.986   0.165
 2412WAT     H2 7479   8.984   3.076   0.134
 2413WAT      O 7480   8.229   5.385   9.211
 2413WAT     H1 7481   8.130   5.383   9.192
 2413WAT     H2 7482   8.276   5.425   9.132
 2414WAT      O 7483   6.062   9.510   8.072
 2414WAT     H1 7484   6.077   9.577   8.145
 2414WAT     H2 7485   6.035   9.558   7.988
 2415WAT      O 7486   0.825   1.557   7.241
 2415WAT     H1 7487   0.761   1.547   7.318
 2415WAT     H2 7488   0.894   1.485   7.246
 2416WAT      O 7489   4.063   3.831   8.205
 2416WAT     H1 7490   4.098   3.741   8.228
 2416WAT     H2 7491   4.112   3.868   8.126
 2417WAT      O 7492   2.815   0.509   9.108
 2417WAT     H1 7493   2.908   0.472   9.111
 2417WAT     H2 7494   2.762   0.460   9.038
 2418WAT      O 7495   6.610   8.958   5.433
 2418WAT     H1 7496   6.587   9.037   5.490
 2418WAT     H2 7497   6.563   8.876   5.468
 2419WAT      O 7498   1.296   0.402   6.086
 2419WAT     H1 7499   1.284   0.319   6.031
 2419WAT     H2 7500   1.225   0.406   6.156
 2420WAT      O 7501   8.034   9.246   5.841
 2420WAT     H1 7502   7.980   9.229   5.759
 2420WAT     H2 7503   7.991   9.200   5.919
 2421WAT      O 7504   4.231   1.308   8.071
 2421WAT     H1 7505   4.185   1.232   8.025
 2421WAT     H2 7506   4.163   1.359   8.125
 2422WAT      O 7507   5.163   6.932   1.913
 2422WAT     H1 7508   5.256   6.930   1.950
 2422WAT     H2 7509   5.115   6.848   1.937
 2423WAT      O 7510   6.893   2.228   9.473
 2423WAT     H1 7511   6.820   2.210   9.539
 2423WAT     H2 7512   6.940   2.142   9.450
 2424WAT      O 7513   2.499   1.420   7.450
 2424WAT     H1 7514   2.469   1.481   7.524
 2424WAT     H2 7515   2.420   1.381   7.404
 2425WAT      O 7516   0.818   3.983   9.589
 2425WAT     H1 7517   0.741   3.920   9.581
 2425WAT     H2 7518   0.877   3.955   9.665
 2426WAT      O 7519   9.606   7.980   2.522
 2426WAT     H1 7520   9.628   7.942   2.611
 2426WAT     H2 7521   9.621   8.079   2.523
 2427WAT      O 7522   7.593   1.946   5.392
 2427WAT     H1 7523   7.575   1.849   5.411
 2427WAT     H2 7524   7.660   1.953   5.319
 2428WAT      O 7525   6.976   4.116   8.846
 2428WAT     H1 7526   6.971   4.054   8.767
 2428WAT     H2 7527   7.001   4.207   8.816
 2429WAT      O 7528   3.303   5.861   6.635
 2429WAT     H1 7529   3.243   5.909   6.699
 2429WAT     H2 7530   3.392   5.844   6.678
 2430WAT      O 7531   7.343   2.439   1.560
 2430WAT     H1 7532   7.365   2.403   1.469
 2430WAT     H2 7533   7.251   2.479   1.559
 2431WAT      O 7534   7.854   2.955   3.934
 2431WAT     H1 7535   7.792   2.965   3.856
 2431WAT     H2 7536   7.802   2.927   4.015
 2432WAT      O 7537   3.465   6.972   0.699
 2432WAT     H1 7538   3.468   6.994   0.797
 2432WAT     H2 7539   3.413   7.041   0.650
 2433WAT      O 7540   4.566   1.216   5.017
 2433WAT     H1 7541   4.601   1.277   5.089
 2433WAT     H2 7542   4.476   1.183   5.044
 2434WAT      O 7543   0.187   5.723   3.973
 2434WAT     H1 7544   0.126   5.793   4.010
 2434WAT     H2 7545   0.239   5.682   4.048
 2435WAT      O 7546   1.216   8.890   3.884
 2435WAT     H1 7547   1.239   8.972   3.831
 2435WAT     H2 7548   1.264   8.893   3.972
 2436WAT      O 7549   0.351   9.146   8.667
 2436WAT     H1 7550   0.260   9.123   8.703
 2436WAT     H2 7551   0.366   9.099   8.581
 2437WAT      O 7552   8.034   9.303   0.892
 2437WAT     H1 7553   7.973   9.287   0.969
 2437WAT     H2 7554   8.068   9.215   0.857
 2438WAT      O 7555   8.861   9.094   8.825
 2438WAT     H1 7556   8.804   9.176   8.819
 2438WAT     H2 7557   8.924   9.092   8.747
 2439WAT      O 7558   7.619   6.109   0.325
 2439WAT     H1 7559   7.632   6.157   0.412
 2439WAT     H2 7560   7.523   6.112   0.300
 2440WAT      O 7561   4.057   9.653   5.480
 2440WAT     H1 7562   4.015   9.743   5.491
 2440WAT     H2 7563   4.156   9.663   5.477
 2441WAT      O 7564   6.818   7.051   1.501
 2441WAT     H1 7565   6.724   7.021   1.516
 2441WAT     H2 7566   6.819   7.129   1.440
 2442WAT      O 7567   1.540   0.414   0.863
 2442WAT     H1 7568   1.625   0.442   0.818
 2442WAT     H2 7569   1.544   0.316   0.881
 2443WAT      O 7570   9.531   7.577   6.107
 2443WAT     H1 7571   9.494   7.566   6.015
 2443WAT     H2 7572   9.626   7.607   6.101
 2444WAT      O 7573   2.271   1.355   9.556
 2444WAT     H1 7574   2.272   1.331   9.654
 2444WAT     H2 7575   2.340   1.300   9.508
 2445WAT      O 7576   3.094   6.096   4.141
 2445WAT     H1 7577   3.193   6.100   4.158
 2445WAT     H2 7578   3.052   6.035   4.208
 2446WAT      O 7579   3.273   5.390   3.822
 2446WAT     H1 7580   3.361   5.416   3.783
 2446WAT     H2 7581   3.200   5.441   3.779
 2447WAT      O 7582   5.459   8.731   1.468
 2447WAT     H1 7583   5.540   8.755   1.415
 2447WAT     H2 7584   5.445   8.632   1.465
 2448WAT      O 7585   7.598   4.883   0.849
 2448WAT     H1 7586   7.641   4.848   0.932
 2448WAT     H2 7587   7.665   4.884   0.775
 2449WAT      O 7588   4.600   9.176   7.791
 2449WAT     H1 7589   4.536   9.126   7.849
 2449WAT     H2 7590   4.655   9.112   7.738
 2450WAT      O 7591   8.057   9.101   8.611
 2450WAT     H1 7592   8.069   9.062   8.520
 2450WAT     H2 7593   8.125   9.061   8.673
 2451WAT      O 7594   5.574   0.644   1.761
 2451WAT     H1 7595   5.586   0.551   1.795
 2451WAT     H2 7596   5.647   0.702   1.795
 2452WAT      O 7597   8.684   7.236   5.807
 2452WAT     H1 7598   8.769   7.183   5.799
 2452WAT     H2 7599   8.686   7.311   5.742
 2453WAT      O 7600   6.419   1.546   2.001
 2453WAT     H1 7601   6.438   1.595   2.086
 2453WAT     H2 7602   6.389   1.452   2.023
 2454WAT      O 7603   0.688   0.524   3.251
 2454WAT     H1 7604   0.721   0.490   3.339
 2454WAT     H2 7605   0.642   0.450   3.202
 2455WAT      O 7606   3.423   7.561   3.256
 2455WAT     H1 7607   3.443   7.550   3.159
 2455WAT     H2 7608   3.507   7.548   3.309
 2456WAT      O 7609   7.673   0.004   9.307
 2456WAT     H1 7610   7.669   0.074   9.235
 2456WAT     H2 7611   7.586  -0.045   9.312
 2457WAT      O 7612   1.631   1.769   2.152
 2457WAT     H1 7613   1.652   1.861   2.184
 2457WAT     H2 7614   1.713   1.711   2.161
 2458WAT      O 7615   4.674   7.156   1.723
 2458WAT     H1 7616   4.690   7.082   1.787
 2458WAT     H2 7617   4.738   7.231   1.741
 2459WAT      O 7618   5.284   6.659   0.089
 2459WAT     H1 7619   5.225   6.598   0.141
 2459WAT     H2 7620   5.341   6.712   0.152
 2460WAT      O 7621   6.882   5.102   7.234
 2460WAT     H1 7622   6.840   5.191   7.249
 2460WAT     H2 7623   6.847   5.037   7.302
 2461WAT      O 7624   6.591   0.339   4.441
 2461WAT     H1 7625   6.536   0.419   4.464
 2461WAT     H2 7626   6.683   0.369   4.416
 2462WAT      O 7627   4.531   2.300   7.433
 2462WAT     H1 7628   4.545   2.261   7.343
 2462WAT     H2 7629   4.462   2.372   7.428
 2463WAT      O 7630   3.097   8.320   4.064
 2463WAT     H1 7631   3.066   8.236   4.109
 2463WAT     H2 7632   3.097   8.306   3.965
 2464WAT      O 7633   5.413   6.040   0.406
 2464WAT     H1 7634   5.386   5.947   0.382
 2464WAT     H2 7635   5.332   6.097   0.416
 2465WAT      O 7636   8.444   9.480   6.263
 2465WAT     H1 7637   8.417   9.471   6.167
 2465WAT     H2 7638   8.415   9.399   6.314
 2466WAT      O 7639   2.683   7.569   7.747
 2466WAT     H1 7640   2.691   7.497   7.678
 2466WAT     H2 7641   2.772   7.583   7.792
 2467WAT      O 7642   8.177   5.112   8.609
 2467WAT     H1 7643   8.218   5.152   8.691
 2467WAT     H2 7644   8.243   5.118   8.533
 2468WAT      O 7645   9.055   0.717   8.376
 2468WAT     H1 7646   9.009   0.742   8.461
 2468WAT     H2 7647   9.147   0.754   8.375
 2469WAT      O 7648   4.953   0.844   8.944
 2469WAT     H1 7649   5.020   0.918   8.939
 2469WAT     H2 7650   4.942   0.803   8.853
 2470WAT      O 7651   4.621   0.616   6.687
 2470WAT     H1 7652   4.680   0.571   6.754
 2470WAT     H2 7653   4.527   0.613   6.718
 2471WAT      O 7654   9.274   2.086   3.390
 2471WAT     H1 7655   9.215   2.167   3.387
 2471WAT     H2 7656   9.218   2.005   3.402
 2472WAT      O 7657   5.073   3.732   0.029
 2472WAT     H1 7658   5.026   3.726   0.117
 2472WAT     H2 7659   5.077   3.641  -0.012
 2473WAT      O 7660   3.337   4.942   9.287
 2473WAT     H1 7661   3.405   4.946   9.214
 2473WAT     H2 7662   3.376   4.979   9.371
 2474WAT      O 7663   3.487   7.993   9.173
 2474WAT     H1 7664   3.570   7.949   9.138
 2474WAT     H2 7665   3.409   7.966   9.116
 2475WAT      O 7666   1.029   7.493   0.340
 2475WAT     H1 7667   1.062   7.438   0.417
 2475WAT     H2 7668   1.082   7.470   0.258
 2476WAT      O 7669   2.704   0.846   6.790
 2476WAT     H1 7670   2.666   0.934   6.764
 2476WAT     H2 7671   2.639   0.798   6.849
 2477WAT      O 7672   4.382   6.933   3.795
 2477WAT     H1 7673   4.427   6.872   3.730
 2477WAT     H2 7674   4.341   6.878   3.869
 2478WAT      O 7675   7.217   4.938   0.406
 2478WAT     H1 7676   7.256   4.863   0.460
 2478WAT     H2 7677   7.279   4.961   0.331
 2479WAT      O 7678   1.201   4.043   7.542
 2479WAT     H1 7679   1.289   4.086   7.526
 2479WAT     H2 7680   1.166   4.070   7.632
 2480WAT      O 7681   7.775   5.924   4.076
 2480WAT     H1 7682   7.729   5.873   4.149
 2480WAT     H2 7683   7.800   6.015   4.110
 2481WAT      O 7684   9.038   7.165   8.465
 2481WAT     H1 7685   9.077   7.190   8.554
 2481WAT     H2 7686   9.072   7.228   8.395
 2482WAT      O 7687   1.383   8.233   8.884
 2482WAT     H1 7688   1.431   8.157   8.929
 2482WAT     H2 7689   1.415   8.320   8.921
 2483WAT      O 7690   9.102   3.835   2.511
 2483WAT     H1 7691   9.131   3.787   2.594
 2483WAT     H2 7692   9.018   3.886   2.530
 2484WAT      O 7693   3.605   7.818   6.864
 2484WAT     H1 7694   3.614   7.720   6.879
 2484WAT     H2 7695   3.550   7.858   6.937
 2485WAT      O 7696   3.802   5.677   6.309
 2485WAT     H1 7697   3.739   5.663   6.232
 2485WAT     H2 7698   3.807   5.593   6.364
 2486WAT      O 7699   6.385   9.348   8.608
 2486WAT     H1 7700   6.341   9.343   8.518
 2486WAT     H2 7701   6.353   9.273   8.665
 2487WAT      O 7702   6.668   3.129   0.629
 2487WAT     H1 7703   6.646   3.227   0.630
 2487WAT     H2 7704   6.766   3.117   0.643
 2488WAT      O 7705   7.071   0.008   2.468
 2488WAT     H1 7706   7.093  -0.077   2.420
 2488WAT     H2 7707   6.982   0.041   2.437
 2489WAT      O 7708   1.841   5.405   2.484
 2489WAT     H1 7709   1.808   5.355   2.565
 2489WAT     H2 7710   1.764   5.449   2.438
 2490WAT      O 7711   5.730   8.746   6.922
 2490WAT     H1 7712   5.680   8.677   6.974
 2490WAT     H2 7713   5.763   8.817   6.985
 2491WAT      O 7714   1.762   7.728   2.761
 2491WAT     H1 7715   1.859   7.713   2.740
 2491WAT     H2 7716   1.754   7.773   2.850
 2492WAT      O 7717   9.244   2.243   3.015
 2492WAT     H1 7718   9.184   2.219   3.091
 2492WAT     H2 7719   9.319   2.177   3.009
 2493WAT      O 7720   4.911   8.446   6.457
 2493WAT     H1 7721   4.948   8.372   6.401
 2493WAT     H2 7722   4.811   8.443   6.456
 2494WAT      O 7723   5.253   4.905   9.846
 2494WAT     H1 7724   5.160   4.920   9.813
 2494WAT     H2 7725   5.319   4.924   9.773
 2495WAT      O 7726   1.331   3.810   1.600
 2495WAT     H1 7727   1.288   3.721   1.617
 2495WAT     H2 7728   1.424   3.810   1.637
 2496WAT      O 7729   7.434   8.491   1.224
 2496WAT     H1 7730   7.453   8.448   1.313
 2496WAT     H2 7731   7.443   8.422   1.152
 2497WAT      O 7732   2.917   1.882   2.626
 2497WAT     H1 7733   2.924   1.959   2.562
 2497WAT     H2 7734   2.821   1.858   2.638
 2498WAT      O 7735   4.552   0.320   2.022
 2498WAT     H1 7736   4.643   0.359   2.020
 2498WAT     H2 7737   4.526   0.290   1.930
 2499WAT      O 7738   1.739   6.930   7.240
 2499WAT     H1 7739   1.671   6.961   7.174
 2499WAT     H2 7740   1.826   6.976   7.223
 2500WAT      O 7741   6.910   8.425   1.157
 2500WAT     H1 7742   6.857   8.498   1.115
 2500WAT     H2 7743   6.848   8.355   1.192
 2501WAT      O 7744   5.999   1.082   6.723
 2501WAT     H1 7745   5.902   1.087   6.749
 2501WAT     H2 7746   6.056   1.098   6.803
 2502WAT      O 7747   8.544   6.138   8.529
 2502WAT     H1 7748   8.563   6.233   8.551
 2502WAT     H2 7749   8.448   6.118   8.547
 2503WAT      O 7750   5.122   7.557   0.480
 2503WAT     H1 7751   5.185   7.480   0.475
 2503WAT     H2 7752   5.134   7.615   0.400
 2504WAT      O 7753   3.179   5.992   3.135
 2504WAT     H1 7754   3.262   5.991   3.192
 2504WAT     H2 7755   3.121   5.915   3.159
 2505WAT      O 7756   3.736   6.155   5.399
 2505WAT     H1 7757   3.718   6.113   5.311
 2505WAT     H2 7758   3.818   6.212   5.393
 2506WAT      O 7759   1.597   8.844   4.790
 2506WAT     H1 7760   1.573   8.831   4.694
 2506WAT     H2 7761   1.695   8.829   4.802
 2507WAT      O 7762   8.376   5.862   4.700
 2507WAT     H1 7763   8.287   5.903   4.681
 2507WAT     H2 7764   8.448   5.915   4.654
 2508WAT      O 7765   1.992   6.180   4.507
 2508WAT     H1 7766   2.079   6.219   4.475
 2508WAT     H2 7767   1.947   6.245   4.568
 2509WAT      O 7768   1.152   8.196   0.894
 2509WAT     H1 7769   1.170   8.294   0.901
 2509WAT     H2 7770   1.180   8.151   0.979
 2510WAT      O 7771   7.850   8.194   1.145
 2510WAT     H1 7772   7.786   8.116   1.144
 2510WAT     H2 7773   7.867   8.221   1.240
 2511WAT      O 7774   9.204   7.654   3.144
 2511WAT     H1 7775   9.110   7.624   3.162
 2511WAT     H2 7776   9.235   7.614   3.057
 2512WAT      O 7777   1.505   5.183   6.971
 2512WAT     H1 7778   1.483   5.272   7.011
 2512WAT     H2 7779   1.600   5.184   6.938
 2513WAT      O 7780   2.693   1.309   8.293
 2513WAT     H1 7781   2.762   1.380   8.304
 2513WAT     H2 7782   2.720   1.248   8.218
 2514WAT      O 7783   8.075   8.102   4.505
 2514WAT     H1 7784   8.053   8.104   4.603
 2514WAT     H2 7785   7.999   8.140   4.453
 2515WAT      O 7786   5.378   9.666   9.204
 2515WAT     H1 7787   5.341   9.657   9.111
 2515WAT     H2 7788   5.337   9.596   9.263
 2516WAT      O 7789   7.875   5.432   1.999
 2516WAT     H1 7790   7.864   5.334   1.983
 2516WAT     H2 7791   7.959   5.464   1.955
 2517WAT      O 7792   0.835   6.392   7.078
 2517WAT     H1 7793   0.854   6.326   7.151
 2517WAT     H2 7794   0.920   6.413   7.029
 2518WAT      O 7795   7.611   5.552   3.609
 2518WAT     H1 7796   7.586   5.489   3.535
 2518WAT     H2 7797   7.693   5.603   3.582
 2519WAT      O 7798   6.243   9.514   7.270
 2519WAT     H1 7799   6.289   9.523   7.358
 2519WAT     H2 7800   6.149   9.549   7.278
 2520WAT      O 7801   8.483   0.349   1.570
 2520WAT     H1 7802   8.440   0.270   1.613
 2520WAT     H2 7803   8.491   0.333   1.471
 2521WAT      O 7804   5.436   5.223   9.817
 2521WAT     H1 7805   5.479   5.312   9.803
 2521WAT     H2 7806   5.384   5.224   9.902
 2522WAT      O 7807   6.996   4.403   4.372
 2522WAT     H1 7808   7.050   4.480   4.338
 2522WAT     H2 7809   6.908   4.436   4.407
 2523WAT      O 7810   4.070   9.686   8.253
 2523WAT     H1 7811   4.118   9.774   8.263
 2523WAT     H2 7812   4.086   9.630   8.334
 2524WAT      O 7813   3.242   1.320   8.787
 2524WAT     H1 7814   3.195   1.314   8.875
 2524WAT     H2 7815   3.339   1.298   8.800
 2525WAT      O 7816   1.348   8.694   2.722
 2525WAT     H1 7817   1.259   8.697   2.767
 2525WAT     H2 7818   1.380   8.788   2.705
 2526WAT      O 7819   3.369   2.426   1.484
 2526WAT     H1 7820   3.352   2.525   1.487
 2526WAT     H2 7821   3.299   2.378   1.537
 2527WAT      O 7822   7.498   1.648   6.932
 2527WAT     H1 7823   7.560   1.722   6.904
 2527WAT     H2 7824   7.537   1.600   7.010
 2528WAT      O 7825   3.426   7.811   8.464
 2528WAT     H1 7826   3.413   7.713   8.449
 2528WAT     H2 7827   3.374   7.862   8.395
 2529WAT      O 7828   9.817   8.118   5.447
 2529WAT     H1 7829   9.719   8.116   5.465
 2529WAT     H2 7830   9.840   8.205   5.403
 2530WAT      O 7831   7.672   7.502   8.677
 2530WAT     H1 7832   7.652   7.600   8.675
 2530WAT     H2 7833   7.725   7.477   8.596
 2531WAT      O 7834   7.850   7.871   4.558
 2531WAT     H1 7835   7.947   7.891   4.570
 2531WAT     H2 7836   7.835   7.830   4.467
 2532WAT      O 7837   7.111   4.309   0.851
 2532WAT     H1 7838   7.131   4.337   0.944
 2532WAT     H2 7839   7.069   4.218   0.851
 2533WAT      O 7840   1.267   0.895   7.776
 2533WAT     H1 7841   1.352   0.855   7.810
 2533WAT     H2 7842   1.216   0.826   7.725
 2534WAT      O 7843   4.096   4.453   1.569
 2534WAT     H1 7844   4.108   4.533   1.510
 2534WAT     H2 7845   4.042   4.383   1.521
 2535WAT      O 7846   1.794   1.947   9.137
 2535WAT     H1 7847   1.742   1.972   9.219
 2535WAT     H2 7848   1.748   1.872   9.090
 2536WAT      O 7849   2.799   7.770   0.436
 2536WAT     H1 7850   2.755   7.745   0.350
 2536WAT     H2 7851   2.864   7.844   0.421
 2537WAT      O 7852   0.719   0.644   5.176
 2537WAT     H1 7853   0.629   0.688   5.177
 2537WAT     H2 7854   0.791   0.713   5.177
 2538WAT      O 7855   1.244   7.625   5.885
 2538WAT     H1 7856   1.159   7.584   5.851
 2538WAT     H2 7857   1.239   7.636   5.984
 2539WAT      O 7858   2.539   8.064   1.803
 2539WAT     H1 7859   2.560   7.967   1.802
 2539WAT     H2 7860   2.522   8.096   1.710
 2540WAT      O 7861   8.408   5.918   1.613
 2540WAT     H1 7862   8.339   5.849   1.592
 2540WAT     H2 7863   8.446   5.953   1.527
 2541WAT      O 7864   2.687   8.474   6.014
 2541WAT     H1 7865   2.698   8.453   6.112
 2541WAT     H2 7866   2.619   8.547   6.004
 2542WAT      O 7867   4.156   3.970   1.746
 2542WAT     H1 7868   4.134   3.927   1.659
 2542WAT     H2 7869   4.202   4.057   1.729
 2543WAT      O 7870   4.979   8.207   2.697
 2543WAT     H1 7871   4.942   8.174   2.610
 2543WAT     H2 7872   4.977   8.134   2.764
 2544WAT      O 7873   7.089   5.175   4.367
 2544WAT     H1 7874   7.181   5.213   4.377
 2544WAT     H2 7875   7.024   5.231   4.418
 2545WAT      O 7876   3.967   8.087   8.679
 2545WAT     H1 7877   4.053   8.122   8.642
 2545WAT     H2 7878   3.956   8.118   8.773
 2546WAT      O 7879   8.728   4.390   4.848
 2546WAT     H1 7880   8.693   4.477   4.813
 2546WAT     H2 7881   8.827   4.398   4.863
 2547WAT      O 7882   9.800   1.561   0.354
 2547WAT     H1 7883   9.702   1.542   0.366
 2547WAT     H2 7884   9.827   1.541   0.260
 2548WAT      O 7885   2.782   5.127   0.108
 2548WAT     H1 7886   2.718   5.071   0.055
 2548WAT     H2 7887   2.841   5.179   0.045
 2549WAT      O 7888   4.504   2.743   3.033
 2549WAT     H1 7889   4.569   2.696   2.973
 2549WAT     H2 7890   4.455   2.812   2.981
 2550WAT      O 7891   3.272   7.336   5.322
 2550WAT     H1 7892   3.251   7.312   5.417
 2550WAT     H2 7893   3.279   7.253   5.267
 2551WAT      O 7894   0.728   1.943   1.189
 2551WAT     H1 7895   0.761   1.862   1.238
 2551WAT     H2 7896   0.807   1.993   1.151
 2552WAT      O 7897   7.821   8.337   9.311
 2552WAT     H1 7898   7.914   8.339   9.273
 2552WAT     H2 7899   7.777   8.251   9.286
 2553WAT      O 7900   9.180   0.550   6.883
 2553WAT     H1 7901   9.228   0.594   6.959
 2553WAT     H2 7902   9.119   0.616   6.840
 2554WAT      O 7903   9.504   7.680   2.732
 2554WAT     H1 7904   9.520   7.600   2.673
 2554WAT     H2 7905   9.406   7.686   2.754
 2555WAT      O 7906   2.508   5.284   0.859
 2555WAT     H1 7907   2.607   5.273   0.863
 2555WAT     H2 7908   2.486   5.377   0.832
 2556WAT      O 7909   8.601   0.911   5.953
 2556WAT     H1 7910   8.520   0.901   6.011
 2556WAT     H2 7911   8.573   0.906   5.857
 2557WAT      O 7912   1.028   2.791   3.342
 2557WAT     H1 7913   1.105   2.731   3.364
 2557WAT     H2 7914   0.943   2.742   3.359
 2558WAT      O 7915   0.202   0.108   7.577
 2558WAT     H1 7916   0.184   0.177   7.506
 2558WAT     H2 7917   0.224   0.021   7.533
 2559WAT      O 7918   5.205   3.855   4.562
 2559WAT     H1 7919   5.206   3.764   4.520
 2559WAT     H2 7920   5.214   3.925   4.492
 2560WAT      O 7921   8.331   7.123   4.209
 2560WAT     H1 7922   8.331   7.148   4.306
 2560WAT     H2 7923   8.399   7.177   4.160
 2561WAT      O 7924   6.364   3.465   2.656
 2561WAT     H1 7925   6.292   3.487   2.590
 2561WAT     H2 7926   6.453   3.483   2.615
 2562WAT      O 7927   3.409   6.136   8.822
 2562WAT     H1 7928   3.338   6.182   8.768
 2562WAT     H2 7929   3.497   6.178   8.805
 2563WAT      O 7930   4.960   4.555   5.692
 2563WAT     H1 7931   4.969   4.547   5.592
 2563WAT     H2 7932   5.046   4.586   5.731
 2564WAT      O 7933   1.771   0.125   8.181
 2564WAT     H1 7934   1.686   0.127   8.234
 2564WAT     H2 7935   1.799   0.218   8.158
 2565WAT      O 7936   9.676   5.073   3.148
 2565WAT     H1 7937   9.609   5.133   3.192
 2565WAT     H2 7938   9.747   5.128   3.104
 2566WAT      O 7939   9.580   8.676   8.642
 2566WAT     H1 7940   9.538   8.595   8.601
 2566WAT     H2 7941   9.643   8.648   8.715
 2567WAT      O 7942   2.734   5.089   1.870
 2567WAT     H1 7943   2.805   5.025   1.901
 2567WAT     H2 7944   2.733   5.169   1.931
 2568WAT      O 7945   2.338   3.731   3.585
 2568WAT     H1 7946   2.417   3.783   3.617
 2568WAT     H2 7947   2.261   3.746   3.648
 2569WAT      O 7948   7.232   1.318   7.308
 2569WAT     H1 7949   7.218   1.232   7.259
 2569WAT     H2 7950   7.194   1.393   7.255
 2570WAT      O 7951   5.015   7.356   8.187
 2570WAT     H1 7952   5.085   7.316   8.247
 2570WAT     H2 7953   4.977   7.284   8.129
 2571WAT      O 7954   9.622   7.524   3.453
 2571WAT     H1 7955   9.648   7.428   3.464
 2571WAT     H2 7956   9.653   7.556   3.363
 2572WAT      O 7957   4.833   4.021   7.930
 2572WAT     H1 7958   4.828   4.092   7.859
 2572WAT     H2 7959   4.890   4.054   8.006
 2573WAT      O 7960   7.157   6.183   0.015
 2573WAT     H1 7961   7.230   6.149  -0.045
 2573WAT     H2 7962   7.092   6.237  -0.040
 2574WAT      O 7963   4.754   4.335   9.468
 2574WAT     H1 7964   4.757   4.243   9.430
 2574WAT     H2 7965   4.776   4.332   9.566
 2575WAT      O 7966   1.529   4.543   4.572
 2575WAT     H1 7967   1.552   4.640   4.586
 2575WAT     H2 7968   1.609   4.487   4.591
 2576WAT      O 7969   7.531   6.063   6.820
 2576WAT     H1 7970   7.469   5.984   6.815
 2576WAT     H2 7971   7.477   6.145   6.837
 2577WAT      O 7972   3.889   1.825   7.777
 2577WAT     H1 7973   3.882   1.736   7.821
 2577WAT     H2 7974   3.948   1.818   7.696
 2578WAT      O 7975   7.344   4.770   4.793
 2578WAT     H1 7976   7.280   4.811   4.858
 2578WAT     H2 7977   7.436   4.804   4.810
 2579WAT      O 7978   6.634   6.010   7.038
 2579WAT     H1 7979   6.618   6.077   6.966
 2579WAT     H2 7980   6.656   6.057   7.124
 2580WAT      O 7981   4.545   2.299   2.592
 2580WAT     H1 7982   4.458   2.249   2.589
 2580WAT     H2 7983   4.606   2.266   2.520
 2581WAT      O 7984   6.789   8.178   4.236
 2581WAT     H1 7985   6.772   8.086   4.273
 2581WAT     H2 7986   6.878   8.211   4.269
 2582WAT      O 7987   6.404   5.107   9.031
 2582WAT     H1 7988   6.323   5.068   8.987
 2582WAT     H2 7989   6.481   5.104   8.966
 2583WAT      O 7990   2.475   6.264   5.183
 2583WAT     H1 7991   2.520   6.349   5.208
 2583WAT     H2 7992   2.537   6.187   5.202
 2584WAT      O 7993   8.153   8.676   5.261
 2584WAT     H1 7994   8.115   8.688   5.353
 2584WAT     H2 7995   8.252   8.689   5.264
 2585WAT      O 7996   7.538   0.804   6.800
 2585WAT     H1 7997   7.556   0.893   6.758
 2585WAT     H2 7998   7.594   0.795   6.882
 2586WAT      O 7999   5.576   1.257   6.750
 2586WAT     H1 8000   5.492   1.244   6.697
 2586WAT     H2 8001   5.651   1.280   6.688
 2587WAT      O 8002   1.814   2.200   3.989
 2587WAT     H1 8003   1.849   2.285   3.950
 2587WAT     H2 8004   1.855   2.186   4.080
 2588WAT      O 8005   6.994   7.672   7.823
 2588WAT     H1 8006   7.043   7.586   7.819
 2588WAT     H2 8007   6.902   7.656   7.858
 2589WAT      O 8008   9.161   4.265   2.478
 2589WAT     H1 8009   9.252   4.304   2.471
 2589WAT     H2 8010   9.163   4.170   2.446
 2590WAT      O 8011   3.565   4.696   0.341
 2590WAT     H1 8012   3.479   4.686   0.391
 2590WAT     H2 8013   3.620   4.613   0.352
 2591WAT      O 8014   7.471   8.373   3.171
 2591WAT     H1 8015   7.523   8.413   3.246
 2591WAT     H2 8016   7.529   8.370   3.089
 2592WAT      O 8017   2.102   4.903   1.213
 2592WAT     H1 8018   2.120   4.852   1.297
 2592WAT     H2 8019   2.025   4.862   1.165
 2593WAT      O 8020   6.781   6.328   7.897
 2593WAT     H1 8021   6.881   6.328   7.889
 2593WAT     H2 8022   6.745   6.243   7.858
 2594WAT      O 8023   9.339   6.968   5.238
 2594WAT     H1 8024   9.434   6.996   5.219
 2594WAT     H2 8025   9.331   6.869   5.229
 2595WAT      O 8026   0.405   5.698   2.129
 2595WAT     H1 8027   0.435   5.619   2.182
 2595WAT     H2 8028   0.477   5.723   2.064
 2596WAT      O 8029   1.864   3.811   7.740
 2596WAT     H1 8030   1.778   3.827   7.787
 2596WAT     H2 8031   1.914   3.897   7.730
 2597WAT      O 8032   5.105   3.619   8.387
 2597WAT     H1 8033   5.099   3.546   8.455
 2597WAT     H2 8034   5.044   3.694   8.412
 2598WAT      O 8035   2.251   6.231   4.439
 2598WAT     H1 8036   2.321   6.162   4.421
 2598WAT     H2 8037   2.294   6.322   4.442
 2599WAT      O 8038   0.583   3.243   7.369
 2599WAT     H1 8039   0.492   3.205   7.351
 2599WAT     H2 8040   0.581   3.342   7.351
 2600WAT      O 8041   0.358   7.706   8.268
 2600WAT     H1 8042   0.315   7.617   8.263
 2600WAT     H2 8043   0.351   7.741   8.362
 2601WAT      O 8044   7.381   3.039   7.936
 2601WAT     H1 8045   7.388   3.050   8.035
 2601WAT     H2 8046   7.337   3.119   7.896
 2602WAT      O 8047   2.659   2.040   3.601
 2602WAT     H1 8048   2.702   1.957   3.636
 2602WAT     H2 8049   2.566   2.047   3.638
 2603WAT      O 8050   2.688   7.999   3.180
 2603WAT     H1 8051   2.682   8.093   3.147
 2603WAT     H2 8052   2.614   7.982   3.245
 2604WAT      O 8053   7.678   8.147   9.209
 2604WAT     H1 8054   7.618   8.105   9.276
 2604WAT     H2 8055   7.636   8.144   9.119
 2605WAT      O 8056   6.911   3.726   7.287
 2605WAT     H1 8057   7.001   3.724   7.330
 2605WAT     H2 8058   6.845   3.680   7.346
 2606WAT      O 8059   4.506   6.180   9.061
 2606WAT     H1 8060   4.424   6.151   9.012
 2606WAT     H2 8061   4.540   6.104   9.116
 2607WAT      O 8062   3.722   8.576   9.166
 2607WAT     H1 8063   3.666   8.625   9.232
 2607WAT     H2 8064   3.817   8.609   9.171
 2608WAT      O 8065   0.771   3.211   3.504
 2608WAT     H1 8066   0.781   3.297   3.554
 2608WAT     H2 8067   0.731   3.142   3.564
 2609WAT      O 8068   7.075   3.480   1.335
 2609WAT     H1 8069   7.153   3.444   1.387
 2609WAT     H2 8070   7.012   3.526   1.397
 2610WAT      O 8071   5.462   7.866   7.499
 2610WAT     H1 8072   5.378   7.818   7.474
 2610WAT     H2 8073   5.501   7.826   7.583
 2611WAT      O 8074   1.889   3.957   7.395
 2611WAT     H1 8075   1.883   4.017   7.475
 2611WAT     H2 8076   1.872   4.009   7.312
 2612WAT      O 8077   6.795   0.875   2.368
 2612WAT     H1 8078   6.737   0.952   2.395
 2612WAT     H2 8079   6.886   0.886   2.408
 2613WAT      O 8080   6.616   8.570   9.061
 2613WAT     H1 8081   6.617   8.614   8.971
 2613WAT     H2 8082   6.536   8.599   9.113
 2614WAT      O 8083   8.237   4.039   0.877
 2614WAT     H1 8084   8.150   4.026   0.923
 2614WAT     H2 8085   8.221   4.051   0.779
 2615WAT      O 8086   4.734   6.491   0.230
 2615WAT     H1 8087   4.732   6.509   0.328
 2615WAT     H2 8088   4.682   6.561   0.182
 2616WAT      O 8089   5.463   0.023   9.832
 2616WAT     H1 8090   5.462  -0.068   9.789
 2616WAT     H2 8091   5.418   0.088   9.772
 2617WAT      O 8092   1.108   2.707   8.349
 2617WAT     H1 8093   1.150   2.619   8.373
 2617WAT     H2 8094   1.128   2.729   8.254
 2618WAT      O 8095   4.665   7.832   6.127
 2618WAT     H1 8096   4.649   7.876   6.039
 2618WAT     H2 8097   4.578   7.808   6.169
 2619WAT      O 8098   9.731   5.054   2.838
 2619WAT     H1 8099   9.765   4.991   2.768
 2619WAT     H2 8100   9.721   5.006   2.925
 2620WAT      O 8101   3.504   9.205   0.336
 2620WAT     H1 8102   3.591   9.249   0.315
 2620WAT     H2 8103   3.478   9.145   0.260
 2621WAT      O 8104   0.156   4.061   3.007
 2621WAT     H1 8105   0.211   4.121   2.948
 2621WAT     H2 8106   0.104   3.997   2.950
 2622WAT      O 8107   4.832   5.624   7.161
 2622WAT     H1 8108   4.754   5.685   7.174
 2622WAT     H2 8109   4.910   5.676   7.126
 2623WAT      O 8110   8.164   9.496   8.549
 2623WAT     H1 8111   8.146   9.433   8.474
 2623WAT     H2 8112   8.147   9.589   8.519
 2624WAT      O 8113   9.378   5.486   3.983
 2624WAT     H1 8114   9.301   5.470   4.045
 2624WAT     H2 8115   9.419   5.398   3.957
 2625WAT      O 8116   3.990   9.735   6.643
 2625WAT     H1 8117   3.909   9.774   6.600
 2625WAT     H2 8118   4.067   9.740   6.579
 2626WAT      O 8119   0.217   4.546   8.237
 2626WAT     H1 8120   0.268   4.465   8.209
 2626WAT     H2 8121   0.123   4.520   8.259
 2627WAT      O 8122   0.438   8.818   9.492
 2627WAT     H1 8123   0.491   8.772   9.421
 2627WAT     H2 8124   0.364   8.870   9.450
 2628WAT      O 8125   3.230   2.179   4.179
 2628WAT     H1 8126   3.167   2.187   4.257
 2628WAT     H2 8127   3.197   2.108   4.117
 2629WAT      O 8128   4.831   7.493   1.899
 2629WAT     H1 8129   4.775   7.489   1.817
 2629WAT     H2 8130   4.796   7.429   1.968
 2630WAT      O 8131   4.343   1.196   9.127
 2630WAT     H1 8132   4.250   1.158   9.127
 2630WAT     H2 8133   4.346   1.276   9.067
 2631WAT      O 8134   6.572   0.578   1.389
 2631WAT     H1 8135   6.533   0.493   1.354
 2631WAT     H2 8136   6.646   0.608   1.329
 2632WAT      O 8137   2.976   3.549   6.105
 2632WAT     H1 8138   2.932   3.616   6.165
 2632WAT     H2 8139   2.934   3.553   6.015
 2633WAT      O 8140   0.999   9.435   7.519
 2633WAT     H1 8141   1.035   9.422   7.427
 2633WAT     H2 8142   1.054   9.503   7.568
 2634WAT      O 8143   4.108   4.085   0.344
 2634WAT     H1 8144   4.165   4.009   0.315
 2634WAT     H2 8145   4.126   4.165   0.287
 2635WAT      O 8146   2.205   5.702   0.338
 2635WAT     H1 8147   2.251   5.666   0.256
 2635WAT     H2 8148   2.116   5.658   0.349
 2636WAT      O 8149   1.734   5.403   9.012
 2636WAT     H1 8150   1.734   5.502   8.997
 2636WAT     H2 8151   1.695   5.358   8.931
 2637WAT      O 8152   8.305   6.648   4.703
 2637WAT     H1 8153   8.340   6.738   4.678
 2637WAT     H2 8154   8.267   6.603   4.622
 2638WAT      O 8155   4.440   0.622   8.126
 2638WAT     H1 8156   4.409   0.673   8.046
 2638WAT     H2 8157   4.362   0.583   8.173
 2639WAT      O 8158   2.315   2.467   7.645
 2639WAT     H1 8159   2.390   2.532   7.662
 2639WAT     H2 8160   2.240   2.487   7.707
 2640WAT      O 8161   0.997   8.044   2.550
 2640WAT     H1 8162   0.923   8.018   2.488
 2640WAT     H2 8163   0.959   8.087   2.632
 2641WAT      O 8164   0.941   1.813   5.264
 2641WAT     H1 8165   1.022   1.840   5.317
 2641WAT     H2 8166   0.919   1.718   5.283
 2642WAT      O 8167   3.307   2.891   4.126
 2642WAT     H1 8168   3.331   2.978   4.083
 2642WAT     H2 8169   3.323   2.816   4.061
 2643WAT      O 8170   0.901   6.197   1.092
 2643WAT     H1 8171   0.986   6.154   1.062
 2643WAT     H2 8172   0.913   6.296   1.093
 2644WAT      O 8173   0.380   7.643   4.504
 2644WAT     H1 8174   0.468   7.690   4.492
 2644WAT     H2 8175   0.306   7.711   4.504
 2645WAT      O 8176   1.937   9.684   4.175
 2645WAT     H1 8177   1.946   9.681   4.275
 2645WAT     H2 8178   1.907   9.594   4.142
 2646WAT      O 8179   3.952   4.262   2.269
 2646WAT     H1 8180   4.044   4.253   2.308
 2646WAT     H2 8181   3.911   4.348   2.300
 2647WAT      O 8182   6.596   0.114   7.588
 2647WAT     H1 8183   6.578   0.117   7.490
 2647WAT     H2 8184   6.693   0.131   7.604
 2648WAT      O 8185   5.909   2.300   8.593
 2648WAT     H1 8186   5.994   2.333   8.552
 2648WAT     H2 8187   5.929   2.226   8.657
 2649WAT      O 8188   8.684   4.564   0.392
 2649WAT     H1 8189   8.743   4.512   0.454
 2649WAT     H2 8190   8.718   4.658   0.385
 2650WAT      O 8191   2.223   4.735   3.393
 2650WAT     H1 8192   2.203   4.804   3.463
 2650WAT     H2 8193   2.137   4.694   3.362
 2651WAT      O 8194   7.733   6.975   5.068
 2651WAT     H1 8195   7.667   7.029   5.016
 2651WAT     H2 8196   7.695   6.955   5.159
 2652WAT      O 8197   1.679   6.796   3.532
 2652WAT     H1 8198   1.686   6.890   3.499
 2652WAT     H2 8199   1.654   6.736   3.456
 2653WAT      O 8200   6.338   2.120   8.607
 2653WAT     H1 8201   6.241   2.097   8.598
 2653WAT     H2 8202   6.366   2.111   8.702
 2654WAT      O 8203   3.939   6.960   9.852
 2654WAT     H1 8204   4.000   6.884   9.830
 2654WAT     H2 8205   3.849   6.924   9.877
 2655WAT      O 8206   8.963   3.347   6.817
 2655WAT     H1 8207   8.914   3.342   6.730
 2655WAT     H2 8208   8.900   3.322   6.891
 2656WAT      O 8209   0.707   9.772   5.479
 2656WAT     H1 8210   0.653   9.813   5.406
 2656WAT     H2 8211   0.646   9.720   5.540
 2657WAT      O 8212   0.294   6.172   4.198
 2657WAT     H1 8213   0.231   6.103   4.162
 2657WAT     H2 8214   0.371   6.184   4.136
 2658WAT      O 8215   1.040   9.784   8.073
 2658WAT     H1 8216   1.058   9.721   7.998
 2658WAT     H2 8217   1.066   9.742   8.160
 2659WAT      O 8218   4.910   6.481   8.829
 2659WAT     H1 8219   4.862   6.416   8.888
 2659WAT     H2 8220   5.008   6.478   8.849
 2660WAT      O 8221   6.367   9.783   3.962
 2660WAT     H1 8222   6.400   9.697   3.922
 2660WAT     H2 8223   6.269   9.793   3.944
 2661WAT      O 8224   4.444   0.826   9.714
 2661WAT     H1 8225   4.432   0.920   9.747
 2661WAT     H2 8226   4.540   0.800   9.721
 2662WAT      O 8227   4.611   0.221   7.639
 2662WAT     H1 8228   4.636   0.269   7.723
 2662WAT     H2 8229   4.623   0.123   7.651
 2663WAT      O 8230   8.308   6.256   1.800
 2663WAT     H1 8231   8.236   6.187   1.789
 2663WAT     H2 8232   8.318   6.308   1.716
 2664WAT      O 8233   3.179   8.353   8.219
 2664WAT     H1 8234   3.259   8.407   8.193
 2664WAT     H2 8235   3.105   8.369   8.153
 2665WAT      O 8236   9.694   5.320   4.292
 2665WAT     H1 8237   9.679   5.356   4.384
 2665WAT     H2 8238   9.639   5.237   4.280
 2666WAT      O 8239   4.407   7.256   9.017
 2666WAT     H1 8240   4.431   7.257   8.920
 2666WAT     H2 8241   4.331   7.192   9.032
 2667WAT      O 8242   8.363   0.384   8.920
 2667WAT     H1 8243   8.382   0.438   9.002
 2667WAT     H2 8244   8.342   0.290   8.946
 2668WAT      O 8245   3.979   1.195   8.564
 2668WAT     H1 8246   3.912   1.122   8.556
 2668WAT     H2 8247   3.955   1.256   8.640
 2669WAT      O 8248   1.885   1.369   5.306
 2669WAT     H1 8249   1.797   1.338   5.341
 2669WAT     H2 8250   1.955   1.357   5.376
 2670WAT      O 8251   9.754   6.634   1.528
 2670WAT     H1 8252   9.671   6.609   1.478
 2670WAT     H2 8253   9.832   6.629   1.465
 2671WAT      O 8254   2.249   7.113   7.020
 2671WAT     H1 8255   2.268   7.109   6.922
 2671WAT     H2 8256   2.220   7.023   7.052
 2672WAT      O 8257   2.348   3.987   3.928
 2672WAT     H1 8258   2.345   4.003   3.830
 2672WAT     H2 8259   2.257   3.965   3.962
 2673WAT      O 8260   3.053   3.309   6.349
 2673WAT     H1 8261   2.991   3.234   6.371
 2673WAT     H2 8262   3.015   3.395   6.383
 2674WAT      O 8263   5.718   4.580   8.658
 2674WAT     H1 8264   5.721   4.607   8.562
 2674WAT     H2 8265   5.705   4.661   8.715
 2675WAT      O 8266   4.882   3.366   5.084
 2675WAT     H1 8267   4.894   3.272   5.115
 2675WAT     H2 8268   4.789   3.395   5.103
 2676WAT      O 8269   7.345   4.013   3.705
 2676WAT     H1 8270   7.267   3.958   3.676
 2676WAT     H2 8271   7.312   4.097   3.749
 2677WAT      O 8272   1.284   6.201   7.947
 2677WAT     H1 8273   1.355   6.150   7.898
 2677WAT     H2 8274   1.260   6.283   7.895
 2678WAT      O 8275   8.969   1.157   2.348
 2678WAT     H1 8276   8.937   1.070   2.385
 2678WAT     H2 8277   9.011   1.141   2.258
 2679WAT      O 8278   9.038   3.821   1.877
 2679WAT     H1 8279   8.996   3.836   1.967
 2679WAT     H2 8280   9.112   3.886   1.863
 2680WAT      O 8281   7.113   9.205   3.601
 2680WAT     H1 8282   7.139   9.200   3.698
 2680WAT     H2 8283   7.107   9.300   3.573
 2681WAT      O 8284   4.331   4.380   8.048
 2681WAT     H1 8285   4.270   4.310   8.010
 2681WAT     H2 8286   4.405   4.336   8.099
 2682WAT      O 8287   5.339   7.824   3.716
 2682WAT     H1 8288   5.341   7.924   3.720
 2682WAT     H2 8289   5.331   7.795   3.620
 2683WAT      O 8290   3.045   3.458   3.079
 2683WAT     H1 8291   3.090   3.546   3.098
 2683WAT     H2 8292   3.007   3.460   2.987
 2684WAT      O 8293   1.077   0.780   0.901
 2684WAT     H1 8294   0.981   0.806   0.893
 2684WAT     H2 8295   1.086   0.707   0.969
 2685WAT      O 8296   8.205   6.593   5.378
 2685WAT     H1 8297   8.170   6.533   5.449
 2685WAT     H2 8298   8.301   6.614   5.395
 2686WAT      O 8299   2.668   9.218   0.872
 2686WAT     H1 8300   2.662   9.317   0.859
 2686WAT     H2 8301   2.612   9.171   0.804
 2687WAT      O 8302   1.347   9.331   1.099
 2687WAT     H1 8303   1.401   9.406   1.137
 2687WAT     H2 8304   1.406   9.251   1.086
 2688WAT      O 8305   4.075   6.584   6.281
 2688WAT     H1 8306   4.021   6.572   6.365
 2688WAT     H2 8307   4.045   6.667   6.234
 2689WAT      O 8308   2.946   5.661   4.553
 2689WAT     H1 8309   2.888   5.726   4.505
 2689WAT     H2 8310   3.031   5.705   4.581
 2690WAT      O 8311   0.368   3.315   1.665
 2690WAT     H1 8312   0.389   3.284   1.758
 2690WAT     H2 8313   0.296   3.258   1.626
 2691WAT      O 8314   1.199   0.959   2.376
 2691WAT     H1 8315   1.129   0.888   2.387
 2691WAT     H2 8316   1.155   1.049   2.369
 2692WAT      O 8317   2.453   7.993   5.651
 2692WAT     H1 8318   2.472   7.935   5.731
 2692WAT     H2 8319   2.533   7.994   5.591
 2693WAT      O 8320   9.281   7.978   5.392
 2693WAT     H1 8321   9.316   8.062   5.351
 2693WAT     H2 8322   9.266   7.992   5.490
 2694WAT      O 8323   2.776   0.667   5.534
 2694WAT     H1 8324   2.679   0.650   5.514
 2694WAT     H2 8325   2.797   0.763   5.519
 2695WAT      O 8326   2.335   3.017   2.985
 2695WAT     H1 8327   2.416   2.968   2.952
 2695WAT     H2 8328   2.303   2.975   3.069
 2696WAT      O 8329   2.246   4.017   1.663
 2696WAT     H1 8330   2.219   3.937   1.717
 2696WAT     H2 8331   2.199   4.015   1.575
 2697WAT      O 8332   8.813   2.509   7.687
 2697WAT     H1 8333   8.792   2.456   7.604
 2697WAT     H2 8334   8.873   2.586   7.663
 2698WAT      O 8335   1.679   0.333   1.569
 2698WAT     H1 8336   1.638   0.399   1.632
 2698WAT     H2 8337   1.685   0.244   1.614
 2699WAT      O 8338   7.682   3.420   0.585
 2699WAT     H1 8339   7.639   3.446   0.672
 2699WAT     H2 8340   7.664   3.491   0.516
 2700WAT      O 8341   5.780   7.117   3.571
 2700WAT     H1 8342   5.757   7.026   3.603
 2700WAT     H2 8343   5.798   7.114   3.472
 2701WAT      O 8344   5.379   0.838   9.434
 2701WAT     H1 8345   5.367   0.816   9.338
 2701WAT     H2 8346   5.293   0.821   9.483
 2702WAT      O 8347   3.535   1.645   5.808
 2702WAT     H1 8348   3.624   1.601   5.820
 2702WAT     H2 8349   3.489   1.652   5.897
 2703WAT      O 8350   2.713   8.818   2.319
 2703WAT     H1 8351   2.647   8.890   2.339
 2703WAT     H2 8352   2.671   8.729   2.338
 2704WAT      O 8353   4.107   9.614   3.985
 2704WAT     H1 8354   4.066   9.696   4.023
 2704WAT     H2 8355   4.068   9.594   3.895
 2705WAT      O 8356   3.750   7.140   1.778
 2705WAT     H1 8357   3.668   7.135   1.836
 2705WAT     H2 8358   3.723   7.159   1.684
 2706WAT      O 8359   1.217   4.524   4.347
 2706WAT     H1 8360   1.225   4.499   4.444
 2706WAT     H2 8361   1.308   4.528   4.306
 2707WAT      O 8362   1.993   8.895   0.884
 2707WAT     H1 8363   2.029   8.989   0.888
 2707WAT     H2 8364   1.945   8.875   0.970
 2708WAT      O 8365   2.921   8.572   3.281
 2708WAT     H1 8366   2.830   8.613   3.291
 2708WAT     H2 8367   2.985   8.642   3.247
 2709WAT      O 8368   0.820   4.251   3.001
 2709WAT     H1 8369   0.891   4.201   2.951
 2709WAT     H2 8370   0.821   4.223   3.097
 2710WAT      O 8371   0.314   2.421   7.892
 2710WAT     H1 8372   0.392   2.421   7.955
 2710WAT     H2 8373   0.325   2.347   7.826
 2711WAT      O 8374   3.476   7.948   7.059
 2711WAT     H1 8375   3.468   7.991   7.149
 2711WAT     H2 8376   3.387   7.951   7.013
 2712WAT      O 8377   9.759   2.841   7.053
 2712WAT     H1 8378   9.723   2.747   7.055
 2712WAT     H2 8379   9.689   2.902   7.016
 2713WAT      O 8380   0.564   5.639   2.501
 2713WAT     H1 8381   0.512   5.584   2.436
 2713WAT     H2 8382   0.659   5.608   2.503
 2714WAT      O 8383   9.622   6.937   6.092
 2714WAT     H1 8384   9.578   7.025   6.074
 2714WAT     H2 8385   9.619   6.881   6.009
 2715WAT      O 8386   9.250   5.672   4.781
 2715WAT     H1 8387   9.165   5.619   4.785
 2715WAT     H2 8388   9.283   5.674   4.686
 2716WAT      O 8389   5.468   2.948   1.987
 2716WAT     H1 8390   5.501   2.854   1.980
 2716WAT     H2 8391   5.517   3.006   1.923
 2717WAT      O 8392   3.144   5.638   2.548
 2717WAT     H1 8393   3.240   5.641   2.578
 2717WAT     H2 8394   3.100   5.558   2.588
 2718WAT      O 8395   5.881   0.013   0.468
 2718WAT     H1 8396   5.957   0.079   0.468
 2718WAT     H2 8397   5.888  -0.045   0.386
 2719WAT      O 8398   0.595   1.613   4.429
 2719WAT     H1 8399   0.600   1.530   4.374
 2719WAT     H2 8400   0.686   1.637   4.463
 2720WAT      O 8401   0.050   5.332   5.150
 2720WAT     H1 8402   0.100   5.412   5.183
 2720WAT     H2 8403   0.108   5.279   5.089
 2721WAT      O 8404   1.451   1.808   9.731
 2721WAT     H1 8405   1.463   1.754   9.647
 2721WAT     H2 8406   1.511   1.888   9.727
 2722WAT      O 8407   1.527   7.475   6.148
 2722WAT     H1 8408   1.582   7.406   6.196
 2722WAT     H2 8409   1.466   7.519   6.214
 2723WAT      O 8410   4.550   9.564   4.979
 2723WAT     H1 8411   4.538   9.467   5.000
 2723WAT     H2 8412   4.488   9.590   4.905
 2724WAT      O 8413   4.380   5.180   3.434
 2724WAT     H1 8414   4.396   5.083   3.412
 2724WAT     H2 8415   4.383   5.192   3.533
 2725WAT      O 8416   2.501   7.812   2.228
 2725WAT     H1 8417   2.569   7.843   2.295
 2725WAT     H2 8418   2.420   7.870   2.234
 2726WAT      O 8419   4.299   9.011   4.057
 2726WAT     H1 8420   4.315   8.926   4.107
 2726WAT     H2 8421   4.201   9.019   4.035
 2727WAT      O 8422   3.248   3.408   3.477
 2727WAT     H1 8423   3.152   3.380   3.487
 2727WAT     H2 8424   3.254   3.481   3.409
 2728WAT      O 8425   5.525   3.554   3.971
 2728WAT     H1 8426   5.438   3.570   4.018
 2728WAT     H2 8427   5.526   3.461   3.933
 2729WAT      O 8428   7.803   9.019   3.432
 2729WAT     H1 8429   7.883   9.079   3.437
 2729WAT     H2 8430   7.830   8.925   3.455
 2730WAT      O 8431   4.243   2.280   7.038
 2730WAT     H1 8432   4.265   2.190   7.075
 2730WAT     H2 8433   4.313   2.346   7.067
 2731WAT      O 8434   2.972   0.869   2.329
 2731WAT     H1 8435   2.921   0.934   2.386
 2731WAT     H2 8436   2.912   0.830   2.260
 2732WAT      O 8437   6.295   3.228   3.740
 2732WAT     H1 8438   6.273   3.202   3.646
 2732WAT     H2 8439   6.349   3.156   3.783
 2733WAT      O 8440   6.293   4.064   5.868
 2733WAT     H1 8441   6.279   3.979   5.919
 2733WAT     H2 8442   6.313   4.042   5.772
 2734WAT      O 8443   8.983   3.974   3.514
 2734WAT     H1 8444   9.013   4.061   3.476
 2734WAT     H2 8445   8.883   3.970   3.513
 2735WAT      O 8446   4.316   6.115   5.564
 2735WAT     H1 8447   4.318   6.210   5.532
 2735WAT     H2 8448   4.306   6.113   5.663
 2736WAT      O 8449   7.191   8.641   9.703
 2736WAT     H1 8450   7.164   8.555   9.660
 2736WAT     H2 8451   7.124   8.712   9.681
 2737WAT      O 8452   5.408   1.635   5.310
 2737WAT     H1 8453   5.401   1.549   5.362
 2737WAT     H2 8454   5.489   1.631   5.251
 2738WAT      O 8455   3.386   9.243   9.359
 2738WAT     H1 8456   3.287   9.246   9.364
 2738WAT     H2 8457   3.425   9.316   9.415
 2739WAT      O 8458   4.247   8.467   8.745
 2739WAT     H1 8459   4.204   8.516   8.821
 2739WAT     H2 8460   4.227   8.514   8.659
 2740WAT      O 8461   0.664   6.722   1.191
 2740WAT     H1 8462   0.611   6.713   1.275
 2740WAT     H2 8463   0.724   6.802   1.197
 2741WAT      O 8464   5.553   9.054   2.598
 2741WAT     H1 8465   5.460   9.090   2.604
 2741WAT     H2 8466   5.618   9.130   2.599
 2742WAT      O 8467   0.141   9.408   3.314
 2742WAT     H1 8468   0.122   9.431   3.218
 2742WAT     H2 8469   0.191   9.321   3.318
 2743WAT      O 8470   2.129   5.880   5.716
 2743WAT     H1 8471   2.193   5.804   5.715
 2743WAT     H2 8472   2.161   5.951   5.653
 2744WAT      O 8473   3.456   2.007   8.354
 2744WAT     H1 8474   3.502   1.941   8.295
 2744WAT     H2 8475   3.504   2.012   8.441
 2745WAT      O 8476   5.310   0.035   7.201
 2745WAT     H1 8477   5.370  -0.045   7.206
 2745WAT     H2 8478   5.281   0.049   7.107
 2746WAT      O 8479   6.408   6.881   2.781
 2746WAT     H1 8480   6.480   6.921   2.723
 2746WAT     H2 8481   6.366   6.953   2.836
 2747WAT      O 8482   8.001   6.230   4.137
 2747WAT     H1 8483   7.934   6.198   4.204
 2747WAT     H2 8484   7.980   6.191   4.047
 2748WAT      O 8485   1.997   5.322   6.381
 2748WAT     H1 8486   1.996   5.227   6.348
 2748WAT     H2 8487   2.089   5.345   6.410
 2749WAT      O 8488   3.455   0.475   7.289
 2749WAT     H1 8489   3.453   0.458   7.191
 2749WAT     H2 8490   3.512   0.405   7.333
 2750WAT      O 8491   1.928   0.413   8.338
 2750WAT     H1 8492   1.838   0.456   8.338
 2750WAT     H2 8493   1.929   0.338   8.404
 2751WAT      O 8494   5.311   7.956   8.901
 2751WAT     H1 8495   5.396   8.006   8.887
 2751WAT     H2 8496   5.332   7.861   8.927
 2752WAT      O 8497   1.619   8.859   8.406
 2752WAT     H1 8498   1.557   8.782   8.388
 2752WAT     H2 8499   1.569   8.934   8.449
 2753WAT      O 8500   4.135   3.510   9.316
 2753WAT     H1 8501   4.187   3.435   9.357
 2753WAT     H2 8502   4.076   3.550   9.386
 2754WAT      O 8503   6.373   2.830   3.331
 2754WAT     H1 8504   6.320   2.911   3.307
 2754WAT     H2 8505   6.413   2.790   3.248
 2755WAT      O 8506   5.757   4.275   5.752
 2755WAT     H1 8507   5.765   4.350   5.818
 2755WAT     H2 8508   5.843   4.224   5.749
 2756WAT      O 8509   3.385   8.973   4.092
 2756WAT     H1 8510   3.458   8.996   4.156
 2756WAT     H2 8511   3.330   8.898   4.129
 2757WAT      O 8512   4.282   7.427   4.169
 2757WAT     H1 8513   4.378   7.400   4.166
 2757WAT     H2 8514   4.275   7.526   4.181
 2758WAT      O 8515   5.283   3.775   2.819
 2758WAT     H1 8516   5.205   3.802   2.762
 2758WAT     H2 8517   5.258   3.696   2.875
 2759WAT      O 8518   4.252   9.699   6.163
 2759WAT     H1 8519   4.152   9.695   6.165
 2759WAT     H2 8520   4.289   9.612   6.197
 2760WAT      O 8521   2.980   1.306   5.651
 2760WAT     H1 8522   2.922   1.291   5.571
 2760WAT     H2 8523   3.022   1.397   5.645
 2761WAT      O 8524   6.921   8.329   8.472
 2761WAT     H1 8525   6.933   8.289   8.563
 2761WAT     H2 8526   6.892   8.258   8.408
 2762WAT      O 8527   4.358   8.868   6.804
 2762WAT     H1 8528   4.385   8.807   6.878
 2762WAT     H2 8529   4.308   8.946   6.842
 2763WAT      O 8530   2.594   7.495   6.751
 2763WAT     H1 8531   2.593   7.569   6.684
 2763WAT     H2 8532   2.629   7.412   6.708
 2764WAT      O 8533   8.945   4.775   7.080
 2764WAT     H1 8534   8.938   4.834   7.161
 2764WAT     H2 8535   8.968   4.682   7.109
 2765WAT      O 8536   1.825   6.902   6.191
 2765WAT     H1 8537   1.844   6.819   6.138
 2765WAT     H2 8538   1.749   6.952   6.149
 2766WAT      O 8539   8.910   5.505   0.943
 2766WAT     H1 8540   8.886   5.586   0.889
 2766WAT     H2 8541   8.954   5.438   0.883
 2767WAT      O 8542   8.056   4.464   6.454
 2767WAT     H1 8543   8.049   4.563   6.445
 2767WAT     H2 8544   8.025   4.436   6.545
 2768WAT      O 8545   5.434   8.970   3.033
 2768WAT     H1 8546   5.509   8.914   2.999
 2768WAT     H2 8547   5.437   9.060   2.991
 2769WAT      O 8548   6.604   3.600   7.973
 2769WAT     H1 8549   6.581   3.522   8.032
 2769WAT     H2 8550   6.525   3.624   7.917
 2770WAT      O 8551   0.222   2.919   1.847
 2770WAT     H1 8552   0.188   2.930   1.941
 2770WAT     H2 8553   0.259   3.006   1.815
 2771WAT      O 8554   6.975   8.961   8.234
 2771WAT     H1 8555   7.012   9.051   8.211
 2771WAT     H2 8556   7.051   8.899   8.255
 2772WAT      O 8557   6.941   7.877   7.040
 2772WAT     H1 8558   6.949   7.953   6.975
 2772WAT     H2 8559   6.845   7.867   7.068
 2773WAT      O 8560   6.886   7.024   4.423
 2773WAT     H1 8561   6.913   6.928   4.414
 2773WAT     H2 8562   6.940   7.067   4.495
 2774WAT      O 8563   9.814   8.465   6.663
 2774WAT     H1 8564   9.906   8.450   6.700
 2774WAT     H2 8565   9.760   8.382   6.673
 2775WAT      O 8566   1.001   3.323   3.328
 2775WAT     H1 8567   0.948   3.395   3.283
 2775WAT     H2 8568   0.944   3.241   3.337
 2776WAT      O 8569   9.585   1.018   3.637
 2776WAT     H1 8570   9.506   0.958   3.634
 2776WAT     H2 8571   9.669   0.963   3.640
 2777WAT      O 8572   6.610   5.455   1.612
 2777WAT     H1 8573   6.622   5.489   1.705
 2777WAT     H2 8574   6.561   5.523   1.558
 2778WAT      O 8575   0.619   8.467   8.898
 2778WAT     H1 8576   0.572   8.382   8.880
 2778WAT     H2 8577   0.698   8.450   8.957
 2779WAT      O 8578   7.815   3.781   0.663
 2779WAT     H1 8579   7.889   3.753   0.602
 2779WAT     H2 8580   7.745   3.829   0.611
 2780WAT      O 8581   8.766   4.053   9.158
 2780WAT     H1 8582   8.783   3.962   9.121
 2780WAT     H2 8583   8.839   4.115   9.129
 2781WAT      O 8584   3.484   2.854   8.915
 2781WAT     H1 8585   3.583   2.852   8.900
 2781WAT     H2 8586   3.459   2.784   8.981
 2782WAT      O 8587   7.465   0.519   8.652
 2782WAT     H1 8588   7.389   0.512   8.716
 2782WAT     H2 8589   7.456   0.448   8.582
 2783WAT      O 8590   2.074   2.759   5.804
 2783WAT     H1 8591   2.132   2.712   5.738
 2783WAT     H2 8592   1.997   2.802   5.757
 2784WAT      O 8593   6.330   5.468   3.230
 2784WAT     H1 8594   6.326   5.468   3.330
 2784WAT     H2 8595   6.390   5.394   3.200
 2785WAT      O 8596   6.477   3.421   7.212
 2785WAT     H1 8597   6.508   3.382   7.299
 2785WAT     H2 8598   6.527   3.506   7.194
 2786WAT      O 8599   5.739   7.130   4.006
 2786WAT     H1 8600   5.816   7.141   3.943
 2786WAT     H2 8601   5.659   7.176   3.968
 2787WAT      O 8602   4.449   8.700   7.576
 2787WAT     H1 8603   4.480   8.790   7.547
 2787WAT     H2 8604   4.373   8.670   7.518
 2788WAT      O 8605   9.204   7.197   1.275
 2788WAT     H1 8606   9.244   7.143   1.202
 2788WAT     H2 8607   9.270   7.209   1.349
 2789WAT      O 8608   0.159   1.178   4.253
 2789WAT     H1 8609   0.203   1.257   4.295
 2789WAT     H2 8610   0.189   1.095   4.300
 2790WAT      O 8611   2.636   7.475   4.000
 2790WAT     H1 8612   2.562   7.541   4.009
 2790WAT     H2 8613   2.598   7.386   3.972
 2791WAT      O 8614   2.839   4.853   2.452
 2791WAT     H1 8615   2.915   4.845   2.387
 2791WAT     H2 8616   2.870   4.820   2.542
 2792WAT      O 8617   5.980   1.685   2.659
 2792WAT     H1 8618   5.985   1.780   2.628
 2792WAT     H2 8619   5.910   1.637   2.607
 2793WAT      O 8620   8.521   2.491   1.989
 2793WAT     H1 8621   8.450   2.532   1.931
 2793WAT     H2 8622   8.609   2.535   1.970
 2794WAT      O 8623   8.223   0.671   0.941
 2794WAT     H1 8624   8.269   0.757   0.962
 2794WAT     H2 8625   8.246   0.643   0.847
 2795WAT      O 8626   9.635   3.775   9.199
 2795WAT     H1 8627   9.698   3.709   9.240
 2795WAT     H2 8628   9.585   3.823   9.271
 2796WAT      O 8629   4.051   8.912   3.939
 2796WAT     H1 8630   3.976   8.942   3.879
 2796WAT     H2 8631   4.026   8.827   3.984
 2797WAT      O 8632   0.291   4.158   8.064
 2797WAT     H1 8633   0.224   4.103   8.113
 2797WAT     H2 8634   0.374   4.168   8.119
 2798WAT      O 8635   0.587   4.497   4.133
 2798WAT     H1 8636   0.572   4.570   4.067
 2798WAT     H2 8637   0.636   4.534   4.213
 2799WAT      O 8638   1.876   8.114   4.232
 2799WAT     H1 8639   1.851   8.186   4.167
 2799WAT     H2 8640   1.940   8.051   4.189
 2800WAT      O 8641   6.755   0.613   7.798
 2800WAT     H1 8642   6.739   0.646   7.891
 2800WAT     H2 8643   6.669   0.583   7.757
 2801WAT      O 8644   4.434   5.687   3.334
 2801WAT     H1 8645   4.335   5.700   3.338
 2801WAT     H2 8646   4.454   5.589   3.330
 2802WAT      O 8647   6.753   8.685   4.210
 2802WAT     H1 8648   6.706   8.758   4.261
 2802WAT     H2 8649   6.694   8.605   4.206
 2803WAT      O 8650   9.065   1.190   5.521
 2803WAT     H1 8651   9.131   1.220   5.590
 2803WAT     H2 8652   9.048   1.092   5.531
 2804WAT      O 8653   0.386   3.982   1.859
 2804WAT     H1 8654   0.380   3.886   1.887
 2804WAT     H2 8655   0.414   3.987   1.763
 2805WAT      O 8656   8.905   0.526   1.104
 2805WAT     H1 8657   8.862   0.604   1.149
 2805WAT     H2 8658   8.975   0.487   1.164
 2806WAT      O 8659   9.282   2.094   1.127
 2806WAT     H1 8660   9.359   2.134   1.078
 2806WAT     H2 8661   9.302   2.092   1.225
 2807WAT      O 8662   9.295   4.508   7.987
 2807WAT     H1 8663   9.344   4.424   8.011
 2807WAT     H2 8664   9.242   4.540   8.065
 2808WAT      O 8665   6.391   7.097   3.396
 2808WAT     H1 8666   6.430   7.013   3.432
 2808WAT     H2 8667   6.332   7.139   3.465
 2809WAT      O 8668   9.530   5.787   8.372
 2809WAT     H1 8669   9.627   5.763   8.381
 2809WAT     H2 8670   9.492   5.743   8.291
 2810WAT      O 8671   4.652   9.776   7.305
 2810WAT     H1 8672   4.609   9.727   7.381
 2810WAT     H2 8673   4.594   9.852   7.277
 2811WAT      O 8674   3.367   2.891   2.456
 2811WAT     H1 8675   3.401   2.831   2.529
 2811WAT     H2 8676   3.426   2.971   2.448
 2812WAT      O 8677   0.567   9.826   7.139
 2812WAT     H1 8678   0.519   9.840   7.052
 2812WAT     H2 8679   0.665   9.840   7.125
 2813WAT      O 8680   3.165   0.108   1.691
 2813WAT     H1 8681   3.155   0.057   1.606
 2813WAT     H2 8682   3.075   0.132   1.727
 2814WAT      O 8683   1.445   2.076   6.728
 2814WAT     H1 8684   1.471   1.980   6.742
 2814WAT     H2 8685   1.429   2.092   6.631
 2815WAT      O 8686   2.313   9.324   6.430
 2815WAT     H1 8687   2.370   9.280   6.498
 2815WAT     H2 8688   2.243   9.380   6.475
 2816WAT      O 8689   8.251   5.664   2.123
 2816WAT     H1 8690   8.208   5.643   2.211
 2816WAT     H2 8691   8.294   5.582   2.087
 2817WAT      O 8692   3.342   1.537   7.101
 2817WAT     H1 8693   3.361   1.634   7.110
 2817WAT     H2 8694   3.425   1.489   7.070
 2818WAT      O 8695   1.305   9.480   8.262
 2818WAT     H1 8696   1.359   9.399   8.283
 2818WAT     H2 8697   1.366   9.554   8.233
 2819WAT      O 8698   4.440   8.756   1.838
 2819WAT     H1 8699   4.448   8.658   1.860
 2819WAT     H2 8700   4.343   8.779   1.826
 2820WAT      O 8701   1.944   2.746   5.043
 2820WAT     H1 8702   2.017   2.738   4.975
 2820WAT     H2 8703   1.935   2.660   5.092
 2821WAT      O 8704   9.231   2.629   9.422
 2821WAT     H1 8705   9.306   2.589   9.476
 2821WAT     H2 8706   9.186   2.699   9.476
 2822WAT      O 8707   3.666   2.091   9.082
 2822WAT     H1 8708   3.613   2.074   8.999
 2822WAT     H2 8709   3.613   2.149   9.145
 2823WAT      O 8710   6.871   5.341   6.918
 2823WAT     H1 8711   6.772   5.351   6.902
 2823WAT     H2 8712   6.902   5.253   6.882
 2824WAT      O 8713   1.387   8.781   1.199
 2824WAT     H1 8714   1.327   8.781   1.118
 2824WAT     H2 8715   1.456   8.710   1.188
 2825WAT      O 8716   4.334   8.591   3.554
 2825WAT     H1 8717   4.386   8.510   3.581
 2825WAT     H2 8718   4.294   8.634   3.635
 2826WAT      O 8719   0.567   7.127   2.588
 2826WAT     H1 8720   0.513   7.044   2.604
 2826WAT     H2 8721   0.533   7.200   2.647
 2827WAT      O 8722   2.406   3.747   1.369
 2827WAT     H1 8723   2.347   3.741   1.289
 2827WAT     H2 8724   2.467   3.826   1.360
 2828WAT      O 8725   8.479   2.476   9.034
 2828WAT     H1 8726   8.569   2.432   9.029
 2828WAT     H2 8727   8.440   2.482   8.942
 2829WAT      O 8728   1.766   1.721   6.451
 2829WAT     H1 8729   1.755   1.753   6.358
 2829WAT     H2 8730   1.779   1.799   6.512
 2830WAT      O 8731   1.492   7.242   3.809
 2830WAT     H1 8732   1.564   7.221   3.875
 2830WAT     H2 8733   1.495   7.340   3.786
 2831WAT      O 8734   2.874   3.689   3.225
 2831WAT     H1 8735   2.776   3.677   3.241
 2831WAT     H2 8736   2.924   3.616   3.272
 2832WAT      O 8737   9.069   6.164   5.089
 2832WAT     H1 8738   9.076   6.184   4.992
 2832WAT     H2 8739   9.121   6.081   5.111
 2833WAT      O 8740   9.855   9.066   2.724
 2833WAT     H1 8741   9.888   8.972   2.719
 2833WAT     H2 8742   9.847   9.105   2.632
 2834WAT      O 8743   1.574   0.155   5.994
 2834WAT     H1 8744   1.536   0.159   5.901
 2834WAT     H2 8745   1.501   0.172   6.060
 2835WAT      O 8746   3.781   9.068   4.552
 2835WAT     H1 8747   3.703   9.008   4.535
 2835WAT     H2 8748   3.768   9.154   4.503
 2836WAT      O 8749   0.110   1.564   0.934
 2836WAT     H1 8750   0.154   1.480   0.965
 2836WAT     H2 8751   0.013   1.546   0.917
 2837WAT      O 8752   6.470   2.786   2.346
 2837WAT     H1 8753   6.399   2.754   2.409
 2837WAT     H2 8754   6.560   2.760   2.382
 2838WAT      O 8755   0.954   9.176   7.564
 2838WAT     H1 8756   0.956   9.276   7.564
 2838WAT     H2 8757   1.048   9.141   7.553
 2839WAT      O 8758   7.285   9.679   7.195
 2839WAT     H1 8759   7.200   9.626   7.198
 2839WAT     H2 8760   7.338   9.652   7.114
 2840WAT      O 8761   9.036   4.133   0.963
 2840WAT     H1 8762   8.963   4.201   0.964
 2840WAT     H2 8763   9.023   4.071   0.886
 2841WAT      O 8764   4.301   6.905   2.426
 2841WAT     H1 8765   4.331   6.821   2.472
 2841WAT     H2 8766   4.345   6.984   2.467
 2842WAT      O 8767   0.160   3.219   8.519
 2842WAT     H1 8768   0.101   3.170   8.455
 2842WAT     H2 8769   0.249   3.236   8.476
 2843WAT      O 8770   0.463   1.862   9.047
 2843WAT     H1 8771   0.511   1.950   9.050
 2843WAT     H2 8772   0.383   1.865   9.107
 2844WAT      O 8773   6.463   3.377   2.112
 2844WAT     H1 8774   6.401   3.417   2.179
 2844WAT     H2 8775   6.540   3.335   2.160
 2845WAT      O 8776   2.444   4.548   1.591
 2845WAT     H1 8777   2.389   4.629   1.610
 2845WAT     H2 8778   2.383   4.469   1.580
 2846WAT      O 8779   3.088   8.473   4.284
 2846WAT     H1 8780   2.993   8.444   4.271
 2846WAT     H2 8781   3.139   8.460   4.199
 2847WAT      O 8782   4.823   0.882   8.109
 2847WAT     H1 8783   4.766   0.854   8.187
 2847WAT     H2 8784   4.828   0.807   8.043
 2848WAT      O 8785   2.487   4.194   7.060
 2848WAT     H1 8786   2.563   4.251   7.092
 2848WAT     H2 8787   2.430   4.247   6.997
 2849WAT      O 8788   4.421   5.753   6.817
 2849WAT     H1 8789   4.416   5.694   6.897
 2849WAT     H2 8790   4.508   5.739   6.770
 2850WAT      O 8791   4.776   1.996   4.928
 2850WAT     H1 8792   4.725   1.920   4.969
 2850WAT     H2 8793   4.868   1.999   4.966
 2851WAT      O 8794   1.445   3.558   0.809
 2851WAT     H1 8795   1.482   3.643   0.770
 2851WAT     H2 8796   1.359   3.536   0.764
 2852WAT      O 8797   0.718   9.482   2.439
 2852WAT     H1 8798   0.661   9.484   2.357
 2852WAT     H2 8799   0.727   9.574   2.477
 2853WAT      O 8800   2.695   8.256   3.107
 2853WAT     H1 8801   2.651   8.328   3.053
 2853WAT     H2 8802   2.730   8.297   3.192
 2854WAT      O 8803   3.577   1.563   1.044
 2854WAT     H1 8804   3.612   1.480   1.001
 2854WAT     H2 8805   3.479   1.569   1.028
 2855WAT      O 8806   8.255   1.507   3.897
 2855WAT     H1 8807   8.173   1.452   3.885
 2855WAT     H2 8808   8.274   1.519   3.994
 2856WAT      O 8809   8.357   8.134   0.906
 2856WAT     H1 8810   8.378   8.105   0.813
 2856WAT     H2 8811   8.272   8.092   0.936
 2857WAT      O 8812   4.839   0.344   1.705
 2857WAT     H1 8813   4.817   0.420   1.767
 2857WAT     H2 8814   4.909   0.286   1.746
 2858WAT      O 8815   5.266   7.459   6.262
 2858WAT     H1 8816   5.286   7.378   6.318
 2858WAT     H2 8817   5.350   7.511   6.248
 2859WAT      O 8818   4.502   5.826   7.612
 2859WAT     H1 8819   4.436   5.773   7.664
 2859WAT     H2 8820   4.595   5.797   7.637
 2860WAT      O 8821   5.105   6.173   1.404
 2860WAT     H1 8822   5.075   6.164   1.499
 2860WAT     H2 8823   5.045   6.119   1.345
 2861WAT      O 8824   1.716   8.032   1.806
 2861WAT     H1 8825   1.643   8.088   1.845
 2861WAT     H2 8826   1.800   8.046   1.857
 2862WAT      O 8827   8.226   2.358   4.719
 2862WAT     H1 8828   8.165   2.358   4.640
 2862WAT     H2 8829   8.218   2.446   4.767
 2863WAT      O 8830   7.154   9.830   8.516
 2863WAT     H1 8831   7.098   9.895   8.466
 2863WAT     H2 8832   7.106   9.743   8.524
 2864WAT      O 8833   2.834   2.250   4.199
 2864WAT     H1 8834   2.741   2.280   4.219
 2864WAT     H2 8835   2.885   2.323   4.154
 2865WAT      O 8836   0.708   3.202   0.167
 2865WAT     H1 8837   0.702   3.159   0.077
 2865WAT     H2 8838   0.770   3.149   0.225
 2866WAT      O 8839   6.518   1.180   7.966
 2866WAT     H1 8840   6.543   1.238   7.889
 2866WAT     H2 8841   6.519   1.234   8.050
 2867WAT      O 8842   0.105   0.439   7.011
 2867WAT     H1 8843   0.009   0.412   7.012
 2867WAT     H2 8844   0.161   0.364   6.974
 2868WAT      O 8845   1.220   6.071   2.811
 2868WAT     H1 8846   1.295   6.071   2.745
 2868WAT     H2 8847   1.143   6.124   2.775
 2869WAT      O 8848   8.764   0.419   0.909
 2869WAT     H1 8849   8.818   0.442   0.990
 2869WAT     H2 8850   8.820   0.432   0.827
 2870WAT      O 8851   4.132   2.192   0.480
 2870WAT     H1 8852   4.204   2.255   0.509
 2870WAT     H2 8853   4.055   2.197   0.544
 2871WAT      O 8854   5.254   2.280   4.273
 2871WAT     H1 8855   5.258   2.367   4.224
 2871WAT     H2 8856   5.241   2.297   4.371
 2872WAT      O 8857   7.692   4.733   8.297
 2872WAT     H1 8858   7.595   4.713   8.311
 2872WAT     H2 8859   7.743   4.648   8.295
 2873WAT      O 8860   9.408   4.914   5.601
 2873WAT     H1 8861   9.481   4.908   5.533
 2873WAT     H2 8862   9.349   4.833   5.594
 2874WAT      O 8863   7.148   9.198   3.854
 2874WAT     H1 8864   7.054   9.211   3.885
 2874WAT     H2 8865   7.206   9.271   3.890
 2875WAT      O 8866   7.678   8.838   0.495
 2875WAT     H1 8867   7.638   8.789   0.418
 2875WAT     H2 8868   7.610   8.846   0.568
 2876WAT      O 8869   3.550   4.514   1.865
 2876WAT     H1 8870   3.515   4.607   1.876
 2876WAT     H2 8871   3.614   4.510   1.789
 2877WAT      O 8872   4.909   4.150   1.267
 2877WAT     H1 8873   4.938   4.062   1.305
 2877WAT     H2 8874   4.862   4.203   1.338
 2878WAT      O 8875   0.970   5.270   8.438
 2878WAT     H1 8876   0.939   5.208   8.509
 2878WAT     H2 8877   1.065   5.250   8.415
 2879WAT      O 8878   8.022   6.787   7.016
 2879WAT     H1 8879   8.036   6.855   6.944
 2879WAT     H2 8880   7.949   6.724   6.989
 2880WAT      O 8881   5.606   8.537   7.096
 2880WAT     H1 8882   5.659   8.465   7.052
 2880WAT     H2 8883   5.632   8.544   7.192
 2881WAT      O 8884   0.026   2.188   3.582
 2881WAT     H1 8885   0.084   2.225   3.509
 2881WAT     H2 8886   0.014   2.090   3.568
 2882WAT      O 8887   6.930   0.989   9.513
 2882WAT     H1 8888   6.842   1.018   9.475
 2882WAT     H2 8889   6.941   1.028   9.604
 2883WAT      O 8890   3.112   7.308   0.954
 2883WAT     H1 8891   3.061   7.337   1.034
 2883WAT     H2 8892   3.203   7.349   0.955
 2884WAT      O 8893   3.369   2.025   1.126
 2884WAT     H1 8894   3.306   2.088   1.080
 2884WAT     H2 8895   3.398   2.064   1.213
 2885WAT      O 8896   2.992   4.221   7.398
 2885WAT     H1 8897   2.948   4.310   7.382
 2885WAT     H2 8898   2.991   4.168   7.313
 2886WAT      O 8899   3.426   7.633   4.692
 2886WAT     H1 8900   3.460   7.678   4.610
 2886WAT     H2 8901   3.474   7.669   4.772
 2887WAT      O 8902   7.771   5.362   6.789
 2887WAT     H1 8903   7.803   5.419   6.865
 2887WAT     H2 8904   7.846   5.345   6.726
 2888WAT      O 8905   1.156   5.366   6.945
 2888WAT     H1 8906   1.113   5.454   6.968
 2888WAT     H2 8907   1.166   5.311   7.028
 2889WAT      O 8908   3.920   1.273   1.010
 2889WAT     H1 8909   3.827   1.271   0.974
 2889WAT     H2 8910   3.970   1.193   0.979
 2890WAT      O 8911   2.539   5.622   4.397
 2890WAT     H1 8912   2.473   5.634   4.323
 2890WAT     H2 8913   2.490   5.610   4.484
 2891WAT      O 8914   5.473   4.308   6.573
 2891WAT     H1 8915   5.472   4.281   6.670
 2891WAT     H2 8916   5.426   4.239   6.518
 2892WAT      O 8917   9.169   5.449   2.935
 2892WAT     H1 8918   9.131   5.387   2.867
 2892WAT     H2 8919   9.223   5.397   3.002
 2893WAT      O 8920   7.370   1.988   6.035
 2893WAT     H1 8921   7.409   2.014   6.123
 2893WAT     H2 8922   7.313   1.907   6.047
 2894WAT      O 8923   4.303   3.863   1.069
 2894WAT     H1 8924   4.333   3.861   1.164
 2894WAT     H2 8925   4.276   3.957   1.045
 2895WAT      O 8926   2.241   3.505   6.005
 2895WAT     H1 8927   2.255   3.441   5.930
 2895WAT     H2 8928   2.280   3.594   5.981
 2896WAT      O 8929   7.312   0.831   4.985
 2896WAT     H1 8930   7.322   0.824   5.084
 2896WAT     H2 8931   7.217   0.816   4.959
 2897WAT      O 8932   0.882   5.270   3.422
 2897WAT     H1 8933   0.942   5.293   3.499
 2897WAT     H2 8934   0.832   5.186   3.443
 2898WAT      O 8935   5.747   9.825   5.756
 2898WAT     H1 8936   5.769   9.800   5.850
 2898WAT     H2 8937   5.790   9.760   5.693
 2899WAT      O 8938   5.315   9.469   9.411
 2899WAT     H1 8939   5.298   9.383   9.362
 2899WAT     H2 8940   5.236   9.490   9.468
 2900WAT      O 8941   5.825   7.345   4.149
 2900WAT     H1 8942   5.816   7.265   4.091
 2900WAT     H2 8943   5.810   7.428   4.095
 2901WAT      O 8944   4.147   3.776   7.275
 2901WAT     H1 8945   4.131   3.787   7.177
 2901WAT     H2 8946   4.108   3.853   7.325
 2902WAT      O 8947   7.793   4.711   3.503
 2902WAT     H1 8948   7.693   4.711   3.496
 2902WAT     H2 8949   7.821   4.650   3.577
 2903WAT      O 8950   1.537   7.858   4.898
 2903WAT     H1 8951   1.570   7.880   4.990
 2903WAT     H2 8952   1.565   7.929   4.834
 2904WAT      O 8953   7.457   6.552   9.393
 2904WAT     H1 8954   7.449   6.596   9.482
 2904WAT     H2 8955   7.472   6.454   9.407
 2905WAT      O 8956   6.017   0.387   6.520
 2905WAT     H1 8957   5.973   0.407   6.608
 2905WAT     H2 8958   6.007   0.290   6.498
 2906WAT      O 8959   5.827   8.342   0.339
 2906WAT     H1 8960   5.841   8.282   0.419
 2906WAT     H2 8961   5.784   8.290   0.266
 2907WAT      O 8962   3.522   8.469   4.858
 2907WAT     H1 8963   3.453   8.509   4.799
 2907WAT     H2 8964   3.607   8.455   4.807
 2908WAT      O 8965   7.517   7.877   2.773
 2908WAT     H1 8966   7.442   7.896   2.836
 2908WAT     H2 8967   7.496   7.795   2.720
 2909WAT      O 8968   4.862   1.735   1.101
 2909WAT     H1 8969   4.805   1.801   1.051
 2909WAT     H2 8970   4.821   1.718   1.191
 2910WAT      O 8971   4.711   3.132   5.453
 2910WAT     H1 8972   4.729   3.230   5.443
 2910WAT     H2 8973   4.684   3.112   5.547
 2911WAT      O 8974   1.470   6.354   4.719
 2911WAT     H1 8975   1.397   6.351   4.787
 2911WAT     H2 8976   1.500   6.261   4.698
 2912WAT      O 8977   8.133   2.736   3.447
 2912WAT     H1 8978   8.057   2.672   3.460
 2912WAT     H2 8979   8.097   2.823   3.413
 2913WAT      O 8980   7.753   5.253   5.459
 2913WAT     H1 8981   7.795   5.165   5.479
 2913WAT     H2 8982   7.821   5.313   5.416
 2914WAT      O 8983   1.618   5.736   1.301
 2914WAT     H1 8984   1.626   5.766   1.396
 2914WAT     H2 8985   1.570   5.806   1.248
 2915WAT      O 8986   1.154   8.631   7.921
 2915WAT     H1 8987   1.070   8.619   7.972
 2915WAT     H2 8988   1.137   8.616   7.824
 2916WAT      O 8989   6.670   4.301   8.672
 2916WAT     H1 8990   6.648   4.212   8.711
 2916WAT     H2 8991   6.593   4.332   8.615
 2917WAT      O 8992   7.004   3.803   2.419
 2917WAT     H1 8993   6.954   3.875   2.373
 2917WAT     H2 8994   6.974   3.796   2.514
 2918WAT      O 8995   3.162   1.233   0.599
 2918WAT     H1 8996   3.205   1.185   0.523
 2918WAT     H2 8997   3.232   1.254   0.668
 2919WAT      O 8998   3.059   4.607   5.646
 2919WAT     H1 8999   3.096   4.619   5.553
 2919WAT     H2 9000   2.979   4.548   5.642
 2920WAT      O 9001   7.364   6.256   2.889
 2920WAT     H1 9002   7.376   6.356   2.890
 2920WAT     H2 9003   7.267   6.234   2.901
 2921WAT      O 9004   4.068   5.106   4.580
 2921WAT     H1 9005   4.022   5.182   4.534
 2921WAT     H2 9006   4.160   5.095   4.543
 2922WAT      O 9007   6.125   9.082   2.865
 2922WAT     H1 9008   6.077   9.114   2.947
 2922WAT     H2 9009   6.167   8.993   2.883
 2923WAT      O 9010   4.907   8.132   5.878
 2923WAT     H1 9011   4.956   8.207   5.834
 2923WAT     H2 9012   4.921   8.047   5.826
 2924WAT      O 9013   5.972   8.762   5.196
 2924WAT     H1 9014   6.071   8.763   5.210
 2924WAT     H2 9015   5.930   8.697   5.258
 2925WAT      O 9016   1.260   0.749   4.705
 2925WAT     H1 9017   1.271   0.743   4.805
 2925WAT     H2 9018   1.271   0.659   4.665
 2926WAT      O 9019   7.630   2.619   4.090
 2926WAT     H1 9020   7.627   2.601   3.992
 2926WAT     H2 9021   7.725   2.618   4.121
 2927WAT      O 9022   3.010   5.884   4.287
 2927WAT     H1 9023   2.932   5.860   4.345
 2927WAT     H2 9024   3.039   5.802   4.237
 2928WAT      O 9025   1.397   7.352   3.343
 2928WAT     H1 9026   1.445   7.432   3.378
 2928WAT     H2 9027   1.446   7.269   3.369
 2929WAT      O 9028   4.450   7.619   7.184
 2929WAT     H1 9029   4.433   7.684   7.109
 2929WAT     H2 9030   4.548   7.602   7.191
 2930WAT      O 9031   1.881   6.675   4.193
 2930WAT     H1 9032   1.879   6.579   4.224
 2930WAT     H2 9033   1.879   6.735   4.272
 2931WAT      O 9034   4.055   1.489   9.024
 2931WAT     H1 9035   4.053   1.545   9.107
 2931WAT     H2 9036   4.095   1.541   8.949
 2932WAT      O 9037   2.520   8.588   3.909
 2932WAT     H1 9038   2.617   8.611   3.919
 2932WAT     H2 9039   2.470   8.668   3.874
 2933WAT      O 9040   7.185   2.340   2.088
 2933WAT     H1 9041   7.195   2.267   2.155
 2933WAT     H2 9042   7.243   2.321   2.009
 2934WAT      O 9043   4.146   1.050   7.123
 2934WAT     H1 9044   4.192   1.127   7.078
 2934WAT     H2 9045   4.189   0.965   7.094
 2935WAT      O 9046   3.740   0.520   1.380
 2935WAT     H1 9047   3.651   0.523   1.425
 2935WAT     H2 9048   3.760   0.610   1.341
 2936WAT      O 9049   0.883   0.148   5.087
 2936WAT     H1 9050   0.977   0.117   5.071
 2936WAT     H2 9051   0.876   0.245   5.065
 2937WAT      O 9052   2.229   6.314   5.285
 2937WAT     H1 9053   2.174   6.321   5.202
 2937WAT     H2 9054   2.323   6.290   5.261
 2938WAT      O 9055   2.462   6.620   6.857
 2938WAT     H1 9056   2.466   6.639   6.956
 2938WAT     H2 9057   2.553   6.595   6.824
 2939WAT      O 9058   7.410   6.399   0.152
 2939WAT     H1 9059   7.491   6.340   0.155
 2939WAT     H2 9060   7.416   6.468   0.223
 2940WAT      O 9061   2.103   0.613   4.041
 2940WAT     H1 9062   2.004   0.609   4.029
 2940WAT     H2 9063   2.127   0.698   4.088
 2941WAT      O 9064   1.852   3.312   8.860
 2941WAT     H1 9065   1.914   3.234   8.847
 2941WAT     H2 9066   1.789   3.292   8.934
 2942WAT      O 9067   0.408   0.871   9.887
 2942WAT     H1 9068   0.441   0.851   9.795
 2942WAT     H2 9069   0.383   0.967   9.893
 2943WAT      O 9070   2.162   4.757   1.408
 2943WAT     H1 9071   2.208   4.792   1.490
 2943WAT     H2 9072   2.125   4.666   1.428
 2944WAT      O 9073   3.695   4.032   7.930
 2944WAT     H1 9074   3.738   3.971   7.997
 2944WAT     H2 9075   3.639   3.978   7.867
 2945WAT      O 9076   4.903   3.013   8.840
 2945WAT     H1 9077   4.850   3.084   8.885
 2945WAT     H2 9078   4.908   3.032   8.742
 2946WAT      O 9079   4.972   1.197   4.542
 2946WAT     H1 9080   5.024   1.237   4.467
 2946WAT     H2 9081   5.020   1.116   4.577
 2947WAT      O 9082   0.482   5.665   1.229
 2947WAT     H1 9083   0.383   5.679   1.225
 2947WAT     H2 9084   0.519   5.659   1.136
 2948WAT      O 9085   1.457   3.958   1.354
 2948WAT     H1 9086   1.419   3.919   1.437
 2948WAT     H2 9087   1.465   4.057   1.364
 2949WAT      O 9088   6.588   5.722   1.419
 2949WAT     H1 9089   6.685   5.744   1.429
 2949WAT     H2 9090   6.555   5.757   1.332
 2950WAT      O 9091   0.517   5.060   1.013
 2950WAT     H1 9092   0.614   5.038   1.022
 2950WAT     H2 9093   0.466   4.978   0.990
 2951WAT      O 9094   4.224   2.831   2.192
 2951WAT     H1 9095   4.173   2.917   2.190
 2951WAT     H2 9096   4.201   2.776   2.112
 2952WAT      O 9097   0.348   7.417   2.921
 2952WAT     H1 9098   0.369   7.483   2.994
 2952WAT     H2 9099   0.422   7.418   2.854
 2953WAT      O 9100   2.883   9.315   1.298
 2953WAT     H1 9101   2.898   9.260   1.215
 2953WAT     H2 9102   2.892   9.412   1.276
 2954WAT      O 9103   4.389   2.687   9.667
 2954WAT     H1 9104   4.475   2.722   9.704
 2954WAT     H2 9105   4.372   2.595   9.703
 2955WAT      O 9106   3.128   8.205   2.135
 2955WAT     H1 9107   3.154   8.284   2.191
 2955WAT     H2 9108   3.210   8.167   2.091
 2956WAT      O 9109   9.241   3.757   0.808
 2956WAT     H1 9110   9.181   3.683   0.839
 2956WAT     H2 9111   9.312   3.773   0.877
 2957WAT      O 9112   1.008   0.415   0.402
 2957WAT     H1 9113   0.943   0.475   0.355
 2957WAT     H2 9114   1.050   0.465   0.478
 2958WAT      O 9115   3.649   0.604   5.098
 2958WAT     H1 9116   3.679   0.692   5.136
 2958WAT     H2 9117   3.688   0.592   5.007
 2959WAT      O 9118   3.744   9.135   5.362
 2959WAT     H1 9119   3.743   9.073   5.284
 2959WAT     H2 9120   3.723   9.085   5.445
 2960WAT      O 9121   7.640   9.497   0.175
 2960WAT     H1 9122   7.712   9.526   0.113
 2960WAT     H2 9123   7.569   9.567   0.180
 2961WAT      O 9124   8.484   2.729   6.827
 2961WAT     H1 9125   8.444   2.651   6.779
 2961WAT     H2 9126   8.582   2.716   6.837
 2962WAT      O 9127   8.413   2.962   9.135
 2962WAT     H1 9128   8.421   2.901   9.056
 2962WAT     H2 9129   8.338   3.026   9.121
 2963WAT      O 9130   9.158   6.815   7.004
 2963WAT     H1 9131   9.234   6.869   6.967
 2963WAT     H2 9132   9.175   6.795   7.101
 2964WAT      O 9133   4.111   3.986   2.404
 2964WAT     H1 9134   4.025   4.012   2.446
 2964WAT     H2 9135   4.094   3.926   2.326
 2965WAT      O 9136   8.908   8.321   7.109
 2965WAT     H1 9137   8.824   8.346   7.062
 2965WAT     H2 9138   8.965   8.265   7.048
 2966WAT      O 9139   7.663   4.830   3.964
 2966WAT     H1 9140   7.750   4.780   3.963
 2966WAT     H2 9141   7.597   4.783   3.905
 2967WAT      O 9142   1.938   3.056   3.072
 2967WAT     H1 9143   1.990   3.129   3.116
 2967WAT     H2 9144   1.840   3.076   3.080
 2968WAT      O 9145   5.098   0.420   3.579
 2968WAT     H1 9146   5.032   0.395   3.509
 2968WAT     H2 9147   5.170   0.477   3.538
 2969WAT      O 9148   0.413   2.749   3.522
 2969WAT     H1 9149   0.359   2.753   3.438
 2969WAT     H2 9150   0.363   2.698   3.592
 2970WAT      O 9151   7.836   4.588   5.894
 2970WAT     H1 9152   7.877   4.665   5.943
 2970WAT     H2 9153   7.855   4.504   5.944
 2971WAT      O 9154   3.888   8.738   3.708
 2971WAT     H1 9155   3.885   8.743   3.608
 2971WAT     H2 9156   3.805   8.778   3.746
 2972WAT      O 9157   5.079   9.803   8.619
 2972WAT     H1 9158   5.145   9.746   8.570
 2972WAT     H2 9159   4.993   9.805   8.568
 2973WAT      O 9160   1.983   5.847   2.807
 2973WAT     H1 9161   1.957   5.757   2.770
 2973WAT     H2 9162   2.081   5.862   2.791
 2974WAT      O 9163   0.085   7.375   6.196
 2974WAT     H1 9164   0.026   7.296   6.182
 2974WAT     H2 9165   0.180   7.349   6.181
 2975WAT      O 9166   7.440   6.335   8.858
 2975WAT     H1 9167   7.533   6.298   8.850
 2975WAT     H2 9168   7.435   6.395   8.938
 2976WAT      O 9169   9.559   0.779   6.606
 2976WAT     H1 9170   9.640   0.757   6.661
 2976WAT     H2 9171   9.500   0.698   6.600
 2977WAT      O 9172   8.218   3.310   7.002
 2977WAT     H1 9173   8.214   3.400   7.044
 2977WAT     H2 9174   8.279   3.251   7.055
 2978WAT      O 9175   0.166   6.831   7.176
 2978WAT     H1 9176   0.076   6.829   7.218
 2978WAT     H2 9177   0.211   6.918   7.198
 2979WAT      O 9178   7.490   5.598   7.552
 2979WAT     H1 9179   7.451   5.582   7.461
 2979WAT     H2 9180   7.424   5.568   7.621
 2980WAT      O 9181   1.439   0.112   9.440
 2980WAT     H1 9182   1.512   0.174   9.468
 2980WAT     H2 9183   1.367   0.112   9.509
 2981WAT      O 9184   6.331   2.851   1.749
 2981WAT     H1 9185   6.390   2.893   1.680
 2981WAT     H2 9186   6.343   2.751   1.746
 2982WAT      O 9187   1.799   3.130   5.882
 2982WAT     H1 9188   1.820   3.227   5.869
 2982WAT     H2 9189   1.853   3.094   5.958
 2983WAT      O 9190   5.070   1.806   4.345
 2983WAT     H1 9191   5.035   1.742   4.414
 2983WAT     H2 9192   5.013   1.801   4.263
 2984WAT      O 9193   0.412   8.895   3.712
 2984WAT     H1 9194   0.492   8.874   3.769
 2984WAT     H2 9195   0.443   8.923   3.621
 2985WAT      O 9196   0.565   2.309   3.460
 2985WAT     H1 9197   0.496   2.342   3.524
 2985WAT     H2 9198   0.635   2.257   3.511
 2986WAT      O 9199   0.992   5.149   6.207
 2986WAT     H1 9200   0.998   5.085   6.284
 2986WAT     H2 9201   0.899   5.149   6.170
 2987WAT      O 9202   9.418   7.478   0.340
 2987WAT     H1 9203   9.337   7.482   0.282
 2987WAT     H2 9204   9.450   7.570   0.361
 2988WAT      O 9205   2.443   8.849   8.618
 2988WAT     H1 9206   2.490   8.918   8.563
 2988WAT     H2 9207   2.436   8.881   8.713
 2989WAT      O 9208   5.136   4.936   5.463
 2989WAT     H1 9209   5.209   4.998   5.434
 2989WAT     H2 9210   5.150   4.846   5.421
 2990WAT      O 9211   4.875   6.129   9.471
 2990WAT     H1 9212   4.789   6.118   9.521
 2990WAT     H2 9213   4.945   6.070   9.511
 2991WAT      O 9214   4.035   1.774   3.856
 2991WAT     H1 9215   4.031   1.859   3.804
 2991WAT     H2 9216   4.003   1.698   3.799
 2992WAT      O 9217   6.902   5.755   1.916
 2992WAT     H1 9218   6.924   5.696   1.994
 2992WAT     H2 9219   6.889   5.849   1.947
 2993WAT      O 9220   7.033   5.202   2.267
 2993WAT     H1 9221   7.079   5.244   2.189
 2993WAT     H2 9222   6.941   5.174   2.241
 2994WAT      O 9223   5.837   0.792   6.621
 2994WAT     H1 9224   5.742   0.763   6.637
 2994WAT     H2 9225   5.874   0.741   6.544
 2995WAT      O 9226   6.892   2.833   8.141
 2995WAT     H1 9227   6.843   2.746   8.137
 2995WAT     H2 9228   6.835   2.905   8.100
 2996WAT      O 9229   4.888   8.351   3.397
 2996WAT     H1 9230   4.978   8.326   3.362
 2996WAT     H2 9231   4.892   8.440   3.442
 2997WAT      O 9232   2.512   9.207   1.108
 2997WAT     H1 9233   2.563   9.220   1.023
 2997WAT     H2 9234   2.510   9.110   1.131
 2998WAT      O 9235   2.629   0.609   4.978
 2998WAT     H1 9236   2.688   0.566   5.047
 2998WAT     H2 9237   2.636   0.708   4.984
 2999WAT      O 9238   1.502   9.133   1.016
 2999WAT     H1 9239   1.458   9.073   0.949
 2999WAT     H2 9240   1.570   9.081   1.067
 3000WAT      O 9241   4.908   1.921   3.623
 3000WAT     H1 9242   4.937   1.975   3.544
 3000WAT     H2 9243   4.857   1.978   3.687
 3001WAT      O 9244   1.629   3.181   6.458
 3001WAT     H1 9245   1.680   3.123   6.521
 3001WAT     H2 9246   1.621   3.136   6.369
 3002WAT      O 9247   9.335   7.199   8.941
 3002WAT     H1 9248   9.315   7.256   9.020
 3002WAT     H2 9249   9.428   7.162   8.949
 3003WAT      O 9250   0.846   0.094   9.161
 3003WAT     H1 9251   0.932   0.104   9.111
 3003WAT     H2 9252   0.795   0.016   9.125
 3004WAT      O 9253   4.730   5.608   3.921
 3004WAT     H1 9254   4.725   5.686   3.859
 3004WAT     H2 9255   4.789   5.538   3.882
 3005WAT      O 9256   0.078   3.609   7.317
 3005WAT     H1 9257   0.075   3.512   7.295
 3005WAT     H2 9258  -0.012   3.650   7.301
 3006WAT      O 9259   9.346   5.676   4.517
 3006WAT     H1 9260   9.345   5.583   4.480
 3006WAT     H2 9261   9.438   5.715   4.509
 3007WAT      O 9262   1.505   4.552   4.308
 3007WAT     H1 9263   1.598   4.540   4.272
 3007WAT     H2 9264   1.509   4.555   4.408
 3008WAT      O 9265   4.549   8.054   6.804
 3008WAT     H1 9266   4.607   8.136   6.800
 3008WAT     H2 9267   4.602   7.978   6.840
 3009WAT      O 9268   0.601   4.146   9.618
 3009WAT     H1 9269   0.686   4.098   9.596
 3009WAT     H2 9270   0.554   4.099   9.691
 3010WAT      O 9271   6.274   5.216   2.440
 3010WAT     H1 9272   6.229   5.171   2.363
 3010WAT     H2 9273   6.280   5.315   2.421
 3011WAT      O 9274   3.106   8.940   8.619
 3011WAT     H1 9275   3.034   8.932   8.550
 3011WAT     H2 9276   3.066   8.967   8.706
 3012WAT      O 9277   1.619   0.989   6.521
 3012WAT     H1 9278   1.647   0.893   6.528
 3012WAT     H2 9279   1.628   1.034   6.609
 3013WAT      O 9280   6.869   2.444   5.166
 3013WAT     H1 9281   6.939   2.389   5.212
 3013WAT     H2 9282   6.782   2.395   5.168
 3014WAT      O 9283   6.487   9.098   9.778
 3014WAT     H1 9284   6.467   9.196   9.778
 3014WAT     H2 9285   6.581   9.083   9.749
 3015WAT      O 9286   3.905   4.218   7.860
 3015WAT     H1 9287   3.846   4.271   7.799
 3015WAT     H2 9288   3.853   4.141   7.898
 3016WAT      O 9289   6.135   8.216   4.318
 3016WAT     H1 9290   6.198   8.192   4.392
 3016WAT     H2 9291   6.044   8.235   4.356
 3017WAT      O 9292   3.977   0.145   6.136
 3017WAT     H1 9293   3.945   0.056   6.167
 3017WAT     H2 9294   4.036   0.185   6.206
 3018WAT      O 9295   1.874   1.584   4.636
 3018WAT     H1 9296   1.966   1.608   4.667
 3018WAT     H2 9297   1.845   1.499   4.679
 3019WAT      O 9298   9.749   6.253   9.623
 3019WAT     H1 9299   9.661   6.215   9.650
 3019WAT     H2 9300   9.793   6.294   9.703
 3020WAT      O 9301   5.929   1.981   1.215
 3020WAT     H1 9302   5.909   2.007   1.121
 3020WAT     H2 9303   6.000   2.041   1.252
 3021WAT      O 9304   8.428   3.206   5.822
 3021WAT     H1 9305   8.415   3.288   5.877
 3021WAT     H2 9306   8.514   3.214   5.771
 3022WAT      O 9307   8.515   3.574   0.374
 3022WAT     H1 9308   8.440   3.639   0.368
 3022WAT     H2 9309   8.508   3.520   0.458
 3023WAT      O 9310   1.615   8.095   2.603
 3023WAT     H1 9311   1.640   8.166   2.669
 3023WAT     H2 9312   1.682   8.021   2.607
 3024WAT      O 9313   2.101   0.609   4.625
 3024WAT     H1 9314   2.159   0.681   4.664
 3024WAT     H2 9315   2.143   0.574   4.541
 3025WAT      O 9316   5.223   1.820   4.986
 3025WAT     H1 9317   5.206   1.731   5.029
 3025WAT     H2 9318   5.208   1.812   4.887
 3026WAT      O 9319   7.186   2.430   5.618
 3026WAT     H1 9320   7.271   2.379   5.628
 3026WAT     H2 9321   7.108   2.367   5.628
 3027WAT      O 9322   3.012   7.536   5.699
 3027WAT     H1 9323   3.099   7.580   5.725
 3027WAT     H2 9324   3.006   7.529   5.600
 3028WAT      O 9325   0.012   7.605   2.204
 3028WAT     H1 9326  -0.020   7.571   2.292
 3028WAT     H2 9327  -0.055   7.585   2.133
 3029WAT      O 9328   9.660   3.789   7.024
 3029WAT     H1 9329   9.702   3.879   7.011
 3029WAT     H2 9330   9.566   3.801   7.056
 3030WAT      O 9331   6.772   8.851   0.043
 3030WAT     H1 9332   6.871   8.858   0.053
 3030WAT     H2 9333   6.745   8.754   0.044
 3031WAT      O 9334   6.314   4.585   2.970
 3031WAT     H1 9335   6.318   4.685   2.970
 3031WAT     H2 9336   6.219   4.555   2.980
 3032WAT      O 9337   9.639   3.421   3.909
 3032WAT     H1 9338   9.566   3.487   3.894
 3032WAT     H2 9339   9.722   3.451   3.863
 3033WAT      O 9340   9.334   6.188   6.815
 3033WAT     H1 9341   9.354   6.102   6.862
 3033WAT     H2 9342   9.322   6.261   6.883
 3034WAT      O 9343   6.417   1.904   6.641
 3034WAT     H1 9344   6.502   1.926   6.689
 3034WAT     H2 9345   6.363   1.987   6.628
 3035WAT      O 9346   9.300   7.630   3.756
 3035WAT     H1 9347   9.326   7.649   3.661
 3035WAT     H2 9348   9.362   7.678   3.818
 3036WAT      O 9349   1.536   9.661   4.350
 3036WAT     H1 9350   1.550   9.748   4.398
 3036WAT     H2 9351   1.463   9.671   4.283
 3037WAT      O 9352   5.958   9.641   1.959
 3037WAT     H1 9353   5.896   9.607   2.029
 3037WAT     H2 9354   5.906   9.669   1.878
 3038WAT      O 9355   9.660   4.799   0.760
 3038WAT     H1 9356   9.602   4.719   0.743
 3038WAT     H2 9357   9.671   4.812   0.858
 3039WAT      O 9358   8.252   4.789   3.382
 3039WAT     H1 9359   8.302   4.868   3.416
 3039WAT     H2 9360   8.201   4.815   3.300
 3040WAT      O 9361   7.887   4.444   4.236
 3040WAT     H1 9362   7.941   4.511   4.185
 3040WAT     H2 9363   7.935   4.419   4.320
 3041WAT      O 9364   1.935   7.512   7.156
 3041WAT     H1 9365   2.024   7.539   7.118
 3041WAT     H2 9366   1.931   7.536   7.253
 3042WAT      O 9367   7.058   0.452   3.819
 3042WAT     H1 9368   7.123   0.380   3.842
 3042WAT     H2 9369   7.094   0.508   3.744
 3043WAT      O 9370   4.957   1.968   6.516
 3043WAT     H1 9371   4.954   2.068   6.522
 3043WAT     H2 9372   5.039   1.940   6.467
 3044WAT      O 9373   2.345   1.834   2.970
 3044WAT     H1 9374   2.275   1.833   2.899
 3044WAT     H2 9375   2.377   1.741   2.988
 3045WAT      O 9376   5.125   5.152   3.188
 3045WAT     H1 9377   5.036   5.114   3.214
 3045WAT     H2 9378   5.152   5.222   3.254
 3046WAT      O 9379   7.334   3.045   1.410
 3046WAT     H1 9380   7.421   3.086   1.381
 3046WAT     H2 9381   7.350   2.981   1.485
 3047WAT      O 9382   2.877   2.092   5.119
 3047WAT     H1 9383   2.845   2.013   5.172
 3047WAT     H2 9384   2.847   2.082   5.024
 3048WAT      O 9385   9.684   0.801   6.180
 3048WAT     H1 9386   9.623   0.862   6.231
 3048WAT     H2 9387   9.634   0.756   6.106
 3049WAT      O 9388   5.313   8.865   4.641
 3049WAT     H1 9389   5.303   8.964   4.651
 3049WAT     H2 9390   5.239   8.830   4.583
 3050WAT      O 9391   9.498   3.667   3.904
 3050WAT     H1 9392   9.460   3.617   3.982
 3050WAT     H2 9393   9.423   3.696   3.844
 3051WAT      O 9394   9.751   3.609   6.832
 3051WAT     H1 9395   9.708   3.675   6.895
 3051WAT     H2 9396   9.783   3.530   6.883
 3052WAT      O 9397   7.993   3.970   1.922
 3052WAT     H1 9398   8.013   3.916   1.841
 3052WAT     H2 9399   7.930   4.044   1.898
 3053WAT      O 9400   4.062   9.469   0.632
 3053WAT     H1 9401   4.089   9.373   0.636
 3053WAT     H2 9402   4.003   9.490   0.711
 3054WAT      O 9403   5.976   8.239   5.168
 3054WAT     H1 9404   5.945   8.301   5.095
 3054WAT     H2 9405   5.898   8.186   5.202
 3055WAT      O 9406   8.212   9.136   7.031
 3055WAT     H1 9407   8.198   9.135   7.130
 3055WAT     H2 9408   8.198   9.044   6.994
 3056WAT      O 9409   6.947   1.122   2.844
 3056WAT     H1 9410   6.968   1.036   2.798
 3056WAT     H2 9411   6.969   1.115   2.941
 3057WAT      O 9412   7.474   8.862   4.217
 3057WAT     H1 9413   7.396   8.805   4.191
 3057WAT     H2 9414   7.445   8.929   4.286
 3058WAT      O 9415   3.965   1.926   9.793
 3058WAT     H1 9416   3.948   1.954   9.699
 3058WAT     H2 9417   3.881   1.934   9.847
 3059WAT      O 9418   7.023   1.861   2.640
 3059WAT     H1 9419   6.962   1.914   2.697
 3059WAT     H2 9420   7.110   1.909   2.630
 3060WAT      O 9421   8.447   9.645   5.308
 3060WAT     H1 9422   8.468   9.743   5.309
 3060WAT     H2 9423   8.378   9.625   5.378
 3061WAT      O 9424   1.913   0.820   0.352
 3061WAT     H1 9425   1.955   0.911   0.347
 3061WAT     H2 9426   1.831   0.824   0.409
 3062WAT      O 9427   8.937   7.419   4.329
 3062WAT     H1 9428   8.941   7.452   4.235
 3062WAT     H2 9429   8.894   7.329   4.331
 3063WAT      O 9430   1.039   9.033   5.090
 3063WAT     H1 9431   1.102   9.102   5.124
 3063WAT     H2 9432   0.995   9.066   5.006
 3064WAT      O 9433   0.396   1.447   8.738
 3064WAT     H1 9434   0.461   1.504   8.787
 3064WAT     H2 9435   0.365   1.495   8.656
 3065WAT      O 9436   1.046   2.849   5.140
 3065WAT     H1 9437   1.011   2.851   5.046
 3065WAT     H2 9438   0.972   2.874   5.203
 3066WAT      O 9439   5.490   5.725   8.916
 3066WAT     H1 9440   5.533   5.800   8.966
 3066WAT     H2 9441   5.417   5.685   8.971
 3067WAT      O 9442   8.786   6.089   4.692
 3067WAT     H1 9443   8.868   6.051   4.735
 3067WAT     H2 9444   8.803   6.183   4.664
 3068WAT      O 9445   3.167   0.001   2.748
 3068WAT     H1 9446   3.260   0.037   2.742
 3068WAT     H2 9447   3.114   0.034   2.669
 3069WAT      O 9448   3.576   5.651   9.163
 3069WAT     H1 9449   3.536   5.566   9.128
 3069WAT     H2 9450   3.672   5.656   9.136
 3070WAT      O 9451   2.499   6.982   5.951
 3070WAT     H1 9452   2.510   7.065   6.005
 3070WAT     H2 9453   2.406   6.977   5.916
 3071WAT      O 9454   5.279   6.185   0.759
 3071WAT     H1 9455   5.254   6.097   0.798
 3071WAT     H2 9456   5.376   6.184   0.735
 3072WAT      O 9457   3.916   9.258   2.290
 3072WAT     H1 9458   3.920   9.318   2.210
 3072WAT     H2 9459   4.009   9.239   2.322
 3073WAT      O 9460   6.052   2.639   5.704
 3073WAT     H1 9461   6.107   2.608   5.782
 3073WAT     H2 9462   5.975   2.693   5.736
 3074WAT      O 9463   5.017   1.036   0.312
 3074WAT     H1 9464   4.930   1.070   0.275
 3074WAT     H2 9465   5.074   1.113   0.340
 3075WAT      O 9466   4.006   8.307   7.602
 3075WAT     H1 9467   4.023   8.314   7.504
 3075WAT     H2 9468   3.908   8.316   7.620
 3076WAT      O 9469   9.082   4.691   9.436
 3076WAT     H1 9470   9.029   4.606   9.441
 3076WAT     H2 9471   9.019   4.769   9.435
 3077WAT      O 9472   8.611   8.560   7.455
 3077WAT     H1 9473   8.541   8.490   7.469
 3077WAT     H2 9474   8.614   8.585   7.359
 3078WAT      O 9475   2.063   3.708   8.304
 3078WAT     H1 9476   2.067   3.613   8.274
 3078WAT     H2 9477   1.969   3.741   8.299
 3079WAT      O 9478   1.951   9.262   7.880
 3079WAT     H1 9479   1.919   9.328   7.948
 3079WAT     H2 9480   1.968   9.174   7.925
 3080WAT      O 9481   5.470   6.882   8.949
 3080WAT     H1 9482   5.548   6.944   8.940
 3080WAT     H2 9483   5.409   6.914   9.022
 3081WAT      O 9484   7.620   0.093   4.368
 3081WAT     H1 9485   7.603   0.191   4.367
 3081WAT     H2 9486   7.711   0.075   4.406
 3082WAT      O 9487   2.385   6.175   9.715
 3082WAT     H1 9488   2.327   6.251   9.745
 3082WAT     H2 9489   2.460   6.210   9.659
 3083WAT      O 9490   5.893   7.348   7.853
 3083WAT     H1 9491   5.962   7.275   7.854
 3083WAT     H2 9492   5.900   7.401   7.938
 3084WAT      O 9493   9.610   0.717   2.715
 3084WAT     H1 9494   9.608   0.813   2.742
 3084WAT     H2 9495   9.699   0.678   2.738
 3085WAT      O 9496   9.517   1.044   0.192
 3085WAT     H1 9497   9.517   1.021   0.095
 3085WAT     H2 9498   9.601   1.093   0.215
 3086WAT      O 9499   5.969   3.911   3.246
 3086WAT     H1 9500   5.896   3.971   3.279
 3086WAT     H2 9501   6.045   3.911   3.312
 3087WAT      O 9502   3.462   3.805   6.630
 3087WAT     H1 9503   3.398   3.840   6.699
 3087WAT     H2 9504   3.440   3.844   6.541
 3088WAT      O 9505   4.031   4.173   7.121
 3088WAT     H1 9506   4.067   4.157   7.212
 3088WAT     H2 9507   4.051   4.267   7.092
 3089WAT      O 9508   3.204   7.860   4.328
 3089WAT     H1 9509   3.148   7.781   4.354
 3089WAT     H2 9510   3.186   7.884   4.233
 3090WAT      O 9511   6.550   8.238   4.119
 3090WAT     H1 9512   6.503   8.162   4.164
 3090WAT     H2 9513   6.647   8.234   4.139
 3091WAT      O 9514   7.457   1.616   2.779
 3091WAT     H1 9515   7.421   1.585   2.692
 3091WAT     H2 9516   7.533   1.680   2.763
 3092WAT      O 9517   1.893   2.532   2.391
 3092WAT     H1 9518   1.841   2.570   2.468
 3092WAT     H2 9519   1.832   2.522   2.312
 3093WAT      O 9520   7.871   4.758   1.863
 3093WAT     H1 9521   7.917   4.699   1.797
 3093WAT     H2 9522   7.907   4.851   1.856
 3094WAT      O 9523   2.701   5.115   1.085
 3094WAT     H1 9524   2.725   5.102   0.989
 3094WAT     H2 9525   2.668   5.209   1.099
 3095WAT      O 9526   7.893   2.864   6.510
 3095WAT     H1 9527   7.986   2.878   6.545
 3095WAT     H2 9528   7.897   2.834   6.415
 3096WAT      O 9529   6.506   8.040   0.597
 3096WAT     H1 9530   6.459   8.122   0.632
 3096WAT     H2 9531   6.559   7.999   0.670
 3097WAT      O 9532   1.485   9.245   1.390
 3097WAT     H1 9533   1.432   9.165   1.421
 3097WAT     H2 9534   1.423   9.322   1.377
 3098WAT      O 9535   6.511   3.432   1.827
 3098WAT     H1 9536   6.529   3.338   1.797
 3098WAT     H2 9537   6.454   3.431   1.908
 3099WAT      O 9538   4.098   7.482   5.945
 3099WAT     H1 9539   4.115   7.390   5.908
 3099WAT     H2 9540   4.061   7.541   5.874
 3100WAT      O 9541   1.831   3.839   6.616
 3100WAT     H1 9542   1.837   3.742   6.594
 3100WAT     H2 9543   1.735   3.868   6.616
 3101WAT      O 9544   4.568   4.308   5.999
 3101WAT     H1 9545   4.657   4.346   6.026
 3101WAT     H2 9546   4.583   4.223   5.948
 3102WAT      O 9547   3.598   7.613   9.719
 3102WAT     H1 9548   3.555   7.527   9.692
 3102WAT     H2 9549   3.530   7.673   9.761
 3103WAT      O 9550   4.941   6.842   4.780
 3103WAT     H1 9551   4.882   6.788   4.840
 3103WAT     H2 9552   4.906   6.836   4.686
 3104WAT      O 9553   3.171   7.431   2.388
 3104WAT     H1 9554   3.171   7.491   2.308
 3104WAT     H2 9555   3.084   7.439   2.436
 3105WAT      O 9556   9.004   3.872   6.897
 3105WAT     H1 9557   9.048   3.950   6.853
 3105WAT     H2 9558   8.940   3.905   6.966
 3106WAT      O 9559   1.621   4.675   1.729
 3106WAT     H1 9560   1.536   4.723   1.704
 3106WAT     H2 9561   1.656   4.712   1.814
 3107WAT      O 9562   8.114   9.791   1.795
 3107WAT     H1 9563   8.099   9.883   1.760
 3107WAT     H2 9564   8.145   9.731   1.721
 3108WAT      O 9565   2.764   5.881   9.478
 3108WAT     H1 9566   2.724   5.972   9.464
 3108WAT     H2 9567   2.829   5.862   9.404
 3109WAT      O 9568   8.453   5.116   9.658
 3109WAT     H1 9569   8.466   5.215   9.651
 3109WAT     H2 9570   8.541   5.069   9.646
 3110WAT      O 9571   6.770   1.916   8.980
 3110WAT     H1 9572   6.693   1.889   9.038
 3110WAT     H2 9573   6.806   2.004   9.011
 3111WAT      O 9574   1.097   4.148   1.066
 3111WAT     H1 9575   1.097   4.049   1.076
 3111WAT     H2 9576   1.019   4.176   1.010
 3112WAT      O 9577   7.923   2.021   4.279
 3112WAT     H1 9578   7.841   2.049   4.329
 3112WAT     H2 9579   7.953   1.932   4.312
 3113WAT      O 9580   7.192   0.013   3.640
 3113WAT     H1 9581   7.102  -0.026   3.619
 3113WAT     H2 9582   7.250  -0.057   3.680
 3114WAT      O 9583   5.797   0.991   8.517
 3114WAT     H1 9584   5.799   0.925   8.442
 3114WAT     H2 9585   5.800   0.942   8.604
 3115WAT      O 9586   4.962   8.905   3.287
 3115WAT     H1 9587   4.940   8.972   3.359
 3115WAT     H2 9588   4.925   8.816   3.313
 3116WAT      O 9589   2.949   3.963   3.189
 3116WAT     H1 9590   2.946   3.994   3.094
 3116WAT     H2 9591   2.926   3.866   3.193
 3117WAT      O 9592   4.444   2.661   6.261
 3117WAT     H1 9593   4.385   2.623   6.189
 3117WAT     H2 9594   4.388   2.689   6.339
 3118WAT      O 9595   5.776   9.150   7.973
 3118WAT     H1 9596   5.836   9.202   7.912
 3118WAT     H2 9597   5.680   9.167   7.949
 3119WAT      O 9598   3.153   0.802   7.689
 3119WAT     H1 9599   3.151   0.733   7.617
 3119WAT     H2 9600   3.201   0.883   7.655
 3120WAT      O 9601   8.521   6.111   3.617
 3120WAT     H1 9602   8.537   6.091   3.714
 3120WAT     H2 9603   8.444   6.174   3.608
 3121WAT      O 9604   0.381   3.074   7.606
 3121WAT     H1 9605   0.315   3.145   7.630
 3121WAT     H2 9606   0.333   2.997   7.564
 3122WAT      O 9607   6.784   6.100   1.606
 3122WAT     H1 9608   6.693   6.102   1.563
 3122WAT     H2 9609   6.790   6.021   1.666
 3123WAT      O 9610   4.023   5.375   4.508
 3123WAT     H1 9611   3.974   5.397   4.593
 3123WAT     H2 9612   3.979   5.423   4.432
 3124WAT      O 9613   0.504   7.946   4.792
 3124WAT     H1 9614   0.438   8.004   4.743
 3124WAT     H2 9615   0.581   8.002   4.822
 3125WAT      O 9616   4.963   2.361   0.344
 3125WAT     H1 9617   4.963   2.359   0.244
 3125WAT     H2 9618   4.949   2.268   0.379
 3126WAT      O 9619   8.373   9.765   8.876
 3126WAT     H1 9620   8.434   9.814   8.813
 3126WAT     H2 9621   8.414   9.677   8.899
 3127WAT      O 9622   4.348   2.412   9.706
 3127WAT     H1 9623   4.279   2.340   9.703
 3127WAT     H2 9624   4.437   2.373   9.680
 3128WAT      O 9625   8.322   7.797   3.530
 3128WAT     H1 9626   8.269   7.799   3.614
 3128WAT     H2 9627   8.372   7.710   3.524
 3129WAT      O 9628   1.158   8.552   3.459
 3129WAT     H1 9629   1.234   8.584   3.403
 3129WAT     H2 9630   1.075   8.604   3.437
 3130WAT      O 9631   9.193   7.873   9.280
 3130WAT     H1 9632   9.216   7.860   9.377
 3130WAT     H2 9633   9.095   7.892   9.273
 3131WAT      O 9634   2.791   5.362   0.822
 3131WAT     H1 9635   2.877   5.356   0.872
 3131WAT     H2 9636   2.810   5.375   0.725
 3132WAT      O 9637   3.249   9.749   4.094
 3132WAT     H1 9638   3.239   9.791   4.184
 3132WAT     H2 9639   3.169   9.769   4.038
 3133WAT      O 9640   1.311   3.053   6.037
 3133WAT     H1 9641   1.338   2.981   6.101
 3133WAT     H2 9642   1.377   3.128   6.042
 3134WAT      O 9643   4.935   7.734   3.034
 3134WAT     H1 9644   4.894   7.644   3.023
 3134WAT     H2 9645   4.864   7.800   3.060
 3135WAT      O 9646   3.555   7.061   9.461
 3135WAT     H1 9647   3.512   7.111   9.386
 3135WAT     H2 9648   3.653   7.081   9.462
 3136WAT      O 9649   4.808   1.353   7.271
 3136WAT     H1 9650   4.883   1.321   7.327
 3136WAT     H2 9651   4.721   1.335   7.317
 3137WAT      O 9652   6.187   2.346   1.750
 3137WAT     H1 9653   6.194   2.280   1.676
 3137WAT     H2 9654   6.219   2.305   1.836
 3138WAT      O 9655   8.418   3.829   6.304
 3138WAT     H1 9656   8.487   3.756   6.308
 3138WAT     H2 9657   8.397   3.849   6.208
 3139WAT      O 9658   5.880   1.898   0.301
 3139WAT     H1 9659   5.868   1.846   0.216
 3139WAT     H2 9660   5.819   1.977   0.299
 3140WAT      O 9661   8.130   8.018   1.017
 3140WAT     H1 9662   8.195   7.955   1.060
 3140WAT     H2 9663   8.053   8.032   1.078
 3141WAT      O 9664   7.663   3.036   1.438
 3141WAT     H1 9665   7.634   3.069   1.349
 3141WAT     H2 9666   7.662   2.936   1.439
 3142WAT      O 9667   1.930   2.976   8.411
 3142WAT     H1 9668   1.896   3.015   8.496
 3142WAT     H2 9669   1.852   2.945   8.355
 3143WAT      O 9670   3.074   5.811   9.314
 3143WAT     H1 9671   3.161   5.763   9.330
 3143WAT     H2 9672   2.998   5.748   9.331
 3144WAT      O 9673   0.802   2.573   1.092
 3144WAT     H1 9674   0.727   2.623   1.136
 3144WAT     H2 9675   0.889   2.603   1.131
 3145WAT      O 9676   6.096   9.066   7.366
 3145WAT     H1 9677   6.106   9.029   7.273
 3145WAT     H2 9678   6.176   9.121   7.388
 3146WAT      O 9679   2.471   7.980   3.345
 3146WAT     H1 9680   2.434   7.906   3.401
 3146WAT     H2 9681   2.508   8.051   3.405
 3147WAT      O 9682   8.294   5.337   5.038
 3147WAT     H1 9683   8.313   5.428   5.001
 3147WAT     H2 9684   8.196   5.328   5.054
 3148WAT      O 9685   0.083   0.597   8.279
 3148WAT     H1 9686   0.030   0.533   8.335
 3148WAT     H2 9687   0.132   0.546   8.208
 3149WAT      O 9688   4.489   7.702   9.807
 3149WAT     H1 9689   4.499   7.743   9.897
 3149WAT     H2 9690   4.536   7.614   9.805
 3150WAT      O 9691   2.475   6.590   9.823
 3150WAT     H1 9692   2.549   6.533   9.857
 3150WAT     H2 9693   2.511   6.678   9.793
 3151WAT      O 9694   4.530   6.037   9.364
 3151WAT     H1 9695   4.572   6.023   9.453
 3151WAT     H2 9696   4.600   6.038   9.293
 3152WAT      O 9697   2.188   7.197   3.945
 3152WAT     H1 9698   2.198   7.101   3.970
 3152WAT     H2 9699   2.187   7.254   4.027
 3153WAT      O 9700   6.970   1.422   4.691
 3153WAT     H1 9701   6.950   1.357   4.619
 3153WAT     H2 9702   6.932   1.512   4.667
 3154WAT      O 9703   0.916   2.166   0.207
 3154WAT     H1 9704   0.975   2.096   0.247
 3154WAT     H2 9705   0.971   2.246   0.183
 3155WAT      O 9706   8.744   5.509   6.651
 3155WAT     H1 9707   8.685   5.566   6.594
 3155WAT     H2 9708   8.820   5.475   6.597
 3156WAT      O 9709   0.386   1.759   5.028
 3156WAT     H1 9710   0.286   1.766   5.033
 3156WAT     H2 9711   0.427   1.822   5.093
 3157WAT      O 9712   1.406   0.438   0.128
 3157WAT     H1 9713   1.475   0.506   0.102
 3157WAT     H2 9714   1.369   0.461   0.218
 3158WAT      O 9715   4.337   1.012   9.464
 3158WAT     H1 9716   4.435   1.010   9.445
 3158WAT     H2 9717   4.306   0.922   9.494
 3159WAT      O 9718   5.316   5.434   4.356
 3159WAT     H1 9719   5.282   5.438   4.450
 3159WAT     H2 9720   5.244   5.464   4.293
 3160WAT      O 9721   4.235   7.746   2.663
 3160WAT     H1 9722   4.184   7.685   2.724
 3160WAT     H2 9723   4.286   7.691   2.596
 3161WAT      O 9724   3.870   4.610   4.565
 3161WAT     H1 9725   3.831   4.681   4.506
 3161WAT     H2 9726   3.829   4.616   4.656
 3162WAT      O 9727   9.329   6.240   9.283
 3162WAT     H1 9728   9.363   6.333   9.274
 3162WAT     H2 9729   9.280   6.215   9.199
 3163WAT      O 9730   3.500   7.894   6.427
 3163WAT     H1 9731   3.442   7.950   6.367
 3163WAT     H2 9732   3.454   7.881   6.515
 3164WAT      O 9733   4.342   8.804   2.245
 3164WAT     H1 9734   4.306   8.713   2.227
 3164WAT     H2 9735   4.421   8.821   2.186
 3165WAT      O 9736   6.521   9.666   0.659
 3165WAT     H1 9737   6.591   9.599   0.636
 3165WAT     H2 9738   6.484   9.646   0.750
 3166WAT      O 9739   1.778   4.897   5.325
 3166WAT     H1 9740   1.716   4.959   5.373
 3166WAT     H2 9741   1.868   4.940   5.315
 3167WAT      O 9742   1.606   2.662   1.975
 3167WAT     H1 9743   1.528   2.710   2.016
 3167WAT     H2 9744   1.579   2.569   1.950
 3168WAT      O 9745   3.587   7.074   3.044
 3168WAT     H1 9746   3.645   7.098   2.967
 3168WAT     H2 9747   3.494   7.058   3.012
 3169WAT      O 9748   1.511   2.769   9.796
 3169WAT     H1 9749   1.529   2.841   9.864
 3169WAT     H2 9750   1.454   2.807   9.723
 3170WAT      O 9751   5.371   6.143   4.062
 3170WAT     H1 9752   5.307   6.078   4.021
 3170WAT     H2 9753   5.428   6.095   4.129
 3171WAT      O 9754   3.459   6.771   8.753
 3171WAT     H1 9755   3.540   6.715   8.731
 3171WAT     H2 9756   3.377   6.719   8.731
 3172WAT      O 9757   3.588   7.984   5.625
 3172WAT     H1 9758   3.582   7.930   5.709
 3172WAT     H2 9759   3.601   8.080   5.649
 3173WAT      O 9760   4.846   1.097   2.545
 3173WAT     H1 9761   4.795   1.128   2.464
 3173WAT     H2 9762   4.942   1.082   2.520
 3174WAT      O 9763   6.646   7.410   7.257
 3174WAT     H1 9764   6.708   7.333   7.271
 3174WAT     H2 9765   6.649   7.469   7.338
 3175WAT      O 9766   1.183   2.335   6.718
 3175WAT     H1 9767   1.246   2.275   6.668
 3175WAT     H2 9768   1.107   2.281   6.755
 3176WAT      O 9769   3.826   2.703   9.262
 3176WAT     H1 9770   3.855   2.691   9.167
 3176WAT     H2 9771   3.739   2.656   9.275
 3177WAT      O 9772   2.018   8.143   8.528
 3177WAT     H1 9773   2.001   8.232   8.487
 3177WAT     H2 9774   1.996   8.146   8.625
 3178WAT      O 9775   5.920   1.449   4.392
 3178WAT     H1 9776   5.870   1.534   4.375
 3178WAT     H2 9777   5.856   1.378   4.419
 3179WAT      O 9778   1.214   3.207   3.499
 3179WAT     H1 9779   1.167   3.135   3.551
 3179WAT     H2 9780   1.155   3.238   3.425
 3180WAT      O 9781   5.884   8.585   5.414
 3180WAT     H1 9782   5.841   8.508   5.367
 3180WAT     H2 9783   5.833   8.606   5.498
 3181WAT      O 9784   7.629   7.916   9.740
 3181WAT     H1 9785   7.622   7.816   9.735
 3181WAT     H2 9786   7.588   7.948   9.825
 3182WAT      O 9787   1.225   6.292   2.138
 3182WAT     H1 9788   1.252   6.358   2.208
 3182WAT     H2 9789   1.153   6.332   2.081
 3183WAT      O 9790   0.912   0.842   2.038
 3183WAT     H1 9791   0.884   0.903   1.963
 3183WAT     H2 9792   0.872   0.751   2.024
 3184WAT      O 9793   7.950   8.803   2.072
 3184WAT     H1 9794   7.876   8.736   2.064
 3184WAT     H2 9795   8.034   8.765   2.033
 3185WAT      O 9796   9.176   2.413   3.371
 3185WAT     H1 9797   9.206   2.471   3.295
 3185WAT     H2 9798   9.076   2.420   3.380
 3186WAT      O 9799   1.098   7.924   1.231
 3186WAT     H1 9800   1.010   7.928   1.183
 3186WAT     H2 9801   1.151   7.847   1.196
 3187WAT      O 9802   8.784   2.088   0.838
 3187WAT     H1 9803   8.828   1.998   0.843
 3187WAT     H2 9804   8.698   2.080   0.787
 3188WAT      O 9805   5.828   4.988   5.370
 3188WAT     H1 9806   5.765   4.951   5.302
 3188WAT     H2 9807   5.911   5.019   5.323
 3189WAT      O 9808   5.432   3.425   4.314
 3189WAT     H1 9809   5.521   3.451   4.351
 3189WAT     H2 9810   5.414   3.329   4.336
 3190WAT      O 9811   0.373   5.883   5.412
 3190WAT     H1 9812   0.366   5.879   5.512
 3190WAT     H2 9813   0.469   5.895   5.385
 3191WAT      O 9814   8.884   8.650   8.991
 3191WAT     H1 9815   8.873   8.559   8.952
 3191WAT     H2 9816   8.796   8.685   9.023
 3192WAT      O 9817   7.347   6.826   4.779
 3192WAT     H1 9818   7.372   6.855   4.872
 3192WAT     H2 9819   7.416   6.762   4.745
 3193WAT      O 9820   9.699   1.090   5.146
 3193WAT     H1 9821   9.621   1.121   5.200
 3193WAT     H2 9822   9.736   1.006   5.187
 3194WAT      O 9823   1.515   1.518   4.787
 3194WAT     H1 9824   1.439   1.453   4.797
 3194WAT     H2 9825   1.551   1.514   4.694
 3195WAT      O 9826   4.371   3.422   6.990
 3195WAT     H1 9827   4.318   3.501   6.959
 3195WAT     H2 9828   4.309   3.352   7.026
 3196WAT      O 9829   3.357   3.319   6.058
 3196WAT     H1 9830   3.449   3.324   6.021
 3196WAT     H2 9831   3.290   3.320   5.983
 3197WAT      O 9832   6.671   4.850   6.258
 3197WAT     H1 9833   6.646   4.941   6.292
 3197WAT     H2 9834   6.706   4.795   6.334
 3198WAT      O 9835   7.719   6.625   2.116
 3198WAT     H1 9836   7.773   6.692   2.168
 3198WAT     H2 9837   7.726   6.536   2.160
 3199WAT      O 9838   6.896   8.392   8.836
 3199WAT     H1 9839   6.880   8.315   8.775
 3199WAT     H2 9840   6.855   8.475   8.797
 3200WAT      O 9841   9.811   4.158   2.749
 3200WAT     H1 9842   9.737   4.214   2.786
 3200WAT     H2 9843   9.773   4.074   2.711
 3201WAT      O 9844   1.908   5.269   5.233
 3201WAT     H1 9845   1.949   5.178   5.244
 3201WAT     H2 9846   1.813   5.259   5.204
 3202WAT      O 9847   5.629   0.636   1.506
 3202WAT     H1 9848   5.587   0.639   1.596
 3202WAT     H2 9849   5.688   0.716   1.494
 3203WAT      O 9850   4.844   7.503   0.485
 3203WAT     H1 9851   4.767   7.545   0.534
 3203WAT     H2 9852   4.927   7.556   0.503
 3204WAT      O 9853   9.767   0.667   1.584
 3204WAT     H1 9854   9.753   0.572   1.558
 3204WAT     H2 9855   9.718   0.686   1.669
 3205WAT      O 9856   4.356   4.575   0.904
 3205WAT     H1 9857   4.351   4.562   0.805
 3205WAT     H2 9858   4.432   4.523   0.942
 3206WAT      O 9859   4.740   1.556   5.373
 3206WAT     H1 9860   4.691   1.631   5.418
 3206WAT     H2 9861   4.812   1.593   5.315
 3207WAT      O 9862   2.510   2.379   2.693
 3207WAT     H1 9863   2.486   2.320   2.616
 3207WAT     H2 9864   2.584   2.336   2.745
 3208WAT      O 9865   5.797   0.852   1.500
 3208WAT     H1 9866   5.851   0.925   1.458
 3208WAT     H2 9867   5.858   0.781   1.535
 3209WAT      O 9868   0.199   4.084   4.029
 3209WAT     H1 9869   0.280   4.116   4.079
 3209WAT     H2 9870   0.179   4.147   3.954
 3210WAT      O 9871   1.366   8.814   4.931
 3210WAT     H1 9872   1.457   8.802   4.891
 3210WAT     H2 9873   1.376   8.858   5.021
 3211WAT      O 9874   9.711   6.880   8.710
 3211WAT     H1 9875   9.630   6.860   8.655
 3211WAT     H2 9876   9.772   6.802   8.709
 3212WAT      O 9877   1.959   5.566   0.364
 3212WAT     H1 9878   1.910   5.590   0.448
 3212WAT     H2 9879   1.990   5.471   0.369
 3213WAT      O 9880   2.603   6.293   1.151
 3213WAT     H1 9881   2.633   6.348   1.228
 3213WAT     H2 9882   2.637   6.200   1.160
 3214WAT      O 9883   7.789   3.930   6.283
 3214WAT     H1 9884   7.738   3.914   6.199
 3214WAT     H2 9885   7.887   3.919   6.265
 3215WAT      O 9886   8.009   2.784   4.981
 3215WAT     H1 9887   8.050   2.740   5.061
 3215WAT     H2 9888   8.037   2.736   4.898
 3216WAT      O 9889   6.616   9.396   1.349
 3216WAT     H1 9890   6.635   9.493   1.337
 3216WAT     H2 9891   6.552   9.365   1.280
 3217WAT      O 9892   9.305   4.359   7.448
 3217WAT     H1 9893   9.279   4.343   7.544
 3217WAT     H2 9894   9.304   4.458   7.430
 3218WAT      O 9895   1.682   4.654   6.341
 3218WAT     H1 9896   1.584   4.650   6.321
 3218WAT     H2 9897   1.696   4.641   6.439
 3219WAT      O 9898   2.805   6.555   9.159
 3219WAT     H1 9899   2.844   6.623   9.097
 3219WAT     H2 9900   2.753   6.488   9.105
 3220WAT      O 9901   8.527   7.889   8.762
 3220WAT     H1 9902   8.603   7.952   8.743
 3220WAT     H2 9903   8.467   7.885   8.682
 3221WAT      O 9904   1.188   0.572   9.583
 3221WAT     H1 9905   1.252   0.621   9.642
 3221WAT     H2 9906   1.123   0.521   9.639
 3222WAT      O 9907   4.168   0.274   8.804
 3222WAT     H1 9908   4.218   0.197   8.845
 3222WAT     H2 9909   4.116   0.321   8.875
 3223WAT      O 9910   5.122   4.903   9.021
 3223WAT     H1 9911   5.058   4.826   9.013
 3223WAT     H2 9912   5.211   4.869   9.051
 3224WAT      O 9913   1.569   4.526   5.950
 3224WAT     H1 9914   1.538   4.465   5.877
 3224WAT     H2 9915   1.539   4.619   5.931
 3225WAT      O 9916   6.025   8.996   9.722
 3225WAT     H1 9917   6.017   9.086   9.765
 3225WAT     H2 9918   5.992   9.001   9.628
 3226WAT      O 9919   6.305   5.930   1.259
 3226WAT     H1 9920   6.336   5.836   1.271
 3226WAT     H2 9921   6.217   5.931   1.213
 3227WAT      O 9922   7.335   5.179   6.279
 3227WAT     H1 9923   7.411   5.143   6.226
 3227WAT     H2 9924   7.303   5.264   6.239
 3228WAT      O 9925   3.188   9.226   1.371
 3228WAT     H1 9926   3.096   9.260   1.349
 3228WAT     H2 9927   3.187   9.185   1.463
 3229WAT      O 9928   1.601   5.211   4.525
 3229WAT     H1 9929   1.578   5.114   4.514
 3229WAT     H2 9930   1.628   5.249   4.436
 3230WAT      O 9931   4.209   5.094   5.100
 3230WAT     H1 9932   4.175   5.002   5.120
 3230WAT     H2 9933   4.144   5.161   5.134
 3231WAT      O 9934   3.103   1.681   4.715
 3231WAT     H1 9935   3.162   1.751   4.675
 3231WAT     H2 9936   3.157   1.622   4.775
 3232WAT      O 9937   1.335   3.117   9.660
 3232WAT     H1 9938   1.407   3.173   9.618
 3232WAT     H2 9939   1.356   3.020   9.647
 3233WAT      O 9940   9.779   4.410   7.970
 3233WAT     H1 9941   9.854   4.476   7.973
 3233WAT     H2 9942   9.719   4.432   7.893
 3234WAT      O 9943   2.419   8.608   8.546
 3234WAT     H1 9944   2.373   8.588   8.459
 3234WAT     H2 9945   2.407   8.704   8.569
 3235WAT      O 9946   9.647   1.847   5.624
 3235WAT     H1 9947   9.741   1.851   5.657
 3235WAT     H2 9948   9.643   1.790   5.542
 3236WAT      O 9949   9.104   3.359   8.309
 3236WAT     H1 9950   9.103   3.455   8.338
 3236WAT     H2 9951   9.060   3.351   8.220
 3237WAT      O 9952   7.119   4.148   6.737
 3237WAT     H1 9953   7.044   4.200   6.696
 3237WAT     H2 9954   7.136   4.182   6.830
 3238WAT      O 9955   3.381   0.318   9.518
 3238WAT     H1 9956   3.357   0.248   9.585
 3238WAT     H2 9957   3.402   0.404   9.565
 3239WAT      O 9958   1.197   6.799   4.159
 3239WAT     H1 9959   1.260   6.736   4.113
 3239WAT     H2 9960   1.228   6.816   4.252
 3240WAT      O 9961   1.581   3.581   6.087
 3240WAT     H1 9962   1.521   3.590   6.167
 3240WAT     H2 9963   1.596   3.672   6.047
 3241WAT      O 9964   6.347   1.916   1.378
 3241WAT     H1 9965   6.266   1.875   1.337
 3241WAT     H2 9966   6.380   1.990   1.320
 3242WAT      O 9967   3.403   9.645   4.989
 3242WAT     H1 9968   3.376   9.690   4.903
 3242WAT     H2 9969   3.499   9.620   4.985
 3243WAT      O 9970   7.995   7.951   7.506
 3243WAT     H1 9971   8.034   8.031   7.551
 3243WAT     H2 9972   8.033   7.944   7.413
 3244WAT      O 9973   0.636   6.409   1.517
 3244WAT     H1 9974   0.587   6.358   1.588
 3244WAT     H2 9975   0.720   6.361   1.493
 3245WAT      O 9976   9.878   4.405   4.719
 3245WAT     H1 9977   9.868   4.359   4.807
 3245WAT     H2 9978   9.829   4.492   4.721
 3246WAT      O 9979   2.171   9.760   7.815
 3246WAT     H1 9980   2.214   9.820   7.748
 3246WAT     H2 9981   2.241   9.704   7.860
 3247WAT      O 9982   4.893   6.749   1.020
 3247WAT     H1 9983   4.962   6.821   1.029
 3247WAT     H2 9984   4.825   6.758   1.093
 3248WAT      O 9985   5.364   3.471   8.349
 3248WAT     H1 9986   5.305   3.406   8.302
 3248WAT     H2 9987   5.308   3.546   8.386
 3249WAT      O 9988   1.912   8.035   9.168
 3249WAT     H1 9989   1.886   7.946   9.205
 3249WAT     H2 9990   2.011   8.044   9.169
 3250WAT      O 9991   2.775   8.341   8.813
 3250WAT     H1 9992   2.737   8.267   8.757
 3250WAT     H2 9993   2.777   8.313   8.908
 3251WAT      O 9994   9.489   4.035   1.698
 3251WAT     H1 9995   9.500   4.102   1.625
 3251WAT     H2 9996   9.527   3.947   1.669
 3252WAT      O 9997   2.861   7.673   8.174
 3252WAT     H1 9998   2.807   7.596   8.210
 3252WAT     H2 9999   2.952   7.672   8.216
 3253WAT      O10000   2.351   9.156   3.047
 3253WAT     H110001   2.399   9.218   3.109
 3253WAT     H210002   2.263   9.131   3.087
 3254WAT      O10003   0.909   3.121   1.594
 3254WAT     H110004   0.826   3.074   1.623
 3254WAT     H210005   0.943   3.179   1.668
 3255WAT      O10006   6.632   6.370   8.218
 3255WAT     H110007   6.608   6.430   8.294
 3255WAT     H210008   6.565   6.381   8.144
 3256WAT      O10009   8.930   0.186   1.823
 3256WAT     H110010   8.881   0.100   1.834
 3256WAT     H210011   8.876   0.248   1.765
 3257WAT      O10012   4.910   1.114   8.342
 3257WAT     H110013   4.864   1.041   8.391
 3257WAT     H210014   5.005   1.121   8.373
 3258WAT      O10015   1.843   3.815   5.410
 3258WAT     H110016   1.916   3.882   5.425
 3258WAT     H210017   1.882   3.734   5.366
 3259WAT      O10018   5.737   7.092   4.564
 3259WAT     H110019   5.703   7.154   4.493
 3259WAT     H210020   5.733   7.139   4.652
 3260WAT      O10021   7.752   8.310   1.401
 3260WAT     H110022   7.784   8.391   1.350
 3260WAT     H210023   7.664   8.331   1.443
 3261WAT      O10024   5.797   4.047   0.160
 3261WAT     H110025   5.771   3.974   0.096
 3261WAT     H210026   5.873   4.016   0.217
 3262WAT      O10027   6.465   8.134   5.976
 3262WAT     H110028   6.492   8.070   6.048
 3262WAT     H210029   6.375   8.173   5.998
 3263WAT      O10030   1.121   7.937   8.110
 3263WAT     H110031   1.113   7.838   8.107
 3263WAT     H210032   1.122   7.968   8.205
 3264WAT      O10033   5.101   1.279   4.896
 3264WAT     H110034   5.038   1.328   4.835
 3264WAT     H210035   5.049   1.225   4.962
 3265WAT      O10036   3.315   5.140   5.666
 3265WAT     H110037   3.345   5.044   5.661
 3265WAT     H210038   3.276   5.158   5.756
 3266WAT      O10039   2.622   0.028   5.546
 3266WAT     H110040   2.549   0.097   5.546
 3266WAT     H210041   2.709   0.071   5.521
 3267WAT      O10042   4.186   0.303   2.002
 3267WAT     H110043   4.276   0.277   1.968
 3267WAT     H210044   4.194   0.383   2.061
 3268WAT      O10045   0.831   0.942   0.867
 3268WAT     H110046   0.857   0.999   0.788
 3268WAT     H210047   0.767   0.993   0.925
 3269WAT      O10048   3.836   6.502   1.938
 3269WAT     H110049   3.788   6.559   2.005
 3269WAT     H210050   3.878   6.424   1.985
 3270WAT      O10051   7.346   8.931   1.633
 3270WAT     H110052   7.413   8.949   1.561
 3270WAT     H210053   7.294   8.849   1.610
 3271WAT      O10054   2.615   4.009   4.019
 3271WAT     H110055   2.542   4.026   3.953
 3271WAT     H210056   2.680   4.084   4.016
 3272WAT      O10057   4.520   5.724   5.436
 3272WAT     H110058   4.585   5.683   5.372
 3272WAT     H210059   4.549   5.817   5.458
 3273WAT      O10060   1.442   0.050   7.928
 3273WAT     H110061   1.441   0.147   7.951
 3273WAT     H210062   1.425   0.038   7.830
 3274WAT      O10063   7.643   2.668   3.627
 3274WAT     H110064   7.660   2.599   3.698
 3274WAT     H210065   7.574   2.634   3.564
 3275WAT      O10066   5.069   3.472   7.482
 3275WAT     H110067   5.024   3.503   7.399
 3275WAT     H210068   5.039   3.379   7.504
 3276WAT      O10069   2.212   0.881   8.588
 3276WAT     H110070   2.122   0.924   8.578
 3276WAT     H210071   2.218   0.836   8.677
 3277WAT      O10072   0.110   9.050   6.192
 3277WAT     H110073   0.131   8.994   6.113
 3277WAT     H210074   0.169   9.131   6.193
 3278WAT      O10075   8.929   9.236   4.356
 3278WAT     H110076   8.887   9.154   4.395
 3278WAT     H210077   9.002   9.268   4.416
 3279WAT      O10078   9.485   0.215   1.627
 3279WAT     H110079   9.434   0.133   1.654
 3279WAT     H210080   9.449   0.295   1.674
 3280WAT      O10081   0.735   3.688   2.439
 3280WAT     H110082   0.682   3.610   2.473
 3280WAT     H210083   0.790   3.659   2.360
 3281WAT      O10084   0.885   6.533   6.181
 3281WAT     H110085   0.953   6.597   6.217
 3281WAT     H210086   0.909   6.440   6.209
 3282WAT      O10087   9.463   9.125   2.093
 3282WAT     H110088   9.482   9.048   2.153
 3282WAT     H210089   9.365   9.133   2.079
 3283WAT      O10090   6.673   2.883   4.386
 3283WAT     H110091   6.738   2.957   4.400
 3283WAT     H210092   6.641   2.848   4.474
 3284WAT      O10093   8.255   2.995   3.498
 3284WAT     H110094   8.253   2.898   3.520
 3284WAT     H210095   8.239   3.008   3.401
 3285WAT      O10096   1.677   6.114   7.949
 3285WAT     H110097   1.743   6.129   7.876
 3285WAT     H210098   1.599   6.062   7.912
 3286WAT      O10099   3.338   4.137   3.471
 3286WAT     H110100   3.356   4.058   3.530
 3286WAT     H210101   3.241   4.138   3.444
 3287WAT      O10102   1.382   1.452   0.125
 3287WAT     H110103   1.314   1.379   0.115
 3287WAT     H210104   1.474   1.413   0.128
 3288WAT      O10105   2.684   7.365   0.043
 3288WAT     H110106   2.744   7.407   0.112
 3288WAT     H210107   2.725   7.375  -0.047
 3289WAT      O10108   3.914   7.400   7.939
 3289WAT     H110109   3.901   7.349   8.025
 3289WAT     H210110   3.916   7.498   7.959
 3290WAT      O10111   8.372   5.411   5.775
 3290WAT     H110112   8.280   5.372   5.777
 3290WAT     H210113   8.439   5.339   5.755
 3291WAT      O10114  -0.001   5.590   5.919
 3291WAT     H110115   0.038   5.499   5.927
 3291WAT     H210116   0.032   5.634   5.835
 3292WAT      O10117   4.524   3.302   1.249
 3292WAT     H110118   4.464   3.328   1.325
 3292WAT     H210119   4.540   3.203   1.251
 3293WAT      O10120   2.619   3.661   4.723
 3293WAT     H110121   2.542   3.613   4.767
 3293WAT     H210122   2.597   3.678   4.627
 3294WAT      O10123   7.093   6.952   0.416
 3294WAT     H110124   7.102   6.859   0.452
 3294WAT     H210125   7.134   6.957   0.325
 3295WAT      O10126   7.471   0.906   8.120
 3295WAT     H110127   7.439   0.819   8.156
 3295WAT     H210128   7.552   0.892   8.063
 3296WAT      O10129   7.825   1.326   8.869
 3296WAT     H110130   7.812   1.408   8.813
 3296WAT     H210131   7.786   1.341   8.960
 3297WAT      O10132   0.358   6.168   5.376
 3297WAT     H110133   0.375   6.072   5.353
 3297WAT     H210134   0.384   6.226   5.299
 3298WAT      O10135   2.176   7.936   0.769
 3298WAT     H110136   2.227   8.021   0.776
 3298WAT     H210137   2.228   7.870   0.714
 3299WAT      O10138   5.281   8.974   6.239
 3299WAT     H110139   5.344   9.026   6.182
 3299WAT     H210140   5.190   8.976   6.198
 3300WAT      O10141   3.427   6.397   1.939
 3300WAT     H110142   3.381   6.477   1.900
 3300WAT     H210143   3.360   6.334   1.975
 3301WAT      O10144   8.252   0.831   2.170
 3301WAT     H110145   8.339   0.795   2.204
 3301WAT     H210146   8.176   0.787   2.218
 3302WAT      O10147   7.516   0.190   9.754
 3302WAT     H110148   7.550   0.246   9.830
 3302WAT     H210149   7.421   0.216   9.734
 3303WAT      O10150   5.861   3.102   4.272
 3303WAT     H110151   5.809   3.070   4.194
 3303WAT     H210152   5.848   3.201   4.283
 3304WAT      O10153   1.519   2.172   1.576
 3304WAT     H110154   1.576   2.254   1.582
 3304WAT     H210155   1.573   2.091   1.598
 3305WAT      O10156   6.536   3.686   4.107
 3305WAT     H110157   6.465   3.752   4.082
 3305WAT     H210158   6.589   3.722   4.184
 3306WAT      O10159   9.845   9.798   1.427
 3306WAT     H110160   9.912   9.723   1.432
 3306WAT     H210161   9.867   9.857   1.350
 3307WAT      O10162   7.512   9.080   4.026
 3307WAT     H110163   7.451   9.072   3.947
 3307WAT     H210164   7.518   8.991   4.073
 3308WAT      O10165   4.926   8.290   5.057
 3308WAT     H110166   4.938   8.196   5.090
 3308WAT     H210167   4.851   8.334   5.108
 3309WAT      O10168   7.521   7.108   4.935
 3309WAT     H110169   7.488   7.200   4.956
 3309WAT     H210170   7.452   7.041   4.963
 3310WAT      O10171   3.621   6.055   6.784
 3310WAT     H110172   3.615   6.086   6.879
 3310WAT     H210173   3.585   5.962   6.777
 3311WAT      O10174   4.599   3.126   9.635
 3311WAT     H110175   4.590   3.066   9.556
 3311WAT     H210176   4.645   3.211   9.608
 3312WAT      O10177   4.304   5.769   0.880
 3312WAT     H110178   4.215   5.788   0.839
 3312WAT     H210179   4.292   5.746   0.977
 3313WAT      O10180   7.863   5.592   5.833
 3313WAT     H110181   7.805   5.514   5.808
 3313WAT     H210182   7.822   5.639   5.912
 3314WAT      O10183   7.387   0.600   0.296
 3314WAT     H110184   7.434   0.620   0.210
 3314WAT     H210185   7.454   0.589   0.369
 3315WAT      O10186   6.602   6.519   4.538
 3315WAT     H110187   6.696   6.554   4.539
 3315WAT     H210188   6.548   6.570   4.605
 3316WAT      O10189   9.157   0.051   9.631
 3316WAT     H110190   9.224   0.084   9.565
 3316WAT     H210191   9.170  -0.046   9.647
 3317WAT      O10192   7.479   5.478   6.981
 3317WAT     H110193   7.406   5.411   6.992
 3317WAT     H210194   7.481   5.510   6.887
 3318WAT      O10195   5.391   8.804   3.779
 3318WAT     H110196   5.489   8.793   3.763
 3318WAT     H210197   5.376   8.877   3.846
 3319WAT      O10198   6.458   2.804   6.171
 3319WAT     H110199   6.405   2.801   6.087
 3319WAT     H210200   6.447   2.717   6.220
 3320WAT      O10201   5.587   4.471   2.522
 3320WAT     H110202   5.646   4.436   2.449
 3320WAT     H210203   5.637   4.541   2.574
 3321WAT      O10204   3.314   8.213   3.043
 3321WAT     H110205   3.386   8.264   2.996
 3321WAT     H210206   3.253   8.172   2.975
 3322WAT      O10207   8.095   5.877   0.451
 3322WAT     H110208   8.001   5.909   0.464
 3322WAT     H210209   8.134   5.919   0.369
 3323WAT      O10210   9.770   9.461   4.805
 3323WAT     H110211   9.727   9.374   4.782
 3323WAT     H210212   9.869   9.450   4.807
 3324WAT      O10213   4.835   2.903   9.172
 3324WAT     H110214   4.741   2.926   9.145
 3324WAT     H210215   4.856   2.809   9.142
 3325WAT      O10216   9.353   4.101   8.334
 3325WAT     H110217   9.339   4.026   8.270
 3325WAT     H210218   9.265   4.126   8.376
 3326WAT      O10219   9.429   6.196   4.364
 3326WAT     H110220   9.506   6.257   4.343
 3326WAT     H210221   9.425   6.123   4.295
 3327WAT      O10222   3.079   8.146   7.451
 3327WAT     H110223   3.099   8.184   7.360
 3327WAT     H210224   3.038   8.217   7.508
 3328WAT      O10225   2.413   6.079   6.009
 3328WAT     H110226   2.437   6.032   5.924
 3328WAT     H210227   2.491   6.077   6.071
 3329WAT      O10228   7.013   1.115   0.536
 3329WAT     H110229   7.053   1.024   0.549
 3329WAT     H210230   6.942   1.130   0.604
 3330WAT      O10231   4.515   7.457   3.847
 3330WAT     H110232   4.464   7.519   3.788
 3330WAT     H210233   4.522   7.494   3.939
 3331WAT      O10234   9.060   0.833   6.380
 3331WAT     H110235   9.043   0.783   6.465
 3331WAT     H210236   9.103   0.921   6.401
 3332WAT      O10237   3.367   7.120   4.801
 3332WAT     H110238   3.327   7.124   4.709
 3332WAT     H210239   3.381   7.025   4.827
 3333WAT      O10240   9.213   4.677   2.539
 3333WAT     H110241   9.292   4.659   2.482
 3333WAT     H210242   9.234   4.652   2.634
 3334WAT      O10243   7.579   7.360   1.586
 3334WAT     H110244   7.669   7.363   1.543
 3334WAT     H210245   7.509   7.353   1.515
 3335WAT      O10246   0.748   3.318   9.445
 3335WAT     H110247   0.822   3.264   9.405
 3335WAT     H210248   0.695   3.262   9.508
 3336WAT      O10249   3.660   9.002   6.636
 3336WAT     H110250   3.588   9.071   6.622
 3336WAT     H210251   3.641   8.951   6.719
 3337WAT      O10252   5.490   1.196   7.493
 3337WAT     H110253   5.434   1.238   7.422
 3337WAT     H210254   5.581   1.235   7.492
 3338WAT      O10255   3.240   6.534   7.133
 3338WAT     H110256   3.281   6.548   7.223
 3338WAT     H210257   3.202   6.620   7.099
 3339WAT      O10258   4.464   4.360   9.124
 3339WAT     H110259   4.480   4.449   9.167
 3339WAT     H210260   4.399   4.371   9.048
 3340WAT      O10261   9.806   6.781   9.148
 3340WAT     H110262   9.847   6.870   9.170
 3340WAT     H210263   9.859   6.737   9.075
 3341WAT      O10264   2.068   2.138   7.230
 3341WAT     H110265   2.124   2.061   7.261
 3341WAT     H210266   2.110   2.178   7.148
 3342WAT      O10267   9.139   3.363   1.568
 3342WAT     H110268   9.109   3.409   1.652
 3342WAT     H210269   9.198   3.425   1.516
 3343WAT      O10270   9.879   3.780   9.539
 3343WAT     H110271   9.881   3.727   9.454
 3343WAT     H210272   9.803   3.747   9.597
 3344WAT      O10273   7.333   6.827   8.613
 3344WAT     H110274   7.356   6.789   8.523
 3344WAT     H210275   7.417   6.852   8.661
 3345WAT      O10276   0.184   0.765   9.407
 3345WAT     H110277   0.251   0.744   9.335
 3345WAT     H210278   0.092   0.763   9.368
 3346WAT      O10279   1.293   4.927   3.777
 3346WAT     H110280   1.387   4.953   3.756
 3346WAT     H210281   1.231   4.977   3.716
 3347WAT      O10282   3.740   9.035   2.041
 3347WAT     H110283   3.739   9.002   2.135
 3347WAT     H210284   3.710   9.131   2.039
 3348WAT      O10285   6.404   0.629   0.539
 3348WAT     H110286   6.438   0.551   0.592
 3348WAT     H210287   6.470   0.704   0.543
 3349WAT      O10288   2.645   7.079   0.032
 3349WAT     H110289   2.553   7.073  -0.005
 3349WAT     H210290   2.671   7.176   0.042
 3350WAT      O10291   2.609   1.045   3.484
 3350WAT     H110292   2.618   1.037   3.583
 3350WAT     H210293   2.572   1.135   3.461
 3351WAT      O10294   8.996   5.720   5.896
 3351WAT     H110295   9.058   5.651   5.933
 3351WAT     H210296   9.044   5.808   5.893
 3352WAT      O10297   1.949   9.305   2.625
 3352WAT     H110298   1.872   9.358   2.661
 3352WAT     H210299   1.988   9.249   2.697
 3353WAT      O10300   1.232   0.820   0.686
 3353WAT     H110301   1.174   0.805   0.766
 3353WAT     H210302   1.328   0.818   0.713
 3354WAT      O10303   6.873   6.642   5.464
 3354WAT     H110304   6.861   6.565   5.402
 3354WAT     H210305   6.909   6.720   5.413
 3355WAT      O10306   5.329   5.706   1.257
 3355WAT     H110307   5.345   5.784   1.317
 3355WAT     H210308   5.388   5.630   1.285
 3356WAT      O10309   8.131   7.948   7.996
 3356WAT     H110310   8.068   8.025   8.005
 3356WAT     H210311   8.159   7.939   7.900
 3357WAT      O10312   6.399   0.789   1.513
 3357WAT     H110313   6.463   0.712   1.514
 3357WAT     H210314   6.330   0.777   1.584
 3358WAT      O10315   7.506   8.175   6.316
 3358WAT     H110316   7.470   8.097   6.368
 3358WAT     H210317   7.436   8.210   6.254
 3359WAT      O10318   9.845   0.080   9.008
 3359WAT     H110319   9.825   0.066   8.911
 3359WAT     H210320   9.903   0.006   9.041
 3360WAT      O10321   9.239   0.139   5.218
 3360WAT     H110322   9.324   0.156   5.268
 3360WAT     H210323   9.212   0.043   5.231
 3361WAT      O10324   2.008   6.345   7.397
 3361WAT     H110325   2.044   6.368   7.306
 3361WAT     H210326   2.026   6.249   7.416
 3362WAT      O10327   2.094   4.390   9.468
 3362WAT     H110328   2.171   4.327   9.475
 3362WAT     H210329   2.009   4.338   9.462
 3363WAT      O10330   7.603   9.533   6.325
 3363WAT     H110331   7.546   9.452   6.316
 3363WAT     H210332   7.608   9.561   6.421
 3364WAT      O10333   7.401   2.355   2.488
 3364WAT     H110334   7.339   2.431   2.505
 3364WAT     H210335   7.484   2.369   2.543
 3365WAT      O10336   3.935   3.534   2.681
 3365WAT     H110337   3.895   3.497   2.764
 3365WAT     H210338   3.952   3.632   2.692
 3366WAT      O10339   6.622   1.733   7.673
 3366WAT     H110340   6.659   1.647   7.638
 3366WAT     H210341   6.606   1.725   7.771
 3367WAT      O10342   6.853   5.865   6.657
 3367WAT     H110343   6.930   5.906   6.705
 3367WAT     H210344   6.886   5.819   6.575
 3368WAT      O10345   1.817   5.514   2.896
 3368WAT     H110346   1.857   5.435   2.850
 3368WAT     H210347   1.888   5.563   2.947
 3369WAT      O10348   9.584   5.864   1.119
 3369WAT     H110349   9.562   5.868   1.022
 3369WAT     H210350   9.503   5.836   1.170
 3370WAT      O10351   3.496   6.088   5.962
 3370WAT     H110352   3.428   6.159   5.948
 3370WAT     H210353   3.513   6.040   5.875
 3371WAT      O10354   8.335   3.065   9.554
 3371WAT     H110355   8.364   2.986   9.501
 3371WAT     H210356   8.287   3.034   9.637
 3372WAT      O10357   2.108   0.175   3.736
 3372WAT     H110358   2.071   0.232   3.810
 3372WAT     H210359   2.049   0.095   3.723
 3373WAT      O10360   9.307   4.127   9.306
 3373WAT     H110361   9.388   4.083   9.343
 3373WAT     H210362   9.295   4.216   9.349
 3374WAT      O10363   8.320   3.441   2.203
 3374WAT     H110364   8.276   3.364   2.249
 3374WAT     H210365   8.407   3.412   2.164
 3375WAT      O10366   2.112   1.595   6.631
 3375WAT     H110367   2.051   1.540   6.573
 3375WAT     H210368   2.080   1.592   6.726
 3376WAT      O10369   2.471   0.687   8.694
 3376WAT     H110370   2.443   0.618   8.760
 3376WAT     H210371   2.428   0.668   8.606
 3377WAT      O10372   3.592   7.332   0.656
 3377WAT     H110373   3.625   7.426   0.669
 3377WAT     H210374   3.499   7.334   0.620
 3378WAT      O10375   5.943   4.913   8.759
 3378WAT     H110376   5.846   4.892   8.744
 3378WAT     H210377   5.999   4.867   8.690
 3379WAT      O10378   2.516   2.326   3.394
 3379WAT     H110379   2.513   2.227   3.399
 3379WAT     H210380   2.437   2.360   3.343
 3380WAT      O10381   9.481   2.133   9.783
 3380WAT     H110382   9.385   2.160   9.776
 3380WAT     H210383   9.494   2.044   9.739
 3381WAT      O10384   6.652   1.593   1.827
 3381WAT     H110385   6.706   1.587   1.911
 3381WAT     H210386   6.555   1.598   1.851
 3382WAT      O10387   1.464   5.460   7.046
 3382WAT     H110388   1.415   5.535   7.002
 3382WAT     H210389   1.433   5.453   7.141
 3383WAT      O10390   5.220   9.794   0.380
 3383WAT     H110391   5.164   9.822   0.459
 3383WAT     H210392   5.175   9.718   0.333
 3384WAT      O10393   7.422   9.231   1.766
 3384WAT     H110394   7.514   9.237   1.805
 3384WAT     H210395   7.392   9.136   1.764
 3385WAT      O10396   1.362   2.046   0.923
 3385WAT     H110397   1.271   2.028   0.961
 3385WAT     H210398   1.410   1.960   0.908
 3386WAT      O10399   2.561   0.061   2.582
 3386WAT     H110400   2.579   0.137   2.520
 3386WAT     H210401   2.592   0.084   2.674
 3387WAT      O10402   4.117   7.873   4.644
 3387WAT     H110403   4.080   7.961   4.612
 3387WAT     H210404   4.140   7.880   4.741
 3388WAT      O10405   1.667   7.585   3.139
 3388WAT     H110406   1.625   7.601   3.229
 3388WAT     H210407   1.610   7.626   3.068
 3389WAT      O10408   6.885   6.329   7.277
 3389WAT     H110409   6.823   6.251   7.287
 3389WAT     H210410   6.859   6.382   7.196
 3390WAT      O10411   7.658   4.947   2.446
 3390WAT     H110412   7.570   4.938   2.400
 3390WAT     H210413   7.644   4.959   2.544
 3391WAT      O10414   7.218   4.265   8.415
 3391WAT     H110415   7.318   4.258   8.411
 3391WAT     H210416   7.192   4.337   8.479
 3392WAT      O10417   0.203   7.190   2.982
 3392WAT     H110418   0.146   7.199   3.063
 3392WAT     H210419   0.253   7.276   2.967
 3393WAT      O10420   0.858   7.659   4.580
 3393WAT     H110421   0.826   7.567   4.603
 3393WAT     H210422   0.781   7.722   4.579
 3394WAT      O10423   2.818   8.468   0.254
 3394WAT     H110424   2.889   8.399   0.244
 3394WAT     H210425   2.732   8.424   0.279
 3395WAT      O10426   0.111   1.879   6.658
 3395WAT     H110427   0.149   1.820   6.729
 3395WAT     H210428   0.139   1.974   6.676
 3396WAT      O10429   4.522   9.205   1.367
 3396WAT     H110430   4.424   9.224   1.362
 3396WAT     H210431   4.572   9.291   1.379
 3397WAT      O10432   9.237   1.222   5.755
 3397WAT     H110433   9.286   1.136   5.769
 3397WAT     H210434   9.205   1.257   5.843
 3398WAT      O10435   1.453   2.400   8.487
 3398WAT     H110436   1.525   2.353   8.436
 3398WAT     H210437   1.455   2.369   8.582
 3399WAT      O10438   2.328   3.944   4.296
 3399WAT     H110439   2.384   3.959   4.377
 3399WAT     H210440   2.317   3.846   4.281
 3400WAT      O10441   6.259   2.904   0.783
 3400WAT     H110442   6.334   2.922   0.720
 3400WAT     H210443   6.179   2.874   0.731
 3401WAT      O10444   7.590   3.892   1.503
 3401WAT     H110445   7.557   3.799   1.492
 3401WAT     H210446   7.574   3.943   1.418
 3402WAT      O10447   8.529   1.085   4.972
 3402WAT     H110448   8.496   1.137   4.893
 3402WAT     H210449   8.608   1.132   5.012
 3403WAT      O10450   8.105   0.544   0.152
 3403WAT     H110451   8.200   0.523   0.131
 3403WAT     H210452   8.046   0.469   0.121
 3404WAT      O10453   9.048   1.148   1.541
 3404WAT     H110454   9.107   1.222   1.507
 3404WAT     H210455   8.953   1.175   1.532
 3405WAT      O10456   0.404   0.038   8.957
 3405WAT     H110457   0.492   0.081   8.939
 3405WAT     H210458   0.336   0.108   8.978
 3406WAT      O10459   2.375   6.545   4.744
 3406WAT     H110460   2.354   6.639   4.771
 3406WAT     H210461   2.347   6.483   4.817
 3407WAT      O10462   3.987   0.933   1.628
 3407WAT     H110463   4.016   1.028   1.635
 3407WAT     H210464   4.032   0.889   1.550
 3408WAT      O10465   0.333   1.827   2.645
 3408WAT     H110466   0.245   1.831   2.597
 3408WAT     H210467   0.404   1.871   2.589
 3409WAT      O10468   3.355   3.682   4.020
 3409WAT     H110469   3.351   3.782   4.018
 3409WAT     H210470   3.272   3.645   3.979
 3410WAT      O10471   1.194   4.307   3.885
 3410WAT     H110472   1.204   4.372   3.961
 3410WAT     H210473   1.201   4.213   3.921
 3411WAT      O10474   5.130   6.578   7.152
 3411WAT     H110475   5.192   6.530   7.090
 3411WAT     H210476   5.178   6.656   7.194
 3412WAT      O10477   0.679   7.518   4.213
 3412WAT     H110478   0.743   7.487   4.143
 3412WAT     H210479   0.656   7.615   4.197
 3413WAT      O10480   5.796   3.194   2.980
 3413WAT     H110481   5.806   3.272   2.918
 3413WAT     H210482   5.789   3.110   2.928
 3414WAT      O10483   3.850   3.969   2.541
 3414WAT     H110484   3.885   3.921   2.621
 3414WAT     H210485   3.783   3.911   2.494
 3415WAT      O10486   9.200   3.190   4.777
 3415WAT     H110487   9.226   3.283   4.750
 3415WAT     H210488   9.277   3.128   4.764
 3416WAT      O10489   8.191   5.662   7.134
 3416WAT     H110490   8.115   5.695   7.190
 3416WAT     H210491   8.275   5.664   7.188
 3417WAT      O10492   7.138   6.625   1.353
 3417WAT     H110493   7.108   6.712   1.393
 3417WAT     H210494   7.064   6.587   1.298
 3418WAT      O10495   7.450   8.706   6.161
 3418WAT     H110496   7.458   8.742   6.254
 3418WAT     H210497   7.510   8.626   6.151
 3419WAT      O10498   2.506   6.704   4.209
 3419WAT     H110499   2.482   6.801   4.203
 3419WAT     H210500   2.433   6.656   4.259
 3420WAT      O10501   7.932   5.596   6.584
 3420WAT     H110502   7.834   5.592   6.565
 3420WAT     H210503   7.968   5.503   6.596
 3421WAT      O10504   9.354   4.023   0.677
 3421WAT     H110505   9.448   4.054   0.691
 3421WAT     H210506   9.355   3.926   0.650
 3422WAT      O10507   2.909   5.267   2.454
 3422WAT     H110508   2.981   5.217   2.406
 3422WAT     H210509   2.830   5.207   2.466
 3423WAT      O10510   0.301   1.049   8.503
 3423WAT     H110511   0.379   1.096   8.546
 3423WAT     H210512   0.296   0.955   8.536
 3424WAT      O10513   7.962   0.891   1.958
 3424WAT     H110514   7.930   0.983   1.936
 3424WAT     H210515   8.060   0.884   1.942
 3425WAT      O10516   9.722   2.500   2.270
 3425WAT     H110517   9.748   2.446   2.190
 3425WAT     H210518   9.623   2.510   2.273
 3426WAT      O10519   6.038   7.531   2.167
 3426WAT     H110520   5.940   7.548   2.163
 3426WAT     H210521   6.058   7.441   2.130
 3427WAT      O10522   5.995   5.811   7.244
 3427WAT     H110523   5.936   5.742   7.288
 3427WAT     H210524   5.942   5.895   7.229
 3428WAT      O10525   5.790   3.088   3.519
 3428WAT     H110526   5.832   3.105   3.430
 3428WAT     H210527   5.692   3.109   3.515
 3429WAT      O10528   2.260   5.112   9.138
 3429WAT     H110529   2.223   5.148   9.224
 3429WAT     H210530   2.332   5.173   9.105
 3430WAT      O10531   3.055   5.808   7.317
 3430WAT     H110532   3.054   5.720   7.365
 3430WAT     H210533   3.008   5.799   7.230
 3431WAT      O10534   4.793   1.498   9.651
 3431WAT     H110535   4.835   1.530   9.566
 3431WAT     H210536   4.790   1.398   9.651
 3432WAT      O10537   8.507   3.356   5.420
 3432WAT     H110538   8.534   3.355   5.516
 3432WAT     H210539   8.541   3.439   5.376
 3433WAT      O10540   6.531   1.703   0.019
 3433WAT     H110541   6.554   1.735   0.111
 3433WAT     H210542   6.613   1.704  -0.038
 3434WAT      O10543   7.248   8.831   8.583
 3434WAT     H110544   7.301   8.755   8.620
 3434WAT     H210545   7.151   8.816   8.604
 3435WAT      O10546   3.829   4.115   9.709
 3435WAT     H110547   3.779   4.196   9.742
 3435WAT     H210548   3.854   4.057   9.787
 3436WAT      O10549   1.942   7.530   6.053
 3436WAT     H110550   1.872   7.529   5.981
 3436WAT     H210551   1.935   7.614   6.105
 3437WAT      O10552   3.808   5.670   4.745
 3437WAT     H110553   3.820   5.680   4.844
 3437WAT     H210554   3.882   5.718   4.697
 3438WAT      O10555   0.672   2.242   3.232
 3438WAT     H110556   0.620   2.255   3.316
 3438WAT     H210557   0.692   2.145   3.219
 3439WAT      O10558   9.302   7.568   2.311
 3439WAT     H110559   9.221   7.538   2.361
 3439WAT     H210560   9.285   7.658   2.271
 3440WAT      O10561   7.720   8.846   8.996
 3440WAT     H110562   7.623   8.843   9.021
 3440WAT     H210563   7.732   8.902   8.914
 3441WAT      O10564   8.204   7.693   7.592
 3441WAT     H110565   8.116   7.679   7.546
 3441WAT     H210566   8.233   7.607   7.635
 3442WAT      O10567   6.876   8.730   7.119
 3442WAT     H110568   6.843   8.824   7.113
 3442WAT     H210569   6.915   8.714   7.209
 3443WAT      O10570   4.286   2.898   7.040
 3443WAT     H110571   4.252   2.804   7.035
 3443WAT     H210572   4.350   2.915   6.966
 3444WAT      O10573   9.843   8.326   6.989
 3444WAT     H110574   9.930   8.375   6.983
 3444WAT     H210575   9.834   8.265   6.910
 3445WAT      O10576   2.892   7.552   7.280
 3445WAT     H110577   2.796   7.557   7.307
 3445WAT     H210578   2.898   7.517   7.186
 3446WAT      O10579   0.992   8.755   3.098
 3446WAT     H110580   0.915   8.814   3.121
 3446WAT     H210581   0.968   8.660   3.116
 3447WAT      O10582   8.679   2.429   2.246
 3447WAT     H110583   8.625   2.500   2.200
 3447WAT     H210584   8.776   2.452   2.242
 3448WAT      O10585   9.517   0.875   3.092
 3448WAT     H110586   9.609   0.913   3.104
 3448WAT     H210587   9.523   0.778   3.072
 3449WAT      O10588   1.115   5.473   9.739
 3449WAT     H110589   1.180   5.477   9.814
 3449WAT     H210590   1.155   5.516   9.658
 3450WAT      O10591   7.048   1.573   1.682
 3450WAT     H110592   7.021   1.622   1.765
 3450WAT     H210593   7.127   1.515   1.702
 3451WAT      O10594   6.904   6.044   9.727
 3451WAT     H110595   6.849   6.092   9.795
 3451WAT     H210596   6.908   5.947   9.750
 3452WAT      O10597   6.267   8.226   7.957
 3452WAT     H110598   6.259   8.219   8.056
 3452WAT     H210599   6.312   8.144   7.922
 3453WAT      O10600   2.961   2.505   7.418
 3453WAT     H110601   3.018   2.586   7.408
 3453WAT     H210602   3.000   2.445   7.487
 3454WAT      O10603   6.457   0.925   4.131
 3454WAT     H110604   6.470   0.828   4.111
 3454WAT     H210605   6.526   0.979   4.084
 3455WAT      O10606   0.876   6.545   3.051
 3455WAT     H110607   0.953   6.481   3.045
 3455WAT     H210608   0.819   6.520   3.129
 3456WAT      O10609   2.683   8.019   9.047
 3456WAT     H110610   2.681   7.943   9.111
 3456WAT     H210611   2.762   8.077   9.066
 3457WAT      O10612   8.705   1.938   6.174
 3457WAT     H110613   8.617   1.904   6.206
 3457WAT     H210614   8.750   1.868   6.119
 3458WAT      O10615   8.872   1.886   3.732
 3458WAT     H110616   8.960   1.908   3.691
 3458WAT     H210617   8.886   1.838   3.818
 3459WAT      O10618   5.547   1.863   0.392
 3459WAT     H110619   5.605   1.915   0.329
 3459WAT     H210620   5.565   1.766   0.380
 3460WAT      O10621   0.930   5.303   0.193
 3460WAT     H110622   1.024   5.334   0.205
 3460WAT     H210623   0.888   5.353   0.117
 3461WAT      O10624   6.748   3.144   5.171
 3461WAT     H110625   6.718   3.132   5.076
 3461WAT     H210626   6.831   3.090   5.186
 3462WAT      O10627   7.577   7.538   9.454
 3462WAT     H110628   7.603   7.597   9.377
 3462WAT     H210629   7.572   7.443   9.423
 3463WAT      O10630   3.018   4.705   0.032
 3463WAT     H110631   2.932   4.704   0.083
 3463WAT     H210632   3.087   4.652   0.083
 3464WAT      O10633   3.374   4.035   7.599
 3464WAT     H110634   3.441   3.981   7.548
 3464WAT     H210635   3.420   4.114   7.641
 3465WAT      O10636   0.584   7.965   4.369
 3465WAT     H110637   0.623   8.052   4.340
 3465WAT     H210638   0.484   7.972   4.371
 3466WAT      O10639   0.769   5.777   6.223
 3466WAT     H110640   0.815   5.827   6.150
 3466WAT     H210641   0.675   5.809   6.232
 3467WAT      O10642   0.982   7.857   6.808
 3467WAT     H110643   0.919   7.872   6.732
 3467WAT     H210644   1.064   7.810   6.775
 3468WAT      O10645   5.977   2.228   6.073
 3468WAT     H110646   6.058   2.220   6.131
 3468WAT     H210647   5.898   2.189   6.120
 3469WAT      O10648   1.066   8.561   9.518
 3469WAT     H110649   1.118   8.536   9.437
 3469WAT     H210650   1.093   8.503   9.595
 3470WAT      O10651   3.268   1.024   7.644
 3470WAT     H110652   3.211   1.086   7.591
 3470WAT     H210653   3.318   1.075   7.714
 3471WAT      O10654   7.455   5.342   9.042
 3471WAT     H110655   7.516   5.294   9.104
 3471WAT     H210656   7.425   5.428   9.084
 3472WAT      O10657   4.989   3.532   4.904
 3472WAT     H110658   4.959   3.499   4.815
 3472WAT     H210659   4.970   3.462   4.973
 3473WAT      O10660   7.919   4.886   8.258
 3473WAT     H110661   7.969   4.869   8.173
 3473WAT     H210662   7.839   4.826   8.262
 3474WAT      O10663   3.173   6.240   0.685
 3474WAT     H110664   3.139   6.208   0.596
 3474WAT     H210665   3.251   6.301   0.671
 3475WAT      O10666   8.381   7.375   1.808
 3475WAT     H110667   8.380   7.335   1.716
 3475WAT     H210668   8.473   7.408   1.829
 3476WAT      O10669   6.888   0.724   6.032
 3476WAT     H110670   6.864   0.669   5.952
 3476WAT     H210671   6.807   0.774   6.063
 3477WAT      O10672   0.172   8.125   2.714
 3477WAT     H110673   0.094   8.186   2.729
 3477WAT     H210674   0.169   8.051   2.781
 3478WAT      O10675   3.409   2.678   8.094
 3478WAT     H110676   3.508   2.668   8.080
 3478WAT     H210677   3.376   2.757   8.043
 3479WAT      O10678   8.874   4.574   3.042
 3479WAT     H110679   8.881   4.657   2.987
 3479WAT     H210680   8.928   4.585   3.126
 3480WAT      O10681   3.569   3.612   0.445
 3480WAT     H110682   3.570   3.711   0.442
 3480WAT     H210683   3.610   3.575   0.362
 3481WAT      O10684   0.540   5.059   3.780
 3481WAT     H110685   0.469   5.033   3.715
 3481WAT     H210686   0.503   5.051   3.873
 3482WAT      O10687   5.656   0.583   4.103
 3482WAT     H110688   5.690   0.490   4.094
 3482WAT     H210689   5.556   0.584   4.092
 3483WAT      O10690   8.752   7.856   4.014
 3483WAT     H110691   8.754   7.819   4.107
 3483WAT     H210692   8.730   7.782   3.950
 3484WAT      O10693   2.002   2.359   7.364
 3484WAT     H110694   1.940   2.354   7.443
 3484WAT     H210695   2.015   2.268   7.327
 3485WAT      O10696   4.480   0.962   8.555
 3485WAT     H110697   4.465   0.977   8.457
 3485WAT     H210698   4.406   0.906   8.591
 3486WAT      O10699   2.564   1.948   9.780
 3486WAT     H110700   2.635   2.004   9.821
 3486WAT     H210701   2.480   2.002   9.770
 3487WAT      O10702   7.063   1.093   6.711
 3487WAT     H110703   7.056   0.997   6.740
 3487WAT     H210704   7.115   1.098   6.626
 3488WAT      O10705   0.127   7.404   7.296
 3488WAT     H110706   0.140   7.327   7.358
 3488WAT     H210707   0.067   7.377   7.221
 3489WAT      O10708   2.807   3.046   0.606
 3489WAT     H110709   2.841   3.053   0.700
 3489WAT     H210710   2.885   3.031   0.545
 3490WAT      O10711   2.878   1.454   6.188
 3490WAT     H110712   2.975   1.476   6.173
 3490WAT     H210713   2.865   1.356   6.180
 3491WAT      O10714   8.787   3.269   6.994
 3491WAT     H110715   8.717   3.206   7.027
 3491WAT     H210716   8.770   3.361   7.030
 3492WAT      O10717   4.107   8.194   5.199
 3492WAT     H110718   4.166   8.217   5.121
 3492WAT     H210719   4.164   8.170   5.277
 3493WAT      O10720   0.461   5.589   9.815
 3493WAT     H110721   0.553   5.592   9.853
 3493WAT     H210722   0.459   5.634   9.726
 3494WAT      O10723   4.203   7.875   4.893
 3494WAT     H110724   4.140   7.886   4.970
 3494WAT     H210725   4.291   7.917   4.915
 3495WAT      O10726   2.814   7.823   6.435
 3495WAT     H110727   2.798   7.913   6.476
 3495WAT     H210728   2.866   7.834   6.351
 3496WAT      O10729   8.079   8.369   9.232
 3496WAT     H110730   8.094   8.286   9.286
 3496WAT     H210731   8.163   8.394   9.185
 3497WAT      O10732   9.714   0.412   2.839
 3497WAT     H110733   9.620   0.446   2.837
 3497WAT     H210734   9.749   0.406   2.745
 3498WAT      O10735   3.070   0.828   3.457
 3498WAT     H110736   3.024   0.916   3.442
 3498WAT     H210737   3.168   0.842   3.465
 3499WAT      O10738   6.168   8.091   6.904
 3499WAT     H110739   6.247   8.043   6.867
 3499WAT     H210740   6.172   8.090   7.004
 3500WAT      O10741   1.766   5.970   9.455
 3500WAT     H110742   1.840   5.964   9.522
 3500WAT     H210743   1.786   6.043   9.389
 3501WAT      O10744   7.414   6.281   9.448
 3501WAT     H110745   7.412   6.213   9.374
 3501WAT     H210746   7.505   6.283   9.489
 3502WAT      O10747   0.648   1.873   2.425
 3502WAT     H110748   0.640   1.800   2.493
 3502WAT     H210749   0.672   1.958   2.472
 3503WAT      O10750   2.703   7.268   8.363
 3503WAT     H110751   2.698   7.344   8.297
 3503WAT     H210752   2.667   7.298   8.451
 3504WAT      O10753   2.268   9.410   6.155
 3504WAT     H110754   2.188   9.469   6.144
 3504WAT     H210755   2.266   9.367   6.245
 3505WAT      O10756   2.094   3.751   7.377
 3505WAT     H110757   2.051   3.663   7.356
 3505WAT     H210758   2.023   3.822   7.385
 3506WAT      O10759   6.096   8.172   0.800
 3506WAT     H110760   6.118   8.182   0.703
 3506WAT     H210761   6.052   8.083   0.814
 3507WAT      O10762   9.203   0.316   8.536
 3507WAT     H110763   9.207   0.346   8.441
 3507WAT     H210764   9.128   0.363   8.583
 3508WAT      O10765   6.397   4.714   7.406
 3508WAT     H110766   6.481   4.669   7.436
 3508WAT     H210767   6.381   4.694   7.309
 3509WAT      O10768   0.614   0.563   7.050
 3509WAT     H110769   0.579   0.479   7.091
 3509WAT     H210770   0.540   0.629   7.040
 3510WAT      O10771   3.777   1.474   2.617
 3510WAT     H110772   3.687   1.515   2.631
 3510WAT     H210773   3.843   1.515   2.680
 3511WAT      O10774   2.889   4.093   6.070
 3511WAT     H110775   2.923   4.087   5.976
 3511WAT     H210776   2.967   4.099   6.133
 3512WAT      O10777   6.175   7.514   2.414
 3512WAT     H110778   6.221   7.441   2.364
 3512WAT     H210779   6.102   7.553   2.357
 3513WAT      O10780   1.924   4.031   2.605
 3513WAT     H110781   1.899   4.078   2.521
 3513WAT     H210782   1.994   4.085   2.653
 3514WAT      O10783   5.506   1.377   0.198
 3514WAT     H110784   5.438   1.319   0.155
 3514WAT     H210785   5.564   1.322   0.259
 3515WAT      O10786   2.717   6.038   1.198
 3515WAT     H110787   2.729   5.956   1.143
 3515WAT     H210788   2.769   6.029   1.283
 3516WAT      O10789   8.154   1.797   4.473
 3516WAT     H110790   8.110   1.753   4.394
 3516WAT     H210791   8.253   1.791   4.464
 3517WAT      O10792   9.514   8.815   0.538
 3517WAT     H110793   9.468   8.873   0.605
 3517WAT     H210794   9.465   8.728   0.530
 3518WAT      O10795   3.547   6.573   0.965
 3518WAT     H110796   3.521   6.519   1.046
 3518WAT     H210797   3.591   6.513   0.898
 3519WAT      O10798   5.348   8.745   7.270
 3519WAT     H110799   5.437   8.787   7.286
 3519WAT     H210800   5.354   8.681   7.193
 3520WAT      O10801   7.823   5.033   4.571
 3520WAT     H110802   7.899   5.096   4.558
 3520WAT     H210803   7.858   4.939   4.580
 3521WAT      O10804   1.444   8.950   2.718
 3521WAT     H110805   1.530   8.980   2.760
 3521WAT     H210806   1.367   8.990   2.767
 3522WAT      O10807   7.671   1.515   9.572
 3522WAT     H110808   7.706   1.606   9.592
 3522WAT     H210809   7.630   1.514   9.480
 3523WAT      O10810   9.726   1.740   0.040
 3523WAT     H110811   9.651   1.726   0.104
 3523WAT     H210812   9.809   1.762   0.090
 3524WAT      O10813   7.528   5.285   9.582
 3524WAT     H110814   7.524   5.325   9.674
 3524WAT     H210815   7.561   5.191   9.588
 3525WAT      O10816   2.353   8.607   6.528
 3525WAT     H110817   2.368   8.593   6.430
 3525WAT     H210818   2.359   8.519   6.575
 3526WAT      O10819   2.523   8.156   5.868
 3526WAT     H110820   2.486   8.212   5.941
 3526WAT     H210821   2.509   8.202   5.780
 3527WAT      O10822   7.008   7.854   0.054
 3527WAT     H110823   7.097   7.887   0.021
 3527WAT     H210824   6.972   7.918   0.122
 3528WAT      O10825   9.292   1.394   2.912
 3528WAT     H110826   9.222   1.389   2.983
 3528WAT     H210827   9.372   1.442   2.948
 3529WAT      O10828   4.497   9.147   9.223
 3529WAT     H110829   4.536   9.124   9.134
 3529WAT     H210830   4.558   9.210   9.271
 3530WAT      O10831   2.222   9.447   1.758
 3530WAT     H110832   2.192   9.372   1.699
 3530WAT     H210833   2.294   9.413   1.819
 3531WAT      O10834   1.353   6.339   4.185
 3531WAT     H110835   1.304   6.420   4.155
 3531WAT     H210836   1.290   6.261   4.187
 3532WAT      O10837   3.176   2.466   0.006
 3532WAT     H110838   3.180   2.403   0.084
 3532WAT     H210839   3.092   2.450  -0.046
 3533WAT      O10840   3.258   4.712   9.746
 3533WAT     H110841   3.302   4.744   9.829
 3533WAT     H210842   3.182   4.651   9.769
 3534WAT      O10843   6.607   6.938   4.212
 3534WAT     H110844   6.521   6.953   4.164
 3534WAT     H210845   6.682   6.934   4.146
 3535WAT      O10846   8.484   2.454   3.089
 3535WAT     H110847   8.444   2.441   3.179
 3535WAT     H210848   8.434   2.398   3.022
 3536WAT      O10849   6.528   3.948   6.524
 3536WAT     H110850   6.501   3.945   6.428
 3536WAT     H210851   6.461   3.899   6.580
 3537WAT      O10852   6.552   2.292   0.075
 3537WAT     H110853   6.461   2.266   0.041
 3537WAT     H210854   6.583   2.373   0.026
 3538WAT      O10855   6.344   0.513   5.646
 3538WAT     H110856   6.347   0.612   5.639
 3538WAT     H210857   6.307   0.474   5.562
 3539WAT      O10858   1.089   7.669   8.115
 3539WAT     H110859   1.055   7.620   8.195
 3539WAT     H210860   1.017   7.672   8.045
 3540WAT      O10861   3.829   5.870   1.910
 3540WAT     H110862   3.863   5.909   1.995
 3540WAT     H210863   3.759   5.930   1.870
 3541WAT      O10864   7.806   9.201   9.029
 3541WAT     H110865   7.773   9.168   9.117
 3541WAT     H210866   7.838   9.295   9.037
 3542WAT      O10867   0.657   3.841   8.644
 3542WAT     H110868   0.608   3.928   8.634
 3542WAT     H210869   0.592   3.765   8.645
 3543WAT      O10870   4.185   7.712   2.272
 3543WAT     H110871   4.154   7.703   2.366
 3543WAT     H210872   4.212   7.807   2.255
 3544WAT      O10873   4.935   7.667   7.474
 3544WAT     H110874   4.974   7.666   7.566
 3544WAT     H210875   5.007   7.646   7.408
 3545WAT      O10876   6.933   6.735   9.284
 3545WAT     H110877   7.018   6.683   9.292
 3545WAT     H210878   6.862   6.690   9.339
 3546WAT      O10879   3.476   2.115   3.717
 3546WAT     H110880   3.379   2.140   3.716
 3546WAT     H210881   3.515   2.131   3.626
 3547WAT      O10882   7.463   0.074   3.136
 3547WAT     H110883   7.417   0.113   3.056
 3547WAT     H210884   7.485  -0.021   3.118
 3548WAT      O10885   9.058   9.472   2.867
 3548WAT     H110886   9.087   9.419   2.946
 3548WAT     H210887   9.131   9.471   2.798
 3549WAT      O10888   6.150   2.909   2.361
 3549WAT     H110889   6.184   2.939   2.450
 3549WAT     H210890   6.133   2.989   2.303
 3550WAT      O10891   0.728   7.901   5.055
 3550WAT     H110892   0.680   7.982   5.089
 3550WAT     H210893   0.750   7.841   5.132
 3551WAT      O10894   8.915   6.762   6.375
 3551WAT     H110895   8.879   6.810   6.295
 3551WAT     H210896   8.957   6.828   6.437
 3552WAT      O10897   8.306   6.569   3.843
 3552WAT     H110898   8.284   6.547   3.938
 3552WAT     H210899   8.389   6.522   3.815
 3553WAT      O10900   0.190   5.464   6.214
 3553WAT     H110901   0.254   5.541   6.212
 3553WAT     H210902   0.229   5.389   6.267
 3554WAT      O10903   3.421   4.723   2.198
 3554WAT     H110904   3.442   4.797   2.135
 3554WAT     H210905   3.372   4.650   2.149
 3555WAT      O10906   9.840   0.196   2.958
 3555WAT     H110907   9.795   0.284   2.941
 3555WAT     H210908   9.908   0.207   3.030
 3556WAT      O10909   0.001   6.218   5.081
 3556WAT     H110910  -0.069   6.182   5.020
 3556WAT     H210911   0.056   6.286   5.032
 3557WAT      O10912   6.777   2.007   1.753
 3557WAT     H110913   6.857   2.060   1.724
 3557WAT     H210914   6.779   1.918   1.708
 3558WAT      O10915   0.353   1.685   7.338
 3558WAT     H110916   0.363   1.774   7.294
 3558WAT     H210917   0.341   1.697   7.436
 3559WAT      O10918   2.663   8.672   5.232
 3559WAT     H110919   2.694   8.670   5.327
 3559WAT     H210920   2.735   8.713   5.175
 3560WAT      O10921   6.028   5.448   3.336
 3560WAT     H110922   5.966   5.383   3.291
 3560WAT     H210923   6.047   5.415   3.429
 3561WAT      O10924   4.940   2.161   1.632
 3561WAT     H110925   5.014   2.228   1.627
 3561WAT     H210926   4.946   2.098   1.554
 3562WAT      O10927   6.399   9.654   6.658
 3562WAT     H110928   6.324   9.606   6.702
 3562WAT     H210929   6.379   9.664   6.560
 3563WAT      O10930   9.315   3.958   2.091
 3563WAT     H110931   9.290   3.972   1.996
 3563WAT     H210932   9.414   3.949   2.099
 3564WAT      O10933   1.946   6.438   2.532
 3564WAT     H110934   1.901   6.518   2.572
 3564WAT     H210935   1.918   6.356   2.582
 3565WAT      O10936   2.626   8.597   3.270
 3565WAT     H110937   2.583   8.520   3.316
 3565WAT     H210938   2.557   8.666   3.249
 3566WAT      O10939   9.499   3.805   0.912
 3566WAT     H110940   9.594   3.799   0.880
 3566WAT     H210941   9.496   3.855   0.998
 3567WAT      O10942   4.616   0.404   7.428
 3567WAT     H110943   4.609   0.322   7.485
 3567WAT     H210944   4.604   0.379   7.332
 3568WAT      O10945   3.625   0.969   4.759
 3568WAT     H110946   3.715   0.990   4.799
 3568WAT     H210947   3.554   0.982   4.828
 3569WAT      O10948   0.266   9.411   0.619
 3569WAT     H110949   0.239   9.394   0.714
 3569WAT     H210950   0.311   9.330   0.583
 3570WAT      O10951   5.393   6.811   0.304
 3570WAT     H110952   5.354   6.863   0.380
 3570WAT     H210953   5.489   6.790   0.323
 3571WAT      O10954   9.192   6.979   6.118
 3571WAT     H110955   9.139   7.063   6.104
 3571WAT     H210956   9.245   6.959   6.036
 3572WAT      O10957   0.575   5.747   4.834
 3572WAT     H110958   0.563   5.786   4.926
 3572WAT     H210959   0.488   5.751   4.785
 3573WAT      O10960   6.056   7.312   1.973
 3573WAT     H110961   6.153   7.287   1.973
 3573WAT     H210962   6.022   7.315   1.879
 3574WAT      O10963   0.653   8.773   1.893
 3574WAT     H110964   0.735   8.820   1.925
 3574WAT     H210965   0.667   8.674   1.899
 3575WAT      O10966   7.307   8.088   9.241
 3575WAT     H110967   7.358   8.063   9.159
 3575WAT     H210968   7.332   8.181   9.268
 3576WAT      O10969   0.492   7.677   4.921
 3576WAT     H110970   0.431   7.651   4.847
 3576WAT     H210971   0.510   7.776   4.916
 3577WAT      O10972   8.058   1.188   8.149
 3577WAT     H110973   8.042   1.274   8.197
 3577WAT     H210974   8.104   1.124   8.210
 3578WAT      O10975   7.676   6.999   5.362
 3578WAT     H110976   7.703   7.068   5.430
 3578WAT     H210977   7.749   6.933   5.351
 3579WAT      O10978   4.603   9.831   3.296
 3579WAT     H110979   4.563   9.884   3.371
 3579WAT     H210980   4.692   9.796   3.325
 3580WAT      O10981   9.770   2.412   2.016
 3580WAT     H110982   9.757   2.313   2.009
 3580WAT     H210983   9.836   2.442   1.948
 3581WAT      O10984   6.287   7.828   4.228
 3581WAT     H110985   6.230   7.791   4.301
 3581WAT     H210986   6.266   7.781   4.142
 3582WAT      O10987   3.307   9.210   4.670
 3582WAT     H110988   3.388   9.228   4.726
 3582WAT     H210989   3.321   9.127   4.616
 3583WAT      O10990   1.146   4.541   4.885
 3583WAT     H110991   1.105   4.556   4.975
 3583WAT     H210992   1.227   4.484   4.894
 3584WAT      O10993   0.099   1.492   0.552
 3584WAT     H110994   0.192   1.530   0.547
 3584WAT     H210995   0.046   1.524   0.473
 3585WAT      O10996   2.430   4.856   0.966
 3585WAT     H110997   2.358   4.920   0.941
 3585WAT     H210998   2.411   4.818   1.057
 3586WAT      O10999   3.299   6.566   4.251
 3586WAT     H111000   3.262   6.488   4.301
 3586WAT     H211001   3.246   6.580   4.167
 3587WAT      O11002   0.425   5.176   3.115
 3587WAT     H111003   0.502   5.142   3.169
 3587WAT     H211004   0.435   5.144   3.021
 3588WAT      O11005   2.408   2.876   6.660
 3588WAT     H111006   2.337   2.886   6.730
 3588WAT     H211007   2.369   2.838   6.577
 3589WAT      O11008   4.953   7.746   3.559
 3589WAT     H111009   5.001   7.834   3.555
 3589WAT     H211010   4.992   7.683   3.492
 3590WAT      O11011   2.755   2.519   7.660
 3590WAT     H111012   2.701   2.476   7.732
 3590WAT     H211013   2.829   2.573   7.701
 3591WAT      O11014   0.308   2.532   5.639
 3591WAT     H111015   0.402   2.556   5.663
 3591WAT     H211016   0.303   2.506   5.542
 3592WAT      O11017   1.969   7.114   7.447
 3592WAT     H111018   2.032   7.037   7.458
 3592WAT     H211019   1.925   7.109   7.358
 3593WAT      O11020   6.275   2.569   0.773
 3593WAT     H111021   6.276   2.661   0.735
 3593WAT     H211022   6.303   2.504   0.702
 3594WAT      O11023   0.127   8.134   8.506
 3594WAT     H111024   0.060   8.105   8.439
 3594WAT     H211025   0.129   8.234   8.511
 3595WAT      O11026   2.453   2.179   4.721
 3595WAT     H111027   2.366   2.193   4.674
 3595WAT     H211028   2.440   2.118   4.799
 3596WAT      O11029   2.829   9.399   0.096
 3596WAT     H111030   2.903   9.337   0.070
 3596WAT     H211031   2.865   9.492   0.103
 3597WAT      O11032   2.667   2.266   8.866
 3597WAT     H111033   2.671   2.191   8.932
 3597WAT     H211034   2.601   2.334   8.897
 3598WAT      O11035   1.592   2.634   5.074
 3598WAT     H111036   1.506   2.589   5.047
 3598WAT     H211037   1.575   2.731   5.091
 3599WAT      O11038   0.086   2.041   2.195
 3599WAT     H111039   0.123   2.051   2.288
 3599WAT     H211040   0.144   2.092   2.131
 3600WAT      O11041   8.354   6.921   1.107
 3600WAT     H111042   8.351   7.020   1.091
 3600WAT     H211043   8.424   6.880   1.049
 3601WAT      O11044   5.026   8.406   1.644
 3601WAT     H111045   5.072   8.319   1.658
 3601WAT     H211046   5.017   8.425   1.546
 3602WAT      O11047   8.445   6.390   9.268
 3602WAT     H111048   8.409   6.335   9.192
 3602WAT     H211049   8.380   6.389   9.344
 3603WAT      O11050   4.413   3.348   4.568
 3603WAT     H111051   4.351   3.422   4.543
 3603WAT     H211052   4.390   3.266   4.515
 3604WAT      O11053   4.604   7.416   9.764
 3604WAT     H111054   4.640   7.351   9.696
 3604WAT     H211055   4.614   7.378   9.855
 3605WAT      O11056   1.112   7.329   0.583
 3605WAT     H111057   1.126   7.311   0.681
 3605WAT     H211058   1.102   7.243   0.534
 3606WAT      O11059   3.664   8.284   2.705
 3606WAT     H111060   3.764   8.283   2.716
 3606WAT     H211061   3.622   8.264   2.794
 3607WAT      O11062   6.049   7.598   5.900
 3607WAT     H111063   5.983   7.525   5.888
 3607WAT     H211064   6.031   7.647   5.985
 3608WAT      O11065   8.888   4.447   9.418
 3608WAT     H111066   8.881   4.351   9.390
 3608WAT     H211067   8.911   4.453   9.515
 3609WAT      O11068   7.294   5.420   1.392
 3609WAT     H111069   7.246   5.389   1.310
 3609WAT     H211070   7.231   5.473   1.449
 3610WAT      O11071   6.961   5.570   9.646
 3610WAT     H111072   7.048   5.610   9.675
 3610WAT     H211073   6.957   5.568   9.546
 3611WAT      O11074   3.196   6.234   2.019
 3611WAT     H111075   3.138   6.238   1.938
 3611WAT     H211076   3.153   6.286   2.093
 3612WAT      O11077   7.865   1.949   1.378
 3612WAT     H111078   7.914   1.991   1.302
 3612WAT     H211079   7.780   1.909   1.345
 3613WAT      O11080   1.531   0.335   1.326
 3613WAT     H111081   1.527   0.431   1.296
 3613WAT     H211082   1.564   0.331   1.420
 3614WAT      O11083   0.940   2.775   4.011
 3614WAT     H111084   0.974   2.865   4.039
 3614WAT     H211085   0.842   2.770   4.027
 3615WAT      O11086   5.198   5.517   9.775
 3615WAT     H111087   5.225   5.459   9.698
 3615WAT     H211088   5.219   5.471   9.861
 3616WAT      O11089   9.681   1.923   4.200
 3616WAT     H111090   9.669   1.918   4.101
 3616WAT     H211091   9.630   2.001   4.237
 3617WAT      O11092   0.995   2.106   7.955
 3617WAT     H111093   0.971   2.018   7.996
 3617WAT     H211094   0.956   2.112   7.863
 3618WAT      O11095   2.932   9.286   3.211
 3618WAT     H111096   2.899   9.329   3.126
 3618WAT     H211097   2.905   9.190   3.212
 3619WAT      O11098   1.684   9.365   9.761
 3619WAT     H111099   1.616   9.438   9.753
 3619WAT     H211100   1.668   9.313   9.845
 3620WAT      O11101   6.713   6.309   5.023
 3620WAT     H111102   6.671   6.222   5.049
 3620WAT     H211103   6.808   6.293   4.997
 3621WAT      O11104   6.912   9.016   5.478
 3621WAT     H111105   6.910   9.105   5.432
 3621WAT     H211106   6.819   8.990   5.503
 3622WAT      O11107   0.515   2.999   5.211
 3622WAT     H111108   0.528   2.904   5.239
 3622WAT     H211109   0.448   3.043   5.271
 3623WAT      O11110   6.653   3.840   8.125
 3623WAT     H111111   6.655   3.750   8.081
 3623WAT     H211112   6.735   3.851   8.181
 3624WAT      O11113   6.589   2.225   5.420
 3624WAT     H111114   6.533   2.142   5.426
 3624WAT     H211115   6.574   2.281   5.501
 3625WAT      O11116   7.915   8.667   8.977
 3625WAT     H111117   7.926   8.666   8.877
 3625WAT     H211118   7.849   8.738   9.002
 3626WAT      O11119   4.169   6.530   8.864
 3626WAT     H111120   4.116   6.545   8.781
 3626WAT     H211121   4.266   6.545   8.845
 3627WAT      O11122   0.599   1.509   2.822
 3627WAT     H111123   0.665   1.480   2.892
 3627WAT     H211124   0.565   1.429   2.773
 3628WAT      O11125   8.109   3.666   4.236
 3628WAT     H111126   8.025   3.628   4.273
 3628WAT     H211127   8.186   3.608   4.262
 3629WAT      O11128   8.936   7.546   1.603
 3629WAT     H111129   8.893   7.560   1.692
 3629WAT     H211130   8.868   7.552   1.530
 3630WAT      O11131   3.445   5.318   0.242
 3630WAT     H111132   3.530   5.274   0.269
 3630WAT     H211133   3.379   5.249   0.212
 3631WAT      O11134   5.353   9.177   1.971
 3631WAT     H111135   5.404   9.181   1.884
 3631WAT     H211136   5.412   9.139   2.042
 3632WAT      O11137   7.370   4.355   6.191
 3632WAT     H111138   7.346   4.306   6.275
 3632WAT     H211139   7.361   4.292   6.113
 3633WAT      O11140   9.175   0.440   0.417
 3633WAT     H111141   9.264   0.431   0.373
 3633WAT     H211142   9.182   0.503   0.494
 3634WAT      O11143   8.378   5.544   6.494
 3634WAT     H111144   8.299   5.605   6.485
 3634WAT     H211145   8.460   5.599   6.513
 3635WAT      O11146   2.141   0.586   8.971
 3635WAT     H111147   2.170   0.609   9.064
 3635WAT     H211148   2.165   0.660   8.909
 3636WAT      O11149   4.816   8.665   2.039
 3636WAT     H111150   4.802   8.619   1.952
 3636WAT     H211151   4.862   8.604   2.103
 3637WAT      O11152   4.985   1.832   7.231
 3637WAT     H111153   5.015   1.918   7.190
 3637WAT     H211154   5.064   1.780   7.262
 3638WAT      O11155   0.344   7.898   7.119
 3638WAT     H111156   0.432   7.942   7.106
 3638WAT     H211157   0.302   7.930   7.205
 3639WAT      O11158   4.791   6.207   0.236
 3639WAT     H111159   4.768   6.299   0.205
 3639WAT     H211160   4.889   6.192   0.225
 3640WAT      O11161   4.986   5.164   6.697
 3640WAT     H111162   4.954   5.236   6.636
 3640WAT     H211163   4.941   5.078   6.675
 3641WAT      O11164   9.289   2.896   3.669
 3641WAT     H111165   9.353   2.833   3.713
 3641WAT     H211166   9.332   2.936   3.588
 3642WAT      O11167   3.876   7.418   2.675
 3642WAT     H111168   3.946   7.348   2.663
 3642WAT     H211169   3.821   7.396   2.755
 3643WAT      O11170   6.759   2.384   6.035
 3643WAT     H111171   6.725   2.475   6.059
 3643WAT     H211172   6.857   2.379   6.053
 3644WAT      O11173   6.401   4.246   1.263
 3644WAT     H111174   6.345   4.310   1.212
 3644WAT     H211175   6.430   4.171   1.203
 3645WAT      O11176   8.481   8.151   4.593
 3645WAT     H111177   8.488   8.191   4.684
 3645WAT     H211178   8.564   8.098   4.573
 3646WAT      O11179   8.121   3.610   7.809
 3646WAT     H111180   8.148   3.665   7.731
 3646WAT     H211181   8.122   3.513   7.784
 3647WAT      O11182   0.408   9.714   8.733
 3647WAT     H111183   0.340   9.754   8.672
 3647WAT     H211184   0.407   9.762   8.821
 3648WAT      O11185   9.407   1.262   1.737
 3648WAT     H111186   9.484   1.322   1.757
 3648WAT     H211187   9.435   1.167   1.751
 3649WAT      O11188   9.539   2.750   6.288
 3649WAT     H111189   9.465   2.806   6.324
 3649WAT     H211190   9.626   2.796   6.304
 3650WAT      O11191   4.784   4.450   4.080
 3650WAT     H111192   4.870   4.476   4.123
 3650WAT     H211193   4.787   4.474   3.983
 3651WAT      O11194   2.080   4.981   3.606
 3651WAT     H111195   2.070   5.034   3.522
 3651WAT     H211196   2.177   4.967   3.626
 3652WAT      O11197   6.919   3.691   9.541
 3652WAT     H111198   7.012   3.655   9.548
 3652WAT     H211199   6.856   3.616   9.520
 3653WAT      O11200   7.876   9.735   7.299
 3653WAT     H111201   7.875   9.635   7.295
 3653WAT     H211202   7.946   9.770   7.237
 3654WAT      O11203   9.218   7.238   6.914
 3654WAT     H111204   9.139   7.213   6.857
 3654WAT     H211205   9.185   7.275   7.001
 3655WAT      O11206   0.537   7.918   1.934
 3655WAT     H111207   0.527   7.990   1.865
 3655WAT     H211208   0.447   7.879   1.954
 3656WAT      O11209   2.039   7.211   0.184
 3656WAT     H111210   2.139   7.213   0.186
 3656WAT     H211211   2.007   7.125   0.222
 3657WAT      O11212   5.526   1.679   7.042
 3657WAT     H111213   5.461   1.730   6.986
 3657WAT     H211214   5.575   1.613   6.985
 3658WAT      O11215   7.112   8.820   4.756
 3658WAT     H111216   7.170   8.747   4.793
 3658WAT     H211217   7.048   8.782   4.689
 3659WAT      O11218   0.587   7.654   2.324
 3659WAT     H111219   0.651   7.700   2.262
 3659WAT     H211220   0.631   7.572   2.362
 3660WAT      O11221   1.202   9.120   8.643
 3660WAT     H111222   1.179   9.213   8.612
 3660WAT     H211223   1.125   9.059   8.627
 3661WAT      O11224   7.093   7.557   0.361
 3661WAT     H111225   7.043   7.539   0.276
 3661WAT     H211226   7.187   7.524   0.352
 3662WAT      O11227   2.276   0.684   8.396
 3662WAT     H111228   2.238   0.758   8.451
 3662WAT     H211229   2.210   0.609   8.390
 3663WAT      O11230   8.753   0.893   1.709
 3663WAT     H111231   8.751   0.955   1.787
 3663WAT     H211232   8.774   0.800   1.740
 3664WAT      O11233   0.750   6.857   5.423
 3664WAT     H111234   0.682   6.785   5.409
 3664WAT     H211235   0.841   6.816   5.422
 3665WAT      O11236   6.641   1.644   8.784
 3665WAT     H111237   6.695   1.693   8.853
 3665WAT     H211238   6.624   1.550   8.815
 3666WAT      O11239   7.091   8.039   8.870
 3666WAT     H111240   7.113   8.078   8.959
 3666WAT     H211241   7.067   7.942   8.880
 3667WAT      O11242   2.332   2.449   3.236
 3667WAT     H111243   2.313   2.548   3.235
 3667WAT     H211244   2.283   2.405   3.161
 3668WAT      O11245   4.256   1.370   7.284
 3668WAT     H111246   4.300   1.325   7.207
 3668WAT     H211247   4.162   1.392   7.261
 3669WAT      O11248   2.396   1.011   8.475
 3669WAT     H111249   2.409   0.966   8.386
 3669WAT     H211250   2.331   0.959   8.529
 3670WAT      O11251   6.460   9.539   9.381
 3670WAT     H111252   6.367   9.555   9.413
 3670WAT     H211253   6.472   9.442   9.359
 3671WAT      O11254   6.623   8.121   4.580
 3671WAT     H111255   6.623   8.061   4.660
 3671WAT     H211256   6.643   8.214   4.608
 3672WAT      O11257   1.487   1.100   0.004
 3672WAT     H111258   1.390   1.079  -0.008
 3672WAT     H211259   1.503   1.197  -0.015
 3673WAT      O11260   8.169   6.681   2.917
 3673WAT     H111261   8.079   6.673   2.961
 3673WAT     H211262   8.183   6.775   2.887
 3674WAT      O11263   5.997   8.142   5.532
 3674WAT     H111264   6.012   8.080   5.609
 3674WAT     H211265   6.076   8.202   5.521
 3675WAT      O11266   2.010   1.957   3.669
 3675WAT     H111267   1.940   2.023   3.695
 3675WAT     H211268   1.972   1.891   3.605
 3676WAT      O11269   8.919   0.387   3.293
 3676WAT     H111270   9.001   0.431   3.256
 3676WAT     H211271   8.883   0.322   3.225
 3677WAT      O11272   9.626   4.844   3.902
 3677WAT     H111273   9.658   4.866   3.810
 3677WAT     H211274   9.684   4.891   3.969
 3678WAT      O11275   5.469   3.756   1.134
 3678WAT     H111276   5.544   3.768   1.199
 3678WAT     H211277   5.401   3.694   1.173
 3679WAT      O11278   9.609   2.946   3.434
 3679WAT     H111279   9.700   2.913   3.411
 3679WAT     H211280   9.615   3.038   3.473
 3680WAT      O11281   5.792   0.221   2.051
 3680WAT     H111282   5.764   0.229   2.147
 3680WAT     H211283   5.727   0.165   2.001
 3681WAT      O11284   5.344   0.061   4.072
 3681WAT     H111285   5.393   0.044   4.158
 3681WAT     H211286   5.300   0.151   4.076
 3682WAT      O11287   7.523   4.939   3.265
 3682WAT     H111288   7.615   4.961   3.234
 3682WAT     H211289   7.525   4.857   3.323
 3683WAT      O11290   1.792   3.224   5.003
 3683WAT     H111291   1.890   3.228   4.980
 3683WAT     H211292   1.773   3.137   5.050
 3684WAT      O11293   8.493   2.044   5.395
 3684WAT     H111294   8.554   2.068   5.470
 3684WAT     H211295   8.405   2.089   5.407
 3685WAT      O11296   0.663   3.457   7.687
 3685WAT     H111297   0.617   3.545   7.698
 3685WAT     H211298   0.605   3.384   7.723
 3686WAT      O11299   4.530   6.806   6.798
 3686WAT     H111300   4.566   6.770   6.884
 3686WAT     H211301   4.525   6.906   6.803
 3687WAT      O11302   8.983   9.271   6.085
 3687WAT     H111303   9.069   9.265   6.034
 3687WAT     H211304   8.975   9.361   6.127
 3688WAT      O11305   9.200   5.510   3.593
 3688WAT     H111306   9.160   5.440   3.534
 3688WAT     H211307   9.146   5.517   3.677
 3689WAT      O11308   4.697   8.385   2.341
 3689WAT     H111309   4.673   8.479   2.368
 3689WAT     H211310   4.614   8.331   2.331
 3690WAT      O11311   9.790   5.407   4.557
 3690WAT     H111312   9.717   5.377   4.618
 3690WAT     H211313   9.858   5.458   4.609
 3691WAT      O11314   1.875   6.680   8.218
 3691WAT     H111315   1.907   6.768   8.184
 3691WAT     H211316   1.847   6.623   8.141
 3692WAT      O11317   1.351   4.715   8.972
 3692WAT     H111318   1.269   4.756   8.932
 3692WAT     H211319   1.419   4.787   8.989
 3693WAT      O11320   0.752   2.790   8.153
 3693WAT     H111321   0.729   2.833   8.066
 3693WAT     H211322   0.812   2.851   8.205
 3694WAT      O11323   8.963   2.975   6.921
 3694WAT     H111324   8.962   3.050   6.987
 3694WAT     H211325   8.988   3.011   6.831
 3695WAT      O11326   6.688   4.718   9.764
 3695WAT     H111327   6.608   4.762   9.723
 3695WAT     H211328   6.658   4.638   9.816
 3696WAT      O11329   4.438   7.698   9.124
 3696WAT     H111330   4.407   7.633   9.054
 3696WAT     H211331   4.366   7.709   9.192
 3697WAT      O11332   7.697   0.593   5.849
 3697WAT     H111333   7.683   0.635   5.760
 3697WAT     H211334   7.616   0.609   5.907
 3698WAT      O11335   6.782   8.206   5.340
 3698WAT     H111336   6.742   8.115   5.331
 3698WAT     H211337   6.795   8.227   5.437
 3699WAT      O11338   4.636   8.427   6.449
 3699WAT     H111339   4.624   8.476   6.535
 3699WAT     H211340   4.630   8.492   6.373
 3700WAT      O11341   1.791   1.859   9.603
 3700WAT     H111342   1.810   1.882   9.699
 3700WAT     H211343   1.874   1.825   9.560
 3701WAT      O11344   8.857   9.256   8.395
 3701WAT     H111345   8.877   9.183   8.330
 3701WAT     H211346   8.785   9.314   8.358
 3702WAT      O11347   2.734   6.334   9.024
 3702WAT     H111348   2.778   6.277   8.955
 3702WAT     H211349   2.635   6.321   9.020
 3703WAT      O11350   8.360   3.860   4.379
 3703WAT     H111351   8.383   3.942   4.327
 3703WAT     H211352   8.313   3.885   4.463
 3704WAT      O11353   0.987   4.160   6.767
 3704WAT     H111354   0.989   4.224   6.843
 3704WAT     H211355   0.961   4.069   6.800
 3705WAT      O11356   6.953   2.677   5.069
 3705WAT     H111357   6.942   2.582   5.097
 3705WAT     H211358   6.978   2.680   4.972
 3706WAT      O11359   0.620   6.785   3.980
 3706WAT     H111360   0.654   6.795   3.887
 3706WAT     H211361   0.619   6.875   4.025
 3707WAT      O11362   2.001   1.165   6.308
 3707WAT     H111363   1.923   1.207   6.354
 3707WAT     H211364   2.081   1.167   6.368
 3708WAT      O11365   7.696   3.721   3.851
 3708WAT     H111366   7.765   3.709   3.922
 3708WAT     H211367   7.671   3.631   3.814
 3709WAT      O11368   7.119   1.063   7.232
 3709WAT     H111369   7.195   1.009   7.269
 3709WAT     H211370   7.054   1.082   7.306
 3710WAT      O11371   6.584   5.765   3.495
 3710WAT     H111372   6.616   5.826   3.423
 3710WAT     H211373   6.618   5.673   3.478
 3711WAT      O11374   2.887   1.042   3.302
 3711WAT     H111375   2.831   1.048   3.384
 3711WAT     H211376   2.854   0.967   3.244
 3712WAT      O11377   4.740   8.877   4.182
 3712WAT     H111378   4.685   8.807   4.136
 3712WAT     H211379   4.735   8.963   4.130
 3713WAT      O11380   4.490   4.277   3.608
 3713WAT     H111381   4.576   4.327   3.592
 3713WAT     H211382   4.488   4.245   3.702
 3714WAT      O11383   7.190   0.766   3.601
 3714WAT     H111384   7.133   0.830   3.549
 3714WAT     H211385   7.194   0.795   3.696
 3715WAT      O11386   0.774   2.459   6.762
 3715WAT     H111387   0.680   2.440   6.734
 3715WAT     H211388   0.805   2.387   6.824
 3716WAT      O11389   7.040   1.460   0.834
 3716WAT     H111390   7.030   1.407   0.918
 3716WAT     H211391   7.079   1.550   0.855
 3717WAT      O11392   6.543   3.391   8.149
 3717WAT     H111393   6.478   3.460   8.182
 3717WAT     H211394   6.629   3.400   8.199
 3718WAT      O11395   9.457   5.853   3.049
 3718WAT     H111396   9.415   5.862   2.959
 3718WAT     H211397   9.420   5.773   3.095
 3719WAT      O11398   8.720   2.649   4.971
 3719WAT     H111399   8.786   2.709   4.925
 3719WAT     H211400   8.757   2.620   5.060
 3720WAT      O11401   5.211   8.466   5.315
 3720WAT     H111402   5.218   8.434   5.221
 3720WAT     H211403   5.183   8.562   5.316
 3721WAT      O11404   3.978   0.870   3.750
 3721WAT     H111405   3.989   0.929   3.830
 3721WAT     H211406   4.065   0.861   3.702
 3722WAT      O11407   6.188   8.706   9.074
 3722WAT     H111408   6.154   8.779   9.133
 3722WAT     H211409   6.136   8.622   9.091
 3723WAT      O11410   1.457   3.432   8.568
 3723WAT     H111411   1.392   3.391   8.504
 3723WAT     H211412   1.496   3.361   8.627
 3724WAT      O11413   6.158   8.046   5.062
 3724WAT     H111414   6.176   8.038   4.964
 3724WAT     H211415   6.095   8.123   5.078
 3725WAT      O11416   7.339   9.649   4.675
 3725WAT     H111417   7.428   9.661   4.718
 3725WAT     H211418   7.273   9.714   4.713
 3726WAT      O11419   9.565   6.464   0.636
 3726WAT     H111420   9.509   6.489   0.715
 3726WAT     H211421   9.506   6.431   0.563
 3727WAT      O11422   2.613   1.381   3.160
 3727WAT     H111423   2.575   1.438   3.087
 3727WAT     H211424   2.699   1.340   3.129
 3728WAT      O11425   5.176   6.562   8.857
 3728WAT     H111426   5.214   6.510   8.781
 3728WAT     H211427   5.241   6.563   8.933
 3729WAT      O11428   8.542   8.134   7.984
 3729WAT     H111429   8.627   8.117   8.034
 3729WAT     H211430   8.495   8.048   7.968
 3730WAT      O11431   2.028   2.672   1.331
 3730WAT     H111432   2.060   2.660   1.237
 3730WAT     H211433   2.080   2.612   1.392
 3731WAT      O11434   8.732   8.052   8.647
 3731WAT     H111435   8.724   8.152   8.643
 3731WAT     H211436   8.819   8.027   8.690
 3732WAT      O11437   9.220   8.858   3.743
 3732WAT     H111438   9.306   8.825   3.704
 3732WAT     H211439   9.186   8.935   3.689
 3733WAT      O11440   2.613   7.726   4.654
 3733WAT     H111441   2.569   7.719   4.743
 3733WAT     H211442   2.567   7.796   4.599
 3734WAT      O11443   2.264   6.627   6.688
 3734WAT     H111444   2.290   6.575   6.606
 3734WAT     H211445   2.332   6.613   6.759
 3735WAT      O11446   9.292   2.596   6.451
 3735WAT     H111447   9.213   2.535   6.446
 3735WAT     H211448   9.265   2.688   6.424
 3736WAT      O11449   5.693   1.357   7.387
 3736WAT     H111450   5.634   1.438   7.390
 3736WAT     H211451   5.779   1.376   7.434
 3737WAT      O11452   0.382   7.825   6.082
 3737WAT     H111453   0.337   7.869   6.160
 3737WAT     H211454   0.314   7.775   6.028
 3738WAT      O11455   6.804   8.985   2.026
 3738WAT     H111456   6.721   8.946   1.987
 3738WAT     H211457   6.792   8.994   2.125
 3739WAT      O11458   7.591   2.008   7.969
 3739WAT     H111459   7.690   1.999   7.977
 3739WAT     H211460   7.559   2.077   8.034
 3740WAT      O11461   6.209   3.241   6.932
 3740WAT     H111462   6.264   3.199   7.005
 3740WAT     H211463   6.270   3.291   6.870
 3741WAT      O11464   3.347   2.430   6.879
 3741WAT     H111465   3.418   2.362   6.897
 3741WAT     H211466   3.323   2.476   6.965
 3742WAT      O11467   2.992   1.633   0.701
 3742WAT     H111468   2.972   1.630   0.799
 3742WAT     H211469   3.009   1.728   0.673
 3743WAT      O11470   0.090   3.991   9.380
 3743WAT     H111471   0.047   3.911   9.421
 3743WAT     H211472   0.155   3.962   9.310
 3744WAT      O11473   0.430   3.143   2.406
 3744WAT     H111474   0.518   3.176   2.440
 3744WAT     H211475   0.396   3.070   2.465
 3745WAT      O11476   5.436   8.600   9.540
 3745WAT     H111477   5.474   8.637   9.455
 3745WAT     H211478   5.336   8.608   9.538
 3746WAT      O11479   8.633   1.596   3.287
 3746WAT     H111480   8.616   1.501   3.314
 3746WAT     H211481   8.561   1.654   3.324
 3747WAT      O11482   1.526   6.545   2.397
 3747WAT     H111483   1.536   6.455   2.354
 3747WAT     H211484   1.564   6.542   2.490
 3748WAT      O11485   8.241   8.162   2.025
 3748WAT     H111486   8.159   8.104   2.020
 3748WAT     H211487   8.322   8.104   2.020
 3749WAT      O11488   5.380   0.532   8.902
 3749WAT     H111489   5.417   0.498   8.815
 3749WAT     H211490   5.282   0.545   8.893
 3750WAT      O11491   5.458   8.889   7.701
 3750WAT     H111492   5.526   8.943   7.651
 3750WAT     H211493   5.473   8.792   7.683
 3751WAT      O11494   9.204   3.023   9.744
 3751WAT     H111495   9.239   2.930   9.729
 3751WAT     H211496   9.127   3.020   9.807
 3752WAT      O11497   4.726   5.605   8.109
 3752WAT     H111498   4.821   5.617   8.079
 3752WAT     H211499   4.676   5.691   8.097
 3753WAT      O11500   2.087   4.164   2.817
 3753WAT     H111501   2.066   4.075   2.857
 3753WAT     H211502   2.186   4.174   2.808
 3754WAT      O11503   8.629   1.197   4.000
 3754WAT     H111504   8.596   1.275   4.053
 3754WAT     H211505   8.705   1.225   3.942
 3755WAT      O11506   1.874   8.494   5.788
 3755WAT     H111507   1.787   8.452   5.813
 3755WAT     H211508   1.946   8.462   5.849
 3756WAT      O11509   3.031   9.399   3.779
 3756WAT     H111510   3.102   9.374   3.844
 3756WAT     H211511   3.073   9.432   3.694
 3757WAT      O11512   7.934   5.133   9.808
 3757WAT     H111513   8.029   5.131   9.839
 3757WAT     H211514   7.914   5.223   9.768
 3758WAT      O11515   8.126   6.247   2.444
 3758WAT     H111516   8.029   6.264   2.424
 3758WAT     H211517   8.180   6.327   2.419
 3759WAT      O11518   1.636   9.649   3.053
 3759WAT     H111519   1.662   9.745   3.060
 3759WAT     H211520   1.554   9.640   2.996
 3760WAT      O11521   5.988   1.065   4.918
 3760WAT     H111522   5.993   1.158   4.955
 3760WAT     H211523   5.967   1.001   4.992
 3761WAT      O11524   8.027   7.323   7.748
 3761WAT     H111525   8.006   7.293   7.841
 3761WAT     H211526   7.979   7.408   7.728
 3762WAT      O11527   2.418   3.266   4.118
 3762WAT     H111528   2.355   3.193   4.093
 3762WAT     H211529   2.383   3.354   4.084
 3763WAT      O11530   0.035   5.424   6.954
 3763WAT     H111531   0.030   5.474   7.040
 3763WAT     H211532  -0.054   5.381   6.935
 3764WAT      O11533   6.077   2.543   7.003
 3764WAT     H111534   6.086   2.588   7.092
 3764WAT     H211535   6.059   2.446   7.016
 3765WAT      O11536   4.399   1.879   9.869
 3765WAT     H111537   4.471   1.883   9.939
 3765WAT     H211538   4.310   1.871   9.914
 3766WAT      O11539   7.586   4.866   4.893
 3766WAT     H111540   7.625   4.951   4.857
 3766WAT     H211541   7.592   4.865   4.993
 3767WAT      O11542   5.348   9.690   7.488
 3767WAT     H111543   5.260   9.651   7.515
 3767WAT     H211544   5.419   9.620   7.497
 3768WAT      O11545   3.175   5.332   1.338
 3768WAT     H111546   3.260   5.316   1.289
 3768WAT     H211547   3.184   5.299   1.432
 3769WAT      O11548   1.856   6.247   2.708
 3769WAT     H111549   1.851   6.201   2.796
 3769WAT     H211550   1.775   6.223   2.653
 3770WAT      O11551   4.500   0.879   4.949
 3770WAT     H111552   4.478   0.798   4.895
 3770WAT     H211553   4.417   0.913   4.994
 3771WAT      O11554   6.230   3.773   5.638
 3771WAT     H111555   6.133   3.759   5.621
 3771WAT     H211556   6.251   3.870   5.635
 3772WAT      O11557   8.328   5.203   3.140
 3772WAT     H111558   8.376   5.246   3.064
 3772WAT     H211559   8.337   5.104   3.134
 3773WAT      O11560   7.102   3.375   4.376
 3773WAT     H111561   7.101   3.275   4.373
 3773WAT     H211562   7.117   3.405   4.471
 3774WAT      O11563   1.004   5.574   4.110
 3774WAT     H111564   0.949   5.490   4.105
 3774WAT     H211565   1.081   5.560   4.173
 3775WAT      O11566   3.664   3.397   8.149
 3775WAT     H111567   3.627   3.358   8.065
 3775WAT     H211568   3.602   3.377   8.225
 3776WAT      O11569   1.541   2.293   0.892
 3776WAT     H111570   1.634   2.271   0.863
 3776WAT     H211571   1.483   2.212   0.884
 3777WAT      O11572   7.988   3.588   1.460
 3777WAT     H111573   8.036   3.580   1.548
 3777WAT     H211574   8.030   3.661   1.405
 3778WAT      O11575   2.862   3.144   5.241
 3778WAT     H111576   2.798   3.199   5.294
 3778WAT     H211577   2.822   3.126   5.151
 3779WAT      O11578   3.934   1.736   4.505
 3779WAT     H111579   3.965   1.717   4.598
 3779WAT     H211580   3.834   1.737   4.503
 3780WAT      O11581   8.395   8.780   5.264
 3780WAT     H111582   8.366   8.874   5.248
 3780WAT     H211583   8.494   8.777   5.274
 3781WAT      O11584   3.071   6.574   3.337
 3781WAT     H111585   2.996   6.637   3.318
 3781WAT     H211586   3.125   6.560   3.254
 3782WAT      O11587   9.295   5.921   6.547
 3782WAT     H111588   9.243   5.891   6.467
 3782WAT     H211589   9.277   6.019   6.563
 3783WAT      O11590   3.100   1.593   9.166
 3783WAT     H111591   3.158   1.516   9.144
 3783WAT     H211592   3.109   1.664   9.096
 3784WAT      O11593   4.654   3.672   7.798
 3784WAT     H111594   4.637   3.575   7.818
 3784WAT     H211595   4.750   3.693   7.815
 3785WAT      O11596   9.434   0.683   9.249
 3785WAT     H111597   9.445   0.674   9.348
 3785WAT     H211598   9.502   0.747   9.213
 3786WAT      O11599   5.380   0.975   8.641
 3786WAT     H111600   5.435   1.030   8.703
 3786WAT     H211601   5.435   0.900   8.605
 3787WAT      O11602   0.760   6.482   2.250
 3787WAT     H111603   0.705   6.549   2.201
 3787WAT     H211604   0.746   6.391   2.210
 3788WAT      O11605   9.038   6.515   3.487
 3788WAT     H111606   9.085   6.601   3.502
 3788WAT     H211607   9.019   6.503   3.390
 3789WAT      O11608   5.616   2.773   7.461
 3789WAT     H111609   5.669   2.854   7.435
 3789WAT     H211610   5.587   2.782   7.557
 3790WAT      O11611   6.099   7.520   6.763
 3790WAT     H111612   6.047   7.438   6.785
 3790WAT     H211613   6.084   7.589   6.833
 3791WAT      O11614   1.805   5.678   5.220
 3791WAT     H111615   1.810   5.766   5.174
 3791WAT     H211616   1.709   5.658   5.242
 3792WAT      O11617   8.537   8.297   6.639
 3792WAT     H111618   8.451   8.325   6.596
 3792WAT     H211619   8.560   8.362   6.712
 3793WAT      O11620   5.849   3.783   6.650
 3793WAT     H111621   5.803   3.706   6.606
 3793WAT     H211622   5.807   3.869   6.621
 3794WAT      O11623   4.279   0.511   0.370
 3794WAT     H111624   4.326   0.494   0.456
 3794WAT     H211625   4.206   0.443   0.357
 3795WAT      O11626   6.252   8.294   5.637
 3795WAT     H111627   6.289   8.297   5.545
 3795WAT     H211628   6.260   8.201   5.673
 3796WAT      O11629   9.591   5.394   9.710
 3796WAT     H111630   9.616   5.429   9.619
 3796WAT     H211631   9.552   5.468   9.765
 3797WAT      O11632   3.324   2.464   2.582
 3797WAT     H111633   3.236   2.500   2.611
 3797WAT     H211634   3.312   2.373   2.543
 3798WAT      O11635   0.280   3.723   4.185
 3798WAT     H111636   0.217   3.652   4.216
 3798WAT     H211637   0.370   3.682   4.168
 3799WAT      O11638   7.218   2.434   4.938
 3799WAT     H111639   7.122   2.405   4.938
 3799WAT     H211640   7.275   2.362   4.900
 3800WAT      O11641   9.057   2.844   9.464
 3800WAT     H111642   9.120   2.917   9.489
 3800WAT     H211643   8.984   2.881   9.406
 3801WAT      O11644   2.285   9.134   4.780
 3801WAT     H111645   2.348   9.069   4.821
 3801WAT     H211646   2.225   9.172   4.850
 3802WAT      O11647   7.221   3.156   6.101
 3802WAT     H111648   7.204   3.188   6.008
 3802WAT     H211649   7.301   3.095   6.101
 3803WAT      O11650   6.481   9.207   5.016
 3803WAT     H111651   6.383   9.225   5.009
 3803WAT     H211652   6.529   9.292   5.033
 3804WAT      O11653   7.668   7.040   9.881
 3804WAT     H111654   7.679   7.135   9.853
 3804WAT     H211655   7.731   7.019   9.956
 3805WAT      O11656   3.902   4.787   3.195
 3805WAT     H111657   3.896   4.708   3.257
 3805WAT     H211658   3.986   4.837   3.214
 3806WAT      O11659   9.759   9.703   1.951
 3806WAT     H111660   9.786   9.797   1.932
 3806WAT     H211661   9.662   9.701   1.977
 3807WAT      O11662   7.065   7.066   6.108
 3807WAT     H111663   6.975   7.063   6.063
 3807WAT     H211664   7.131   7.014   6.053
 3808WAT      O11665   4.267   4.143   4.667
 3808WAT     H111666   4.357   4.111   4.695
 3808WAT     H211667   4.265   4.152   4.567
 3809WAT      O11668   1.539   7.173   3.518
 3809WAT     H111669   1.498   7.089   3.485
 3809WAT     H211670   1.522   7.183   3.616
 3810WAT      O11671   1.368   2.643   1.115
 3810WAT     H111672   1.463   2.612   1.116
 3810WAT     H211673   1.356   2.711   1.043
 3811WAT      O11674   0.144   6.433   6.463
 3811WAT     H111675   0.117   6.356   6.521
 3811WAT     H211676   0.136   6.407   6.367
 3812WAT      O11677   3.933   2.604   0.349
 3812WAT     H111678   3.969   2.595   0.256
 3812WAT     H211679   3.844   2.649   0.346
 3813WAT      O11680   3.522   5.926   7.383
 3813WAT     H111681   3.594   5.920   7.314
 3813WAT     H211682   3.544   6.000   7.447
 3814WAT      O11683   2.104   6.966   5.560
 3814WAT     H111684   2.132   7.057   5.529
 3814WAT     H211685   2.047   6.923   5.490
 3815WAT      O11686   5.793   3.369   4.354
 3815WAT     H111687   5.865   3.350   4.421
 3815WAT     H211688   5.733   3.441   4.389
 3816WAT      O11689   0.124   2.701   6.119
 3816WAT     H111690   0.179   2.717   6.036
 3816WAT     H211691   0.107   2.603   6.129
 3817WAT      O11692   2.270   9.354   6.836
 3817WAT     H111693   2.198   9.400   6.888
 3817WAT     H211694   2.255   9.255   6.838
 3818WAT      O11695   6.009   4.166   5.735
 3818WAT     H111696   6.057   4.085   5.768
 3818WAT     H211697   6.032   4.181   5.639
 3819WAT      O11698   7.280   5.728   3.372
 3819WAT     H111699   7.303   5.732   3.470
 3819WAT     H211700   7.364   5.727   3.318
 3820WAT      O11701   9.549   3.176   6.683
 3820WAT     H111702   9.514   3.261   6.723
 3820WAT     H211703   9.646   3.186   6.661
 3821WAT      O11704   1.555   0.725   3.290
 3821WAT     H111705   1.506   0.658   3.347
 3821WAT     H211706   1.596   0.678   3.212
 3822WAT      O11707   5.609   4.305   3.283
 3822WAT     H111708   5.690   4.360   3.305
 3822WAT     H211709   5.527   4.363   3.289
 3823WAT      O11710   9.011   1.487   6.497
 3823WAT     H111711   9.012   1.587   6.498
 3823WAT     H211712   9.041   1.454   6.408
 3824WAT      O11713   9.825   2.280   8.541
 3824WAT     H111714   9.763   2.233   8.478
 3824WAT     H211715   9.771   2.341   8.601
 3825WAT      O11716   0.421   7.075   3.148
 3825WAT     H111717   0.368   7.048   3.068
 3825WAT     H211718   0.509   7.114   3.118
 3826WAT      O11719   8.125   6.044   1.484
 3826WAT     H111720   8.181   6.116   1.443
 3826WAT     H211721   8.166   5.955   1.465
 3827WAT      O11722   0.410   9.687   8.179
 3827WAT     H111723   0.316   9.715   8.201
 3827WAT     H211724   0.421   9.590   8.200
 3828WAT      O11725   5.779   1.406   8.593
 3828WAT     H111726   5.700   1.387   8.651
 3828WAT     H211727   5.813   1.498   8.611
 3829WAT      O11728   0.814   9.455   6.764
 3829WAT     H111729   0.778   9.384   6.824
 3829WAT     H211730   0.743   9.485   6.700
 3830WAT      O11731   2.136   6.871   6.778
 3830WAT     H111732   2.166   6.784   6.738
 3830WAT     H211733   2.214   6.934   6.783
 3831WAT      O11734   1.355   8.022   2.556
 3831WAT     H111735   1.452   8.048   2.558
 3831WAT     H211736   1.303   8.095   2.512
 3832WAT      O11737   8.287   7.254   3.657
 3832WAT     H111738   8.323   7.248   3.564
 3832WAT     H211739   8.227   7.334   3.665
 3833WAT      O11740   9.642   9.537   6.703
 3833WAT     H111741   9.580   9.495   6.770
 3833WAT     H211742   9.732   9.550   6.746
 3834WAT      O11743   6.233   0.910   9.090
 3834WAT     H111744   6.220   0.817   9.124
 3834WAT     H211745   6.294   0.959   9.152
 3835WAT      O11746   7.840   3.212   1.563
 3835WAT     H111747   7.815   3.299   1.605
 3835WAT     H211748   7.761   3.176   1.513
 3836WAT      O11749   2.642   7.172   9.465
 3836WAT     H111750   2.557   7.119   9.471
 3836WAT     H211751   2.675   7.173   9.371
 3837WAT      O11752   7.936   4.960   8.542
 3837WAT     H111753   7.905   4.970   8.447
 3837WAT     H211754   8.019   5.013   8.556
 3838WAT      O11755   1.376   3.875   7.345
 3838WAT     H111756   1.475   3.879   7.363
 3838WAT     H211757   1.326   3.900   7.428
 3839WAT      O11758   0.644   1.103   7.528
 3839WAT     H111759   0.687   1.058   7.607
 3839WAT     H211760   0.545   1.090   7.531
 3840WAT      O11761   8.561   2.594   7.649
 3840WAT     H111762   8.652   2.556   7.667
 3840WAT     H211763   8.516   2.615   7.735
 3841WAT      O11764   0.089   5.110   4.515
 3841WAT     H111765   0.023   5.183   4.494
 3841WAT     H211766   0.039   5.027   4.540
 3842WAT      O11767   6.960   8.820   3.385
 3842WAT     H111768   6.989   8.725   3.394
 3842WAT     H211769   7.031   8.880   3.422
 3843WAT      O11770   1.906   4.926   9.893
 3843WAT     H111771   1.866   5.017   9.882
 3843WAT     H211772   1.883   4.869   9.814
 3844WAT      O11773   9.264   1.033   2.394
 3844WAT     H111774   9.258   1.130   2.373
 3844WAT     H211775   9.356   1.011   2.426
 3845WAT      O11776   2.619   5.280   8.671
 3845WAT     H111777   2.674   5.196   8.667
 3845WAT     H211778   2.621   5.317   8.764
 3846WAT      O11779   8.228   1.774   6.949
 3846WAT     H111780   8.295   1.785   7.023
 3846WAT     H211781   8.146   1.730   6.985
 3847WAT      O11782   5.440   5.412   7.330
 3847WAT     H111783   5.366   5.352   7.298
 3847WAT     H211784   5.515   5.356   7.366
 3848WAT      O11785   2.969   6.741   8.019
 3848WAT     H111786   2.966   6.689   7.933
 3848WAT     H211787   2.900   6.814   8.016
 3849WAT      O11788   8.699   4.609   1.743
 3849WAT     H111789   8.667   4.568   1.829
 3849WAT     H211790   8.793   4.581   1.726
 3850WAT      O11791   8.046   3.891   6.280
 3850WAT     H111792   8.029   3.863   6.375
 3850WAT     H211793   8.112   3.967   6.279
 3851WAT      O11794   4.717   4.474   0.208
 3851WAT     H111795   4.790   4.409   0.188
 3851WAT     H211796   4.634   4.448   0.158
 3852WAT      O11797   5.358   4.964   1.683
 3852WAT     H111798   5.287   4.941   1.618
 3852WAT     H211799   5.382   4.883   1.737
 3853WAT      O11800   7.409   2.706   0.266
 3853WAT     H111801   7.313   2.726   0.247
 3853WAT     H211802   7.440   2.632   0.206
 3854WAT      O11803   4.519   0.792   0.880
 3854WAT     H111804   4.586   0.846   0.829
 3854WAT     H211805   4.427   0.825   0.859
 3855WAT      O11806   6.695   6.101   6.662
 3855WAT     H111807   6.646   6.126   6.579
 3855WAT     H211808   6.738   6.012   6.651
 3856WAT      O11809   0.418   0.156   0.264
 3856WAT     H111810   0.465   0.072   0.292
 3856WAT     H211811   0.450   0.183   0.174
 3857WAT      O11812   0.190   6.579   3.334
 3857WAT     H111813   0.271   6.549   3.385
 3857WAT     H211814   0.174   6.676   3.353
 3858WAT      O11815   9.793   1.978   0.784
 3858WAT     H111816   9.836   1.889   0.768
 3858WAT     H211817   9.852   2.033   0.844
 3859WAT      O11818   2.490   7.692   7.893
 3859WAT     H111819   2.420   7.724   7.829
 3859WAT     H211820   2.549   7.626   7.847
 3860WAT      O11821   3.528   5.870   4.401
 3860WAT     H111822   3.572   5.956   4.423
 3860WAT     H211823   3.452   5.886   4.338
 3861WAT      O11824   0.577   2.364   9.882
 3861WAT     H111825   0.477   2.371   9.881
 3861WAT     H211826   0.605   2.281   9.835
 3862WAT      O11827   7.028   5.023   1.052
 3862WAT     H111828   7.011   4.978   0.964
 3862WAT     H211829   7.104   5.088   1.043
 3863WAT      O11830   6.511   3.780   9.539
 3863WAT     H111831   6.445   3.797   9.612
 3863WAT     H211832   6.461   3.763   9.453
 3864WAT      O11833   2.994   1.394   6.707
 3864WAT     H111834   2.985   1.338   6.790
 3864WAT     H211835   2.909   1.443   6.691
 3865WAT      O11836   9.089   5.961   2.786
 3865WAT     H111837   9.057   6.054   2.771
 3865WAT     H211838   9.018   5.908   2.833
 3866WAT      O11839   8.630   8.211   2.045
 3866WAT     H111840   8.595   8.302   2.028
 3866WAT     H211841   8.696   8.214   2.120
 3867WAT      O11842   3.131   4.358   9.698
 3867WAT     H111843   3.050   4.302   9.686
 3867WAT     H211844   3.144   4.417   9.618
 3868WAT      O11845   4.224   1.514   3.135
 3868WAT     H111846   4.314   1.511   3.178
 3868WAT     H211847   4.199   1.609   3.118
 3869WAT      O11848   4.306   3.311   3.350
 3869WAT     H111849   4.404   3.293   3.353
 3869WAT     H211850   4.256   3.225   3.359
 3870WAT      O11851   6.278   8.665   0.522
 3870WAT     H111852   6.209   8.698   0.458
 3870WAT     H211853   6.292   8.734   0.594
 3871WAT      O11854   2.096   5.979   8.321
 3871WAT     H111855   2.051   6.050   8.268
 3871WAT     H211856   2.104   5.895   8.266
 3872WAT      O11857   5.771   7.360   2.913
 3872WAT     H111858   5.841   7.298   2.945
 3872WAT     H211859   5.713   7.314   2.845
 3873WAT      O11860   4.396   1.027   1.624
 3873WAT     H111861   4.389   0.952   1.689
 3873WAT     H211862   4.464   1.093   1.657
 3874WAT      O11863   3.890   8.859   0.144
 3874WAT     H111864   3.984   8.859   0.178
 3874WAT     H211865   3.889   8.836   0.047
 3875WAT      O11866   1.200   4.619   3.221
 3875WAT     H111867   1.169   4.695   3.163
 3875WAT     H211868   1.274   4.651   3.280
 3876WAT      O11869   1.145   3.542   8.225
 3876WAT     H111870   1.116   3.624   8.276
 3876WAT     H211871   1.231   3.561   8.178
 3877WAT      O11872   7.825   2.868   0.702
 3877WAT     H111873   7.794   2.936   0.635
 3877WAT     H211874   7.853   2.913   0.786
 3878WAT      O11875   3.528   4.873   6.763
 3878WAT     H111876   3.524   4.796   6.701
 3878WAT     H211877   3.623   4.905   6.771
 3879WAT      O11878   7.179   5.022   4.742
 3879WAT     H111879   7.228   5.109   4.746
 3879WAT     H211880   7.211   4.969   4.664
 3880WAT      O11881   5.604   2.043   7.800
 3880WAT     H111882   5.580   1.952   7.767
 3880WAT     H211883   5.534   2.074   7.864
 3881WAT      O11884   7.151   2.416   7.226
 3881WAT     H111885   7.071   2.413   7.286
 3881WAT     H211886   7.215   2.485   7.259
 3882WAT      O11887   2.853   4.764   1.319
 3882WAT     H111888   2.772   4.822   1.308
 3882WAT     H211889   2.828   4.679   1.365
 3883WAT      O11890   9.021   3.697   7.615
 3883WAT     H111891   9.005   3.768   7.546
 3883WAT     H211892   9.070   3.737   7.692
 3884WAT      O11893   8.299   3.010   7.770
 3884WAT     H111894   8.248   2.998   7.856
 3884WAT     H211895   8.273   2.939   7.706
 3885WAT      O11896   2.387   0.884   8.226
 3885WAT     H111897   2.383   0.802   8.283
 3885WAT     H211898   2.299   0.897   8.180
 3886WAT      O11899   6.651   2.774   4.654
 3886WAT     H111900   6.552   2.761   4.660
 3886WAT     H211901   6.683   2.821   4.736
 3887WAT      O11902   1.958   4.124   0.872
 3887WAT     H111903   2.054   4.141   0.893
 3887WAT     H211904   1.943   4.132   0.774
 3888WAT      O11905   1.608   5.343   2.676
 3888WAT     H111906   1.514   5.328   2.706
 3888WAT     H211907   1.668   5.353   2.755
 3889WAT      O11908   9.779   5.292   5.791
 3889WAT     H111909   9.838   5.314   5.869
 3889WAT     H211910   9.691   5.337   5.803
 3890WAT      O11911   6.706   8.544   2.971
 3890WAT     H111912   6.772   8.619   2.978
 3890WAT     H211913   6.624   8.576   2.924
 3891WAT      O11914   7.496   4.871   6.711
 3891WAT     H111915   7.483   4.893   6.614
 3891WAT     H211916   7.430   4.922   6.765
 3892WAT      O11917   3.733   2.711   0.195
 3892WAT     H111918   3.745   2.764   0.112
 3892WAT     H211919   3.685   2.626   0.174
 3893WAT      O11920   1.633   8.407   7.175
 3893WAT     H111921   1.535   8.395   7.187
 3893WAT     H211922   1.677   8.318   7.166
 3894WAT      O11923   4.470   8.585   9.200
 3894WAT     H111924   4.378   8.583   9.238
 3894WAT     H211925   4.465   8.597   9.101
 3895WAT      O11926   8.424   1.278   0.986
 3895WAT     H111927   8.340   1.272   0.933
 3895WAT     H211928   8.429   1.203   1.051
 3896WAT      O11929   0.524   5.754   6.742
 3896WAT     H111930   0.473   5.840   6.742
 3896WAT     H211931   0.568   5.742   6.831
 3897WAT      O11932   2.189   7.578   1.909
 3897WAT     H111933   2.199   7.495   1.853
 3897WAT     H211934   2.162   7.654   1.850
 3898WAT      O11935   5.405   2.966   6.519
 3898WAT     H111936   5.413   2.933   6.613
 3898WAT     H211937   5.486   3.020   6.496
 3899WAT      O11938   1.482   6.031   3.893
 3899WAT     H111939   1.497   5.965   3.819
 3899WAT     H211940   1.555   6.021   3.961
 3900WAT      O11941   5.621   0.587   6.772
 3900WAT     H111942   5.578   0.674   6.799
 3900WAT     H211943   5.687   0.560   6.843
 3901WAT      O11944   6.136   3.088   7.614
 3901WAT     H111945   6.161   2.992   7.606
 3901WAT     H211946   6.110   3.124   7.525
 3902WAT      O11947   8.237   2.240   3.110
 3902WAT     H111948   8.215   2.323   3.160
 3902WAT     H211949   8.206   2.248   3.016
 3903WAT      O11950   9.048   1.511   7.448
 3903WAT     H111951   9.112   1.581   7.416
 3903WAT     H211952   9.044   1.513   7.548
 3904WAT      O11953   3.370   9.046   2.102
 3904WAT     H111954   3.305   9.032   2.027
 3904WAT     H211955   3.376   9.143   2.123
 3905WAT      O11956   2.270   7.504   9.543
 3905WAT     H111957   2.249   7.584   9.601
 3905WAT     H211958   2.185   7.468   9.505
 3906WAT      O11959   3.980   2.987   7.347
 3906WAT     H111960   4.000   2.992   7.249
 3906WAT     H211961   3.956   2.894   7.372
 3907WAT      O11962   6.719   1.411   4.135
 3907WAT     H111963   6.638   1.458   4.170
 3907WAT     H211964   6.787   1.479   4.106
 3908WAT      O11965   1.928   2.906   1.669
 3908WAT     H111966   1.864   2.830   1.674
 3908WAT     H211967   1.981   2.900   1.584
 3909WAT      O11968   4.438   6.521   8.406
 3909WAT     H111969   4.523   6.469   8.407
 3909WAT     H211970   4.369   6.473   8.461
 3910WAT      O11971   4.893   2.495   4.356
 3910WAT     H111972   4.971   2.432   4.361
 3910WAT     H211973   4.910   2.574   4.415
 3911WAT      O11974   1.624   6.254   4.226
 3911WAT     H111975   1.535   6.298   4.224
 3911WAT     H211976   1.614   6.160   4.259
 3912WAT      O11977   3.450   5.195   2.338
 3912WAT     H111978   3.379   5.260   2.365
 3912WAT     H211979   3.538   5.225   2.374
 3913WAT      O11980   4.091   0.266   9.089
 3913WAT     H111981   4.181   0.282   9.131
 3913WAT     H211982   4.075   0.167   9.083
 3914WAT      O11983   3.479   6.499   8.628
 3914WAT     H111984   3.388   6.537   8.645
 3914WAT     H211985   3.496   6.424   8.692
 3915WAT      O11986   6.997   2.916   9.296
 3915WAT     H111987   6.971   2.964   9.211
 3915WAT     H211988   6.931   2.843   9.314
 3916WAT      O11989   0.021   6.765   5.901
 3916WAT     H111990   0.006   6.777   5.999
 3916WAT     H211991   0.100   6.819   5.873
 3917WAT      O11992   9.324   4.146   5.524
 3917WAT     H111993   9.281   4.065   5.483
 3917WAT     H211994   9.420   4.149   5.496
 3918WAT      O11995   2.939   6.139   3.578
 3918WAT     H111996   3.023   6.158   3.630
 3918WAT     H211997   2.933   6.202   3.501
 3919WAT      O11998   4.191   1.384   6.018
 3919WAT     H111999   4.110   1.441   6.032
 3919WAT     H212000   4.189   1.308   6.083
 3920WAT      O12001   9.372   5.386   7.541
 3920WAT     H112002   9.396   5.336   7.458
 3920WAT     H212003   9.302   5.454   7.520
 3921WAT      O12004   0.115   2.747   0.889
 3921WAT     H112005   0.182   2.684   0.851
 3921WAT     H212006   0.042   2.763   0.822
 3922WAT      O12007   7.726   2.521   3.851
 3922WAT     H112008   7.813   2.530   3.803
 3922WAT     H212009   7.716   2.427   3.884
 3923WAT      O12010   8.559   0.673   0.876
 3923WAT     H112011   8.580   0.704   0.783
 3923WAT     H212012   8.554   0.573   0.878
 3924WAT      O12013   5.303   8.946   8.259
 3924WAT     H112014   5.302   9.009   8.337
 3924WAT     H212015   5.371   8.977   8.193
 3925WAT      O12016   3.048   7.207   9.406
 3925WAT     H112017   3.055   7.299   9.369
 3925WAT     H212018   3.006   7.147   9.338
 3926WAT      O12019   0.822   5.965   3.351
 3926WAT     H112020   0.780   5.885   3.310
 3926WAT     H212021   0.898   5.996   3.293
 3927WAT      O12022   2.440   9.145   0.065
 3927WAT     H112023   2.510   9.165  -0.003
 3927WAT     H212024   2.482   9.107   0.148
 3928WAT      O12025   6.157   5.963   0.601
 3928WAT     H112026   6.111   6.049   0.577
 3928WAT     H212027   6.206   5.975   0.688
 3929WAT      O12028   2.306   5.050   1.383
 3929WAT     H112029   2.284   4.991   1.306
 3929WAT     H212030   2.362   5.126   1.352
 3930WAT      O12031   2.052   6.197   7.796
 3930WAT     H112032   2.126   6.144   7.837
 3930WAT     H212033   2.074   6.294   7.800
 3931WAT      O12034   6.349   3.779   0.467
 3931WAT     H112035   6.297   3.863   0.453
 3931WAT     H212036   6.298   3.716   0.526
 3932WAT      O12037   9.541   7.103   0.794
 3932WAT     H112038   9.526   7.140   0.886
 3932WAT     H212039   9.513   7.171   0.726
 3933WAT      O12040   5.121   4.845   6.444
 3933WAT     H112041   5.129   4.746   6.447
 3933WAT     H212042   5.034   4.871   6.401
 3934WAT      O12043   3.483   0.447   1.440
 3934WAT     H112044   3.463   0.354   1.410
 3934WAT     H212045   3.405   0.506   1.421
 3935WAT      O12046   7.070   4.268   0.534
 3935WAT     H112047   7.163   4.301   0.551
 3935WAT     H212048   7.065   4.170   0.553
 3936WAT      O12049   1.746   7.133   1.034
 3936WAT     H112050   1.791   7.162   1.119
 3936WAT     H212051   1.648   7.126   1.049
 3937WAT      O12052   1.700   7.884   5.112
 3937WAT     H112053   1.790   7.923   5.130
 3937WAT     H212054   1.699   7.788   5.141
 3938WAT      O12055   2.271   5.939   2.690
 3938WAT     H112056   2.221   6.000   2.628
 3938WAT     H212057   2.314   5.866   2.638
 3939WAT      O12058   2.542   0.464   7.927
 3939WAT     H112059   2.572   0.371   7.908
 3939WAT     H212060   2.609   0.510   7.984
 3940WAT      O12061   5.715   9.790   1.290
 3940WAT     H112062   5.691   9.739   1.207
 3940WAT     H212063   5.808   9.826   1.281
 3941WAT      O12064   3.400   5.171   9.764
 3941WAT     H112065   3.477   5.217   9.721
 3941WAT     H212066   3.363   5.102   9.701
 3942WAT      O12067   2.872   1.440   4.107
 3942WAT     H112068   2.919   1.398   4.184
 3942WAT     H212069   2.836   1.529   4.134
 3943WAT      O12070   9.612   3.329   1.908
 3943WAT     H112071   9.658   3.241   1.924
 3943WAT     H212072   9.514   3.318   1.923
 3944WAT      O12073   6.029   0.145   4.043
 3944WAT     H112074   5.981   0.195   4.115
 3944WAT     H212075   6.061   0.208   3.974
 3945WAT      O12076   6.349   1.834   7.781
 3945WAT     H112077   6.361   1.801   7.688
 3945WAT     H212078   6.275   1.901   7.784
 3946WAT      O12079   7.983   9.705   2.013
 3946WAT     H112080   8.002   9.780   2.077
 3946WAT     H212081   8.031   9.722   1.927
 3947WAT      O12082   8.287   9.424   2.142
 3947WAT     H112083   8.276   9.426   2.241
 3947WAT     H212084   8.199   9.400   2.099
 3948WAT      O12085   4.627   1.417   9.348
 3948WAT     H112086   4.627   1.346   9.277
 3948WAT     H212087   4.551   1.479   9.332
 3949WAT      O12088   6.292   5.049   9.895
 3949WAT     H112089   6.303   5.045   9.796
 3949WAT     H212090   6.277   5.144   9.923
 3950WAT      O12091   1.861   5.077   9.037
 3950WAT     H112092   1.959   5.064   9.019
 3950WAT     H212093   1.818   4.988   9.050
 3951WAT      O12094   1.807   7.135   6.413
 3951WAT     H112095   1.879   7.136   6.483
 3951WAT     H212096   1.830   7.068   6.343
 3952WAT      O12097   0.071   0.202   2.091
 3952WAT     H112098   0.035   0.166   2.005
 3952WAT     H212099   0.150   0.146   2.119
 3953WAT      O12100   5.120   8.112   3.984
 3953WAT     H112101   5.156   8.037   3.929
 3953WAT     H212102   5.194   8.152   4.038
 3954WAT      O12103   0.473   3.700   6.129
 3954WAT     H112104   0.552   3.688   6.189
 3954WAT     H212105   0.475   3.631   6.057
 3955WAT      O12106   9.781   3.752   8.759
 3955WAT     H112107   9.824   3.739   8.849
 3955WAT     H212108   9.726   3.672   8.737
 3956WAT      O12109   8.604   2.792   9.592
 3956WAT     H112110   8.603   2.836   9.502
 3956WAT     H212111   8.695   2.755   9.610
 3957WAT      O12112   9.486   0.141   5.318
 3957WAT     H112113   9.574   0.174   5.353
 3957WAT     H212114   9.500   0.057   5.266
 3958WAT      O12115   1.602   6.452   7.686
 3958WAT     H112116   1.567   6.521   7.623
 3958WAT     H212117   1.687   6.414   7.649
 3959WAT      O12118   9.796   7.974   4.735
 3959WAT     H112119   9.808   8.013   4.643
 3959WAT     H212120   9.857   7.895   4.746
 3960WAT      O12121   0.388   0.280   7.326
 3960WAT     H112122   0.405   0.369   7.368
 3960WAT     H212123   0.290   0.261   7.327
 3961WAT      O12124   4.545   2.661   6.958
 3961WAT     H112125   4.484   2.604   7.012
 3961WAT     H212126   4.528   2.757   6.978
 3962WAT      O12127   4.564   6.976   2.587
 3962WAT     H112128   4.644   6.960   2.644
 3962WAT     H212129   4.518   7.060   2.616
 3963WAT      O12130   0.140   9.154   0.734
 3963WAT     H112131   0.075   9.087   0.697
 3963WAT     H212132   0.090   9.237   0.760
 3964WAT      O12133   7.264   8.967   6.492
 3964WAT     H112134   7.249   8.917   6.577
 3964WAT     H212135   7.177   8.974   6.442
 3965WAT      O12136   7.489   3.697   0.973
 3965WAT     H112137   7.583   3.687   0.942
 3965WAT     H212138   7.452   3.783   0.939
 3966WAT      O12139   7.281   6.000   8.229
 3966WAT     H112140   7.243   5.929   8.170
 3966WAT     H212141   7.378   6.014   8.207
 3967WAT      O12142   4.994   5.182   6.325
 3967WAT     H112143   4.969   5.252   6.392
 3967WAT     H212144   5.093   5.182   6.312
 3968WAT      O12145   5.522   1.232   0.995
 3968WAT     H112146   5.566   1.198   1.078
 3968WAT     H212147   5.511   1.331   1.001
 3969WAT      O12148   7.055   2.793   2.109
 3969WAT     H112149   6.985   2.858   2.081
 3969WAT     H212150   7.020   2.700   2.099
 3970WAT      O12151   4.649   4.917   9.604
 3970WAT     H112152   4.700   4.990   9.651
 3970WAT     H212153   4.566   4.896   9.656
 3971WAT      O12154   6.181   9.484   0.089
 3971WAT     H112155   6.214   9.521   0.177
 3971WAT     H212156   6.085   9.506   0.078
 3972WAT      O12157   4.951   2.271   4.601
 3972WAT     H112158   4.856   2.242   4.589
 3972WAT     H212159   4.989   2.224   4.681
 3973WAT      O12160   6.510   3.079   5.834
 3973WAT     H112161   6.428   3.099   5.888
 3973WAT     H212162   6.485   3.070   5.738
 3974WAT      O12163   3.355   3.198   6.783
 3974WAT     H112164   3.381   3.288   6.818
 3974WAT     H212165   3.264   3.204   6.742
 3975WAT      O12166   8.158   1.099   6.234
 3975WAT     H112167   8.181   1.167   6.165
 3975WAT     H212168   8.088   1.037   6.198
 3976WAT      O12169   2.102   9.468   0.368
 3976WAT     H112170   2.058   9.391   0.412
 3976WAT     H212171   2.141   9.439   0.280
 3977WAT      O12172   8.000   6.444   4.291
 3977WAT     H112173   7.969   6.414   4.381
 3977WAT     H212174   7.982   6.372   4.224
 3978WAT      O12175   7.901   1.400   2.951
 3978WAT     H112176   7.867   1.320   2.901
 3978WAT     H212177   7.964   1.451   2.893
 3979WAT      O12178   1.663   9.083   7.691
 3979WAT     H112179   1.613   9.022   7.751
 3979WAT     H212180   1.677   9.039   7.602
 3980WAT      O12181   8.381   5.035   7.919
 3980WAT     H112182   8.364   5.030   8.018
 3980WAT     H212183   8.301   5.074   7.874
 3981WAT      O12184   2.242   4.044   2.454
 3981WAT     H112185   2.222   4.118   2.390
 3981WAT     H212186   2.185   3.965   2.432
 3982WAT      O12187   7.464   5.705   8.052
 3982WAT     H112188   7.411   5.735   7.973
 3982WAT     H212189   7.462   5.776   8.122
 3983WAT      O12190   3.977   6.517   7.304
 3983WAT     H112191   3.888   6.498   7.264
 3983WAT     H212192   4.030   6.433   7.312
 3984WAT      O12193   0.756   1.779   9.142
 3984WAT     H112194   0.662   1.813   9.134
 3984WAT     H212195   0.804   1.793   9.056
 3985WAT      O12196   0.744   2.148   4.373
 3985WAT     H112197   0.784   2.084   4.438
 3985WAT     H212198   0.660   2.187   4.412
 3986WAT      O12199   5.176   7.807   4.160
 3986WAT     H112200   5.162   7.711   4.184
 3986WAT     H212201   5.143   7.824   4.067
 3987WAT      O12202   4.648   3.134   0.123
 3987WAT     H112203   4.685   3.045   0.153
 3987WAT     H212204   4.713   3.178   0.061
 3988WAT      O12205   7.603   0.796   3.600
 3988WAT     H112206   7.693   0.841   3.599
 3988WAT     H212207   7.531   0.863   3.586
 3989WAT      O12208   0.023   0.987   2.313
 3989WAT     H112209   0.043   1.031   2.226
 3989WAT     H212210   0.106   0.944   2.348
 3990WAT      O12211   9.850   0.162   0.001
 3990WAT     H112212   9.781   0.111   0.053
 3990WAT     H212213   9.896   0.227   0.062
 3991WAT      O12214   1.948   8.507   1.365
 3991WAT     H112215   1.897   8.427   1.398
 3991WAT     H212216   1.899   8.548   1.289
 3992WAT      O12217   2.579   0.784   5.241
 3992WAT     H112218   2.606   0.823   5.329
 3992WAT     H212219   2.633   0.824   5.167
 3993WAT      O12220   9.119   6.773   3.439
 3993WAT     H112221   9.200   6.819   3.403
 3993WAT     H212222   9.041   6.790   3.379
 3994WAT      O12223   9.357   1.655   0.605
 3994WAT     H112224   9.299   1.712   0.663
 3994WAT     H212225   9.390   1.577   0.658
 3995WAT      O12226   9.225   1.289   5.324
 3995WAT     H112227   9.148   1.246   5.372
 3995WAT     H212228   9.267   1.358   5.383
 3996WAT      O12229   0.026   9.751   9.350
 3996WAT     H112230   0.010   9.681   9.419
 3996WAT     H212231   0.027   9.709   9.259
 3997WAT      O12232   8.553   2.520   3.949
 3997WAT     H112233   8.628   2.460   3.921
 3997WAT     H212234   8.500   2.547   3.869
 3998WAT      O12235   1.007   7.681   9.301
 3998WAT     H112236   0.922   7.733   9.288
 3998WAT     H212237   1.054   7.673   9.213
 3999WAT      O12238   1.166   2.715   9.863
 3999WAT     H112239   1.067   2.730   9.861
 3999WAT     H212240   1.197   2.709   9.957
 4000WAT      O12241   7.541   1.056   5.993
 4000WAT     H112242   7.593   0.971   6.006
 4000WAT     H212243   7.444   1.037   6.009
 4001WAT      O12244   4.638   2.710   4.669
 4001WAT     H112245   4.727   2.665   4.670
 4001WAT     H212246   4.581   2.670   4.596
 4002WAT      O12247   5.138   1.055   8.520
 4002WAT     H112248   5.131   1.062   8.620
 4002WAT     H212249   5.217   0.999   8.496
 4003WAT      O12250   3.683   3.082   1.506
 4003WAT     H112251   3.691   3.003   1.445
 4003WAT     H212252   3.757   3.146   1.487
 4004WAT      O12253   1.023   0.984   8.802
 4004WAT     H112254   1.025   1.046   8.881
 4004WAT     H212255   0.962   0.907   8.822
 4005WAT      O12256   1.087   9.839   3.006
 4005WAT     H112257   1.097   9.906   2.933
 4005WAT     H212258   1.133   9.754   2.981
 4006WAT      O12259   4.959   2.309   9.734
 4006WAT     H112260   4.954   2.211   9.714
 4006WAT     H212261   4.921   2.360   9.657
 4007WAT      O12262   2.357   4.535   8.549
 4007WAT     H112263   2.357   4.587   8.464
 4007WAT     H212264   2.264   4.502   8.568
 4008WAT      O12265   4.432   8.353   9.866
 4008WAT     H112266   4.369   8.412   9.916
 4008WAT     H212267   4.429   8.261   9.905
 4009WAT      O12268   5.570   7.746   4.292
 4009WAT     H112269   5.496   7.777   4.233
 4009WAT     H212270   5.592   7.817   4.358
 4010WAT      O12271   8.870   4.039   4.389
 4010WAT     H112272   8.830   4.010   4.476
 4010WAT     H212273   8.851   4.136   4.374
 4011WAT      O12274   0.015   9.667   7.700
 4011WAT     H112275   0.055   9.598   7.759
 4011WAT     H212276   0.082   9.696   7.631
 4012WAT      O12277   8.027   2.749   3.881
 4012WAT     H112278   7.979   2.834   3.901
 4012WAT     H212279   8.080   2.721   3.961
 4013WAT      O12280   5.573   6.244   0.038
 4013WAT     H112281   5.559   6.342   0.043
 4013WAT     H212282   5.511   6.205  -0.030
 4014WAT      O12283   5.920   6.564   8.337
 4014WAT     H112284   5.883   6.571   8.430
 4014WAT     H212285   5.887   6.480   8.295
 4015WAT      O12286   9.073   7.236   0.517
 4015WAT     H112287   8.995   7.298   0.521
 4015WAT     H212288   9.155   7.281   0.552
 4016WAT      O12289   0.642   5.842   0.047
 4016WAT     H112290   0.558   5.867   0.095
 4016WAT     H212291   0.663   5.911  -0.022
 4017WAT      O12292   5.994   7.207   0.098
 4017WAT     H112293   5.912   7.229   0.150
 4017WAT     H212294   6.058   7.284   0.102
 4018WAT      O12295   6.922   9.075   2.937
 4018WAT     H112296   6.895   8.995   2.884
 4018WAT     H212297   6.902   9.059   3.034
 4019WAT      O12298   4.247   6.029   6.560
 4019WAT     H112299   4.326   6.013   6.500
 4019WAT     H212300   4.256   6.118   6.604
 4020WAT      O12301   1.252   0.179   3.120
 4020WAT     H112302   1.322   0.169   3.050
 4020WAT     H212303   1.181   0.109   3.106
 4021WAT      O12304   9.458   8.939   1.366
 4021WAT     H112305   9.510   8.853   1.365
 4021WAT     H212306   9.418   8.953   1.456
 4022WAT      O12307   2.784   8.453   4.919
 4022WAT     H112308   2.687   8.444   4.939
 4022WAT     H212309   2.801   8.539   4.872
 4023WAT      O12310   0.165   5.789   5.273
 4023WAT     H112311   0.117   5.875   5.251
 4023WAT     H212312   0.245   5.809   5.330
 4024WAT      O12313   7.371   5.121   1.502
 4024WAT     H112314   7.290   5.097   1.450
 4024WAT     H212315   7.416   5.199   1.459
 4025WAT      O12316   0.147   7.541   9.303
 4025WAT     H112317   0.158   7.620   9.243
 4025WAT     H212318   0.123   7.572   9.395
 4026WAT      O12319   7.490   0.900   4.809
 4026WAT     H112320   7.579   0.913   4.852
 4026WAT     H212321   7.421   0.886   4.880
 4027WAT      O12322   8.648   7.936   8.167
 4027WAT     H112323   8.579   7.864   8.171
 4027WAT     H212324   8.706   7.931   8.248
 4028WAT      O12325   8.335   2.875   2.847
 4028WAT     H112326   8.399   2.935   2.798
 4028WAT     H212327   8.383   2.793   2.878
 4029WAT      O12328   0.856   4.449   5.934
 4029WAT     H112329   0.882   4.515   5.864
 4029WAT     H212330   0.775   4.481   5.982
 4030WAT      O12331   7.004   0.134   9.769
 4030WAT     H112332   6.974   0.199   9.839
 4030WAT     H212333   6.939   0.133   9.694
 4031WAT      O12334   1.856   5.694   7.216
 4031WAT     H112335   1.836   5.656   7.306
 4031WAT     H212336   1.799   5.649   7.147
 4032WAT      O12337   7.858   7.340   3.617
 4032WAT     H112338   7.917   7.303   3.545
 4032WAT     H212339   7.778   7.282   3.627
 4033WAT      O12340   1.938   4.247   1.831
 4033WAT     H112341   2.019   4.302   1.851
 4033WAT     H212342   1.871   4.258   1.904
 4034WAT      O12343   7.263   1.951   2.987
 4034WAT     H112344   7.332   1.998   3.042
 4034WAT     H212345   7.273   1.978   2.891
 4035WAT      O12346   7.353   5.464   6.549
 4035WAT     H112347   7.316   5.387   6.602
 4035WAT     H212348   7.410   5.521   6.608
 4036WAT      O12349   3.339   0.498   2.795
 4036WAT     H112350   3.372   0.419   2.847
 4036WAT     H212351   3.342   0.477   2.698
 4037WAT      O12352   8.284   5.572   6.856
 4037WAT     H112353   8.266   5.475   6.873
 4037WAT     H212354   8.257   5.626   6.935
 4038WAT      O12355   4.572   3.110   6.994
 4038WAT     H112356   4.672   3.113   6.983
 4038WAT     H212357   4.534   3.039   6.935
 4039WAT      O12358   2.717   9.132   2.788
 4039WAT     H112359   2.711   9.131   2.888
 4039WAT     H212360   2.695   9.040   2.753
 4040WAT      O12361   5.002   0.063   6.117
 4040WAT     H112362   5.086   0.106   6.083
 4040WAT     H212363   4.984  -0.020   6.064
 4041WAT      O12364   0.089   6.516   7.394
 4041WAT     H112365   0.035   6.526   7.311
 4041WAT     H212366   0.167   6.579   7.392
 4042WAT      O12367   2.631   6.745   5.104
 4042WAT     H112368   2.555   6.810   5.100
 4042WAT     H212369   2.604   6.666   5.159
 4043WAT      O12370   0.185   4.597   5.409
 4043WAT     H112371   0.132   4.514   5.389
 4043WAT     H212372   0.216   4.638   5.323
 4044WAT      O12373   2.487   5.404   9.456
 4044WAT     H112374   2.521   5.470   9.523
 4044WAT     H212375   2.406   5.358   9.493
 4045WAT      O12376   5.992   8.493   9.133
 4045WAT     H112377   6.046   8.411   9.115
 4045WAT     H212378   5.956   8.489   9.226
 4046WAT      O12379   0.799   7.747   3.212
 4046WAT     H112380   0.865   7.695   3.267
 4046WAT     H212381   0.843   7.830   3.177
 4047WAT      O12382   7.071   7.634   5.812
 4047WAT     H112383   7.074   7.594   5.720
 4047WAT     H212384   6.996   7.594   5.863
 4048WAT      O12385   3.786   5.662   9.852
 4048WAT     H112386   3.885   5.674   9.862
 4048WAT     H212387   3.753   5.596   9.919
 4049WAT      O12388   2.167   1.854   6.737
 4049WAT     H112389   2.263   1.860   6.763
 4049WAT     H212390   2.157   1.793   6.658
 4050WAT      O12391   3.736   0.992   7.622
 4050WAT     H112392   3.751   1.032   7.532
 4050WAT     H212393   3.775   0.900   7.625
 4051WAT      O12394   7.830   3.711   5.481
 4051WAT     H112395   7.855   3.777   5.552
 4051WAT     H212396   7.903   3.706   5.413
 4052WAT      O12397   5.602   4.924   0.809
 4052WAT     H112398   5.661   4.997   0.774
 4052WAT     H212399   5.551   4.883   0.733
 4053WAT      O12400   9.491   4.506   8.333
 4053WAT     H112401   9.560   4.480   8.400
 4053WAT     H212402   9.401   4.503   8.376
 4054WAT      O12403   4.901   1.754   9.248
 4054WAT     H112404   4.957   1.836   9.234
 4054WAT     H212405   4.819   1.760   9.191
 4055WAT      O12406   9.755   4.464   1.121
 4055WAT     H112407   9.737   4.366   1.112
 4055WAT     H212408   9.801   4.481   1.208
 4056WAT      O12409   9.699   3.015   9.254
 4056WAT     H112410   9.767   3.077   9.216
 4056WAT     H212411   9.627   3.068   9.299
 4057WAT      O12412   6.477   4.319   5.845
 4057WAT     H112413   6.541   4.247   5.874
 4057WAT     H212414   6.503   4.352   5.754
 4058WAT      O12415   3.644   4.929   0.145
 4058WAT     H112416   3.690   4.993   0.083
 4058WAT     H212417   3.675   4.836   0.125
 4059WAT      O12418   8.888   8.922   6.632
 4059WAT     H112419   8.861   8.994   6.697
 4059WAT     H212420   8.984   8.935   6.607
 4060WAT      O12421   6.511   3.988   1.136
 4060WAT     H112422   6.604   3.964   1.163
 4060WAT     H212423   6.446   3.936   1.193
 4061WAT      O12424   2.661   0.897   8.686
 4061WAT     H112425   2.653   0.970   8.618
 4061WAT     H212426   2.577   0.844   8.688
 4062WAT      O12427   2.978   8.849   2.205
 4062WAT     H112428   2.882   8.835   2.230
 4062WAT     H212429   2.986   8.928   2.145
 4063WAT      O12430   9.594   7.621   3.993
 4063WAT     H112431   9.562   7.695   3.934
 4063WAT     H212432   9.644   7.554   3.939
 4064WAT      O12433   0.236   3.072   9.050
 4064WAT     H112434   0.159   3.105   9.105
 4064WAT     H212435   0.276   2.991   9.093
 4065WAT      O12436   6.957   6.423   3.580
 4065WAT     H112437   6.945   6.416   3.679
 4065WAT     H212438   6.976   6.333   3.542
 4066WAT      O12439   3.528   0.418   0.372
 4066WAT     H112440   3.539   0.473   0.455
 4066WAT     H212441   3.463   0.345   0.390
 4067WAT      O12442   8.687   4.830   3.148
 4067WAT     H112443   8.745   4.819   3.068
 4067WAT     H212444   8.743   4.840   3.229
 4068WAT      O12445   7.436   5.279   8.534
 4068WAT     H112446   7.465   5.194   8.578
 4068WAT     H212447   7.505   5.307   8.467
 4069WAT      O12448   9.625   7.008   5.195
 4069WAT     H112449   9.678   7.084   5.231
 4069WAT     H212450   9.686   6.934   5.168
 4070WAT      O12451   9.789   8.115   4.474
 4070WAT     H112452   9.748   8.206   4.467
 4070WAT     H212453   9.858   8.104   4.402
 4071WAT      O12454   3.113   0.339   1.353
 4071WAT     H112455   3.154   0.423   1.318
 4071WAT     H212456   3.057   0.296   1.282
 4072WAT      O12457   1.925   2.400   9.469
 4072WAT     H112458   1.950   2.320   9.524
 4072WAT     H212459   1.923   2.481   9.528
 4073WAT      O12460   9.197   6.395   2.311
 4073WAT     H112461   9.240   6.362   2.227
 4073WAT     H212462   9.265   6.439   2.369
 4074WAT      O12463   9.733   6.241   5.443
 4074WAT     H112464   9.683   6.279   5.521
 4074WAT     H212465   9.690   6.272   5.358
 4075WAT      O12466   7.589   8.123   7.889
 4075WAT     H112467   7.559   8.218   7.877
 4075WAT     H212468   7.687   8.121   7.908
 4076WAT      O12469   2.197   7.326   3.701
 4076WAT     H112470   2.109   7.359   3.665
 4076WAT     H212471   2.185   7.298   3.796
 4077WAT      O12472   9.868   6.283   3.873
 4077WAT     H112473   9.833   6.354   3.934
 4077WAT     H212474   9.834   6.194   3.903
 4078WAT      O12475   7.434   8.086   6.984
 4078WAT     H112476   7.356   8.036   6.945
 4078WAT     H212477   7.507   8.092   6.917
 4079WAT      O12478   1.596   7.641   4.732
 4079WAT     H112479   1.648   7.666   4.650
 4079WAT     H212480   1.551   7.723   4.768
 4080WAT      O12481   1.094   3.205   5.115
 4080WAT     H112482   1.177   3.186   5.167
 4080WAT     H212483   1.079   3.304   5.112
 4081WAT      O12484   1.328   2.871   9.002
 4081WAT     H112485   1.357   2.782   9.038
 4081WAT     H212486   1.253   2.906   9.057
 4082WAT      O12487   9.444   7.698   7.389
 4082WAT     H112488   9.387   7.682   7.470
 4082WAT     H212489   9.540   7.688   7.415
 4083WAT      O12490   8.284   9.036   5.194
 4083WAT     H112491   8.256   9.074   5.106
 4083WAT     H212492   8.207   9.039   5.258
 4084WAT      O12493   3.116   2.299   5.396
 4084WAT     H112494   3.039   2.353   5.363
 4084WAT     H212495   3.174   2.272   5.319
 4085WAT      O12496   7.883   7.805   3.336
 4085WAT     H112497   7.930   7.868   3.275
 4085WAT     H212498   7.820   7.857   3.395
 4086WAT      O12499   2.553   9.630   1.891
 4086WAT     H112500   2.545   9.542   1.938
 4086WAT     H212501   2.485   9.636   1.818
 4087WAT      O12502   8.640   5.111   7.990
 4087WAT     H112503   8.711   5.042   7.979
 4087WAT     H212504   8.551   5.072   7.968
 4088WAT      O12505   6.348   3.210   9.359
 4088WAT     H112506   6.374   3.283   9.422
 4088WAT     H212507   6.361   3.121   9.403
 4089WAT      O12508   6.070   1.583   2.075
 4089WAT     H112509   5.995   1.596   2.140
 4089WAT     H212510   6.046   1.510   2.011
 4090WAT      O12511   3.038   4.737   3.113
 4090WAT     H112512   3.118   4.783   3.074
 4090WAT     H212513   2.983   4.698   3.040
 4091WAT      O12514   1.784   3.322   7.361
 4091WAT     H112515   1.749   3.307   7.454
 4091WAT     H212516   1.810   3.418   7.351
 4092WAT      O12517   9.749   4.170   8.103
 4092WAT     H112518   9.681   4.141   8.171
 4092WAT     H212519   9.729   4.264   8.075
 4093WAT      O12520   2.188   6.763   3.639
 4093WAT     H112521   2.155   6.823   3.567
 4093WAT     H212522   2.215   6.817   3.719
 4094WAT      O12523   3.454   4.004   2.144
 4094WAT     H112524   3.519   4.002   2.068
 4094WAT     H212525   3.502   3.992   2.230
 4095WAT      O12526   4.505   2.191   5.799
 4095WAT     H112527   4.513   2.283   5.838
 4095WAT     H212528   4.480   2.198   5.703
 4096WAT      O12529   2.427   2.743   1.743
 4096WAT     H112530   2.338   2.718   1.782
 4096WAT     H212531   2.413   2.785   1.653
 4097WAT      O12532   8.699   5.151   2.041
 4097WAT     H112533   8.752   5.108   1.967
 4097WAT     H212534   8.630   5.212   2.001
 4098WAT      O12535   9.359   0.825   8.418
 4098WAT     H112536   9.433   0.795   8.358
 4098WAT     H212537   9.326   0.914   8.388
 4099WAT      O12538   2.833   8.687   8.918
 4099WAT     H112539   2.901   8.622   8.886
 4099WAT     H212540   2.870   8.780   8.912
 4100WAT      O12541   2.552   8.997   8.427
 4100WAT     H112542   2.601   9.058   8.488
 4100WAT     H212543   2.604   8.912   8.414
 4101WAT      O12544   7.484   5.900   5.401
 4101WAT     H112545   7.493   5.917   5.303
 4101WAT     H212546   7.548   5.958   5.452
 4102WAT      O12547   3.338   8.566   6.616
 4102WAT     H112548   3.290   8.536   6.698
 4102WAT     H212549   3.275   8.565   6.538
 4103WAT      O12550   2.613   8.614   1.303
 4103WAT     H112551   2.574   8.555   1.374
 4103WAT     H212552   2.542   8.640   1.238
 4104WAT      O12553   0.863   2.323   9.333
 4104WAT     H112554   0.849   2.379   9.415
 4104WAT     H212555   0.813   2.237   9.344
 4105WAT      O12556   7.714   8.646   6.786
 4105WAT     H112557   7.737   8.712   6.714
 4105WAT     H212558   7.629   8.675   6.830
 4106WAT      O12559   5.725   7.261   9.635
 4106WAT     H112560   5.740   7.358   9.649
 4106WAT     H212561   5.626   7.242   9.633
 4107WAT      O12562   2.505   5.340   2.045
 4107WAT     H112563   2.445   5.263   2.024
 4107WAT     H212564   2.450   5.423   2.057
 4108WAT      O12565   8.714   6.298   9.317
 4108WAT     H112566   8.616   6.292   9.301
 4108WAT     H212567   8.759   6.345   9.241
 4109WAT      O12568   0.303   6.774   3.821
 4109WAT     H112569   0.300   6.811   3.728
 4109WAT     H212570   0.378   6.709   3.828
 4110WAT      O12571   7.354   5.572   9.170
 4110WAT     H112572   7.333   5.665   9.138
 4110WAT     H212573   7.273   5.534   9.215
 4111WAT      O12574   9.499   5.142   2.391
 4111WAT     H112575   9.511   5.057   2.443
 4111WAT     H212576   9.408   5.143   2.350
 4112WAT      O12577   0.056   6.570   8.457
 4112WAT     H112578   0.044   6.611   8.547
 4112WAT     H212579  -0.016   6.502   8.441
 4113WAT      O12580   8.447   1.304   6.402
 4113WAT     H112581   8.425   1.222   6.455
 4113WAT     H212582   8.496   1.369   6.460
 4114WAT      O12583   0.734   5.438   9.622
 4114WAT     H112584   0.773   5.521   9.582
 4114WAT     H212585   0.642   5.424   9.587
 4115WAT      O12586   1.440   5.518   1.154
 4115WAT     H112587   1.492   5.566   1.226
 4115WAT     H212588   1.381   5.584   1.107
 4116WAT      O12589   4.788   4.881   5.752
 4116WAT     H112590   4.717   4.949   5.764
 4116WAT     H212591   4.811   4.872   5.655
 4117WAT      O12592   6.614   9.028   2.670
 4117WAT     H112593   6.594   9.036   2.767
 4117WAT     H212594   6.675   8.951   2.654
 4118WAT      O12595   9.549   7.321   5.385
 4118WAT     H112596   9.462   7.321   5.435
 4118WAT     H212597   9.610   7.390   5.422
 4119WAT      O12598   8.262   9.463   1.302
 4119WAT     H112599   8.333   9.524   1.338
 4119WAT     H212600   8.302   9.373   1.286
 4120WAT      O12601   9.512   8.481   7.711
 4120WAT     H112602   9.436   8.433   7.753
 4120WAT     H212603   9.515   8.460   7.613
 4121WAT      O12604   4.840   1.562   9.402
 4121WAT     H112605   4.756   1.521   9.367
 4121WAT     H212606   4.872   1.633   9.339
 4122WAT      O12607   6.696   7.369   8.341
 4122WAT     H112608   6.672   7.285   8.291
 4122WAT     H212609   6.794   7.386   8.333
 4123WAT      O12610   2.280   8.956   2.633
 4123WAT     H112611   2.292   9.035   2.693
 4123WAT     H212612   2.183   8.938   2.618
 4124WAT      O12613   3.017   5.207   6.705
 4124WAT     H112614   2.940   5.147   6.730
 4124WAT     H212615   2.984   5.282   6.649
 4125WAT      O12616   0.737   7.940   2.852
 4125WAT     H112617   0.676   7.943   2.772
 4125WAT     H212618   0.778   8.029   2.865
 4126WAT      O12619   4.286   8.013   7.836
 4126WAT     H112620   4.261   7.975   7.925
 4126WAT     H212621   4.206   8.013   7.776
 4127WAT      O12622   0.786   6.727   7.706
 4127WAT     H112623   0.699   6.771   7.683
 4127WAT     H212624   0.811   6.748   7.800
 4128WAT      O12625   7.157   2.435   3.335
 4128WAT     H112626   7.065   2.404   3.313
 4128WAT     H212627   7.160   2.535   3.333
 4129WAT      O12628   9.355   1.821   1.516
 4129WAT     H112629   9.435   1.790   1.464
 4129WAT     H212630   9.381   1.834   1.612
 4130WAT      O12631   7.595   7.036   7.836
 4130WAT     H112632   7.565   6.970   7.904
 4130WAT     H212633   7.583   7.129   7.873
 4131WAT      O12634   5.853   4.110   4.054
 4131WAT     H112635   5.754   4.100   4.049
 4131WAT     H212636   5.890   4.116   3.961
 4132WAT      O12637   4.064   7.124   0.646
 4132WAT     H112638   4.163   7.111   0.654
 4132WAT     H212639   4.017   7.038   0.667
 4133WAT      O12640   0.062   3.656   4.397
 4133WAT     H112641   0.047   3.744   4.442
 4133WAT     H212642   0.117   3.597   4.457
 4134WAT      O12643   8.924   3.367   3.532
 4134WAT     H112644   8.965   3.446   3.577
 4134WAT     H212645   8.832   3.392   3.499
 4135WAT      O12646   0.213   4.842   2.864
 4135WAT     H112647   0.189   4.783   2.787
 4135WAT     H212648   0.156   4.819   2.943
 4136WAT      O12649   3.469   7.287   1.166
 4136WAT     H112650   3.382   7.238   1.173
 4136WAT     H212651   3.544   7.224   1.185
 4137WAT      O12652   0.373   5.026   9.232
 4137WAT     H112653   0.441   5.052   9.301
 4137WAT     H212654   0.390   5.077   9.147
 4138WAT      O12655   3.637   5.490   6.881
 4138WAT     H112656   3.717   5.472   6.938
 4138WAT     H212657   3.667   5.529   6.794
 4139WAT      O12658   2.228   0.569   3.164
 4139WAT     H112659   2.145   0.514   3.150
 4139WAT     H212660   2.201   0.663   3.188
 4140WAT      O12661   4.202   0.455   7.559
 4140WAT     H112662   4.249   0.542   7.574
 4140WAT     H212663   4.175   0.416   7.647
 4141WAT      O12664   3.263   6.203   4.972
 4141WAT     H112665   3.227   6.184   4.880
 4141WAT     H212666   3.188   6.201   5.038
 4142WAT      O12667   4.782   0.167   0.318
 4142WAT     H112668   4.700   0.221   0.297
 4142WAT     H212669   4.835   0.153   0.234
 4143WAT      O12670   3.101   0.805   9.743
 4143WAT     H112671   3.181   0.865   9.742
 4143WAT     H212672   3.075   0.786   9.838
 4144WAT      O12673   6.092   6.364   0.746
 4144WAT     H112674   5.996   6.372   0.719
 4144WAT     H212675   6.103   6.282   0.802
 4145WAT      O12676   5.751   4.794   7.601
 4145WAT     H112677   5.804   4.715   7.571
 4145WAT     H212678   5.788   4.830   7.687
 4146WAT      O12679   2.758   3.001   6.774
 4146WAT     H112680   2.685   3.069   6.786
 4146WAT     H212681   2.718   2.909   6.771
 4147WAT      O12682   8.460   2.547   1.282
 4147WAT     H112683   8.430   2.463   1.237
 4147WAT     H212684   8.463   2.533   1.380
 4148WAT      O12685   7.181   8.092   5.516
 4148WAT     H112686   7.090   8.133   5.519
 4148WAT     H212687   7.190   8.025   5.590
 4149WAT      O12688   8.090   1.650   3.195
 4149WAT     H112689   8.059   1.690   3.281
 4149WAT     H212690   8.165   1.704   3.158
 4150WAT      O12691   4.551   8.794   2.079
 4150WAT     H112692   4.493   8.815   1.999
 4150WAT     H212693   4.631   8.744   2.049
 4151WAT      O12694   1.535   7.267   4.224
 4151WAT     H112695   1.453   7.318   4.248
 4151WAT     H212696   1.606   7.284   4.293
 4152WAT      O12697   4.203   8.978   7.720
 4152WAT     H112698   4.136   9.032   7.770
 4152WAT     H212699   4.185   8.880   7.733
 4153WAT      O12700   7.430   3.315   5.552
 4153WAT     H112701   7.424   3.271   5.462
 4153WAT     H212702   7.365   3.271   5.614
 4154WAT      O12703   2.826   3.697   8.448
 4154WAT     H112704   2.781   3.713   8.535
 4154WAT     H212705   2.905   3.758   8.438
 4155WAT      O12706   0.784   8.924   7.594
 4155WAT     H112707   0.852   8.997   7.594
 4155WAT     H212708   0.721   8.937   7.518
 4156WAT      O12709   9.070   8.327   1.600
 4156WAT     H112710   9.093   8.231   1.583
 4156WAT     H212711   9.107   8.355   1.688
 4157WAT      O12712   4.726   8.213   6.674
 4157WAT     H112713   4.756   8.118   6.675
 4157WAT     H212714   4.734   8.249   6.581
 4158WAT      O12715   9.250   5.274   0.071
 4158WAT     H112716   9.213   5.348   0.015
 4158WAT     H212717   9.320   5.311   0.133
 4159WAT      O12718   0.571   8.022   9.544
 4159WAT     H112719   0.555   7.943   9.603
 4159WAT     H212720   0.667   8.047   9.546
 4160WAT      O12721   3.650   6.345   1.784
 4160WAT     H112722   3.724   6.400   1.823
 4160WAT     H212723   3.575   6.339   1.849
 4161WAT      O12724   5.435   0.269   2.646
 4161WAT     H112725   5.422   0.222   2.733
 4161WAT     H212726   5.514   0.330   2.653
 4162WAT      O12727   6.147   2.804   6.478
 4162WAT     H112728   6.141   2.902   6.457
 4162WAT     H212729   6.082   2.782   6.551
 4163WAT      O12730   6.486   6.190   0.044
 4163WAT     H112731   6.408   6.134   0.074
 4163WAT     H212732   6.455   6.283   0.028
 4164WAT      O12733   2.793   0.987   9.604
 4164WAT     H112734   2.844   0.983   9.691
 4164WAT     H212735   2.819   0.910   9.547
 4165WAT      O12736   7.957   7.128   7.266
 4165WAT     H112737   7.954   7.107   7.364
 4165WAT     H212738   8.052   7.130   7.235
 4166WAT      O12739   4.695   8.334   7.717
 4166WAT     H112740   4.608   8.310   7.761
 4166WAT     H212741   4.698   8.294   7.625
 4167WAT      O12742   4.490   4.683   0.474
 4167WAT     H112743   4.586   4.658   0.484
 4167WAT     H212744   4.460   4.664   0.381
 4168WAT      O12745   9.397   3.961   6.170
 4168WAT     H112746   9.361   3.916   6.252
 4168WAT     H212747   9.337   4.037   6.145
 4169WAT      O12748   2.043   9.549   1.930
 4169WAT     H112749   2.102   9.506   1.862
 4169WAT     H212750   2.062   9.511   2.020
 4170WAT      O12751   1.900   7.457   1.096
 4170WAT     H112752   1.976   7.450   1.031
 4170WAT     H212753   1.857   7.547   1.088
 4171WAT      O12754   1.404   8.483   0.657
 4171WAT     H112755   1.341   8.556   0.683
 4171WAT     H212756   1.375   8.442   0.571
 4172WAT      O12757   6.490   6.769   1.695
 4172WAT     H112758   6.455   6.701   1.630
 4172WAT     H212759   6.585   6.748   1.718
 4173WAT      O12760   9.819   5.371   0.841
 4173WAT     H112761   9.767   5.340   0.920
 4173WAT     H212762   9.848   5.466   0.855
 4174WAT      O12763   1.495   7.154   1.158
 4174WAT     H112764   1.507   7.072   1.215
 4174WAT     H212765   1.508   7.235   1.214
 4175WAT      O12766   0.229   5.932   2.411
 4175WAT     H112767   0.227   5.885   2.323
 4175WAT     H212768   0.246   5.865   2.484
 4176WAT      O12769   0.829   4.570   7.829
 4176WAT     H112770   0.924   4.537   7.833
 4176WAT     H212771   0.813   4.634   7.903
 4177WAT      O12772   7.417   6.666   0.286
 4177WAT     H112773   7.336   6.652   0.343
 4177WAT     H212774   7.394   6.727   0.210
 4178WAT      O12775   6.160   2.399   0.466
 4178WAT     H112776   6.087   2.396   0.398
 4178WAT     H212777   6.224   2.324   0.451
 4179WAT      O12778   9.330   0.676   8.654
 4179WAT     H112779   9.240   0.679   8.698
 4179WAT     H212780   9.329   0.733   8.573
 4180WAT      O12781   3.689   1.027   6.144
 4180WAT     H112782   3.681   0.992   6.238
 4180WAT     H212783   3.683   0.952   6.080
 4181WAT      O12784   6.531   7.926   2.631
 4181WAT     H112785   6.596   7.872   2.684
 4181WAT     H212786   6.552   8.023   2.642
 4182WAT      O12787   7.992   8.154   4.779
 4182WAT     H112788   7.923   8.216   4.816
 4182WAT     H212789   7.998   8.073   4.837
 4183WAT      O12790   2.876   0.235   2.975
 4183WAT     H112791   2.854   0.274   3.065
 4183WAT     H212792   2.924   0.148   2.988
 4184WAT      O12793   1.579   4.358   2.355
 4184WAT     H112794   1.547   4.414   2.431
 4184WAT     H212795   1.501   4.323   2.303
 4185WAT      O12796   5.511   9.659   6.483
 4185WAT     H112797   5.499   9.675   6.581
 4185WAT     H212798   5.434   9.605   6.448
 4186WAT      O12799   4.588   4.762   8.892
 4186WAT     H112800   4.630   4.759   8.982
 4186WAT     H212801   4.601   4.675   8.846
 4187WAT      O12802   3.794   4.031   2.246
 4187WAT     H112803   3.734   4.028   2.326
 4187WAT     H212804   3.839   4.120   2.242
 4188WAT      O12805   9.373   6.560   0.135
 4188WAT     H112806   9.451   6.533   0.192
 4188WAT     H212807   9.373   6.505   0.051
 4189WAT      O12808   1.119   6.492   5.602
 4189WAT     H112809   1.060   6.477   5.522
 4189WAT     H212810   1.065   6.532   5.676
 4190WAT      O12811   4.762   7.725   2.056
 4190WAT     H112812   4.673   7.735   2.010
 4190WAT     H212813   4.794   7.631   2.046
 4191WAT      O12814   0.714   6.745   4.668
 4191WAT     H112815   0.759   6.834   4.662
 4191WAT     H212816   0.773   6.680   4.717
 4192WAT      O12817   2.012   9.105   9.128
 4192WAT     H112818   2.045   9.081   9.219
 4192WAT     H212819   2.041   9.037   9.061
 4193WAT      O12820   2.872   0.429   4.043
 4193WAT     H112821   2.944   0.363   4.069
 4193WAT     H212822   2.825   0.395   3.962
 4194WAT      O12823   4.306   4.415   3.459
 4194WAT     H112824   4.254   4.466   3.528
 4194WAT     H212825   4.378   4.363   3.504
 4195WAT      O12826   1.509   2.710   3.386
 4195WAT     H112827   1.426   2.680   3.432
 4195WAT     H212828   1.496   2.803   3.351
 4196WAT      O12829   6.967   2.271   2.458
 4196WAT     H112830   7.061   2.240   2.466
 4196WAT     H212831   6.964   2.371   2.463
 4197WAT      O12832   0.502   3.174   1.441
 4197WAT     H112833   0.432   3.181   1.370
 4197WAT     H212834   0.459   3.183   1.531
 4198WAT      O12835   7.949   8.254   6.375
 4198WAT     H112836   8.032   8.274   6.323
 4198WAT     H212837   7.878   8.222   6.313
 4199WAT      O12838   3.010   5.229   5.991
 4199WAT     H112839   3.003   5.151   6.052
 4199WAT     H212840   2.979   5.311   6.038
 4200WAT      O12841   0.326   8.119   9.625
 4200WAT     H112842   0.406   8.108   9.567
 4200WAT     H212843   0.354   8.162   9.711
 4201WAT      O12844   2.239   6.074   7.930
 4201WAT     H112845   2.287   6.115   8.008
 4201WAT     H212846   2.305   6.028   7.870
 4202WAT      O12847   1.903   9.066   8.562
 4202WAT     H112848   2.000   9.051   8.581
 4202WAT     H212849   1.850   8.989   8.598
 4203WAT      O12850   2.298   4.169   6.671
 4203WAT     H112851   2.356   4.091   6.646
 4203WAT     H212852   2.216   4.136   6.717
 4204WAT      O12853   8.958   8.833   3.064
 4204WAT     H112854   8.899   8.907   3.031
 4204WAT     H212855   9.033   8.818   3.000
 4205WAT      O12856   7.528   6.912   2.240
 4205WAT     H112857   7.602   6.909   2.173
 4205WAT     H212858   7.463   6.983   2.215
 4206WAT      O12859   4.637   4.819   8.332
 4206WAT     H112860   4.688   4.798   8.248
 4206WAT     H212861   4.617   4.917   8.335
 4207WAT      O12862   9.339   5.104   8.425
 4207WAT     H112863   9.330   5.033   8.495
 4207WAT     H212864   9.435   5.122   8.406
 4208WAT      O12865   7.582   9.537   0.454
 4208WAT     H112866   7.618   9.518   0.363
 4208WAT     H212867   7.627   9.619   0.490
 4209WAT      O12868   2.838   8.013   1.757
 4209WAT     H112869   2.776   7.968   1.822
 4209WAT     H212870   2.866   8.102   1.795
 4210WAT      O12871   1.644   7.570   2.393
 4210WAT     H112872   1.582   7.565   2.471
 4210WAT     H212873   1.592   7.588   2.310
 4211WAT      O12874   1.697   3.053   3.596
 4211WAT     H112875   1.737   2.996   3.524
 4211WAT     H212876   1.769   3.092   3.652
 4212WAT      O12877   2.509   2.987   0.574
 4212WAT     H112878   2.608   2.982   0.586
 4212WAT     H212879   2.488   3.035   0.489
 4213WAT      O12880   1.246   2.492   9.758
 4213WAT     H112881   1.223   2.582   9.794
 4213WAT     H212882   1.167   2.432   9.763
 4214WAT      O12883   0.108   5.594   4.657
 4214WAT     H112884   0.153   5.560   4.574
 4214WAT     H212885   0.167   5.577   4.736
 4215WAT      O12886   1.930   2.727   8.571
 4215WAT     H112887   1.903   2.815   8.532
 4215WAT     H212888   1.881   2.653   8.525
 4216WAT      O12889   6.675   5.438   3.774
 4216WAT     H112890   6.765   5.475   3.797
 4216WAT     H212891   6.650   5.464   3.681
 4217WAT      O12892   4.447   4.927   2.130
 4217WAT     H112893   4.453   4.952   2.033
 4217WAT     H212894   4.534   4.888   2.160
 4218WAT      O12895   2.647   2.840   1.920
 4218WAT     H112896   2.577   2.831   1.850
 4218WAT     H212897   2.722   2.776   1.900
 4219WAT      O12898   0.680   6.247   9.179
 4219WAT     H112899   0.759   6.309   9.181
 4219WAT     H212900   0.627   6.259   9.263
 4220WAT      O12901   7.369   0.467   0.737
 4220WAT     H112902   7.347   0.374   0.767
 4220WAT     H212903   7.392   0.466   0.640
 4221WAT      O12904   6.196   5.865   9.677
 4221WAT     H112905   6.124   5.890   9.742
 4221WAT     H212906   6.283   5.905   9.707
 4222WAT      O12907   4.232   4.664   2.632
 4222WAT     H112908   4.169   4.741   2.634
 4222WAT     H212909   4.196   4.593   2.572
 4223WAT      O12910   7.160   0.233   4.125
 4223WAT     H112911   7.170   0.148   4.178
 4223WAT     H212912   7.212   0.225   4.040
 4224WAT      O12913   2.189   7.134   0.994
 4224WAT     H112914   2.179   7.149   1.092
 4224WAT     H212915   2.176   7.221   0.946
 4225WAT      O12916   3.692   5.871   0.530
 4225WAT     H112917   3.688   5.838   0.435
 4225WAT     H212918   3.690   5.971   0.530
 4226WAT      O12919   4.160   6.420   9.775
 4226WAT     H112920   4.246   6.414   9.826
 4226WAT     H212921   4.124   6.513   9.780
 4227WAT      O12922   1.831   5.951   5.168
 4227WAT     H112923   1.864   6.001   5.248
 4227WAT     H212924   1.841   6.007   5.086
 4228WAT      O12925   0.603   9.313   9.008
 4228WAT     H112926   0.696   9.317   8.972
 4228WAT     H212927   0.604   9.329   9.107
 4229WAT      O12928   4.010   2.024   8.786
 4229WAT     H112929   4.059   1.942   8.757
 4229WAT     H212930   3.982   2.015   8.881
 4230WAT      O12931   8.756   6.320   9.009
 4230WAT     H112932   8.720   6.400   8.962
 4230WAT     H212933   8.839   6.345   9.060
 4231WAT      O12934   6.753   5.889   9.208
 4231WAT     H112935   6.767   5.870   9.305
 4231WAT     H212936   6.751   5.803   9.157
 4232WAT      O12937   7.232   8.019   0.272
 4232WAT     H112938   7.269   8.084   0.205
 4232WAT     H212939   7.307   7.968   0.313
 4233WAT      O12940   3.805   8.926   6.097
 4233WAT     H112941   3.727   8.891   6.044
 4233WAT     H212942   3.801   8.889   6.190
 4234WAT      O12943   1.754   1.208   6.747
 4234WAT     H112944   1.840   1.162   6.769
 4234WAT     H212945   1.750   1.296   6.793
 4235WAT      O12946   1.406   4.472   8.440
 4235WAT     H112947   1.399   4.513   8.349
 4235WAT     H212948   1.378   4.538   8.509
 4236WAT      O12949   2.430   9.368   1.922
 4236WAT     H112950   2.469   9.297   1.863
 4236WAT     H212951   2.434   9.338   2.018
 4237WAT      O12952   4.848   7.946   6.645
 4237WAT     H112953   4.785   7.868   6.644
 4237WAT     H212954   4.942   7.913   6.648
 4238WAT      O12955   0.806   2.464   8.536
 4238WAT     H112956   0.808   2.561   8.514
 4238WAT     H212957   0.863   2.414   8.471
 4239WAT      O12958   5.706   3.284   7.725
 4239WAT     H112959   5.771   3.360   7.719
 4239WAT     H212960   5.756   3.199   7.740
 4240WAT      O12961   0.662   0.902   3.406
 4240WAT     H112962   0.585   0.845   3.380
 4240WAT     H212963   0.631   0.996   3.423
 4241WAT      O12964   0.730   4.969   5.859
 4241WAT     H112965   0.637   4.936   5.843
 4241WAT     H212966   0.728   5.042   5.927
 4242WAT      O12967   4.749   2.148   8.760
 4242WAT     H112968   4.727   2.140   8.663
 4242WAT     H212969   4.847   2.166   8.771
 4243WAT      O12970   7.369   5.931   1.662
 4243WAT     H112971   7.276   5.936   1.698
 4243WAT     H212972   7.398   5.836   1.657
 4244WAT      O12973   2.056   6.245   6.867
 4244WAT     H112974   2.128   6.184   6.833
 4244WAT     H212975   2.032   6.311   6.796
 4245WAT      O12976   8.762   0.311   6.281
 4245WAT     H112977   8.838   0.320   6.346
 4245WAT     H212978   8.709   0.395   6.281
 4246WAT      O12979   6.376   0.408   2.600
 4246WAT     H112980   6.414   0.331   2.549
 4246WAT     H212981   6.399   0.398   2.697
 4247WAT      O12982   1.823   1.937   7.988
 4247WAT     H112983   1.917   1.970   7.991
 4247WAT     H212984   1.763   2.010   7.956
 4248WAT      O12985   1.419   2.501   3.062
 4248WAT     H112986   1.515   2.508   3.088
 4248WAT     H212987   1.377   2.423   3.109
 4249WAT      O12988   7.885   8.469   7.611
 4249WAT     H112989   7.947   8.394   7.636
 4249WAT     H212990   7.939   8.545   7.575
 4250WAT      O12991   8.406   7.827   6.250
 4250WAT     H112992   8.419   7.905   6.188
 4250WAT     H212993   8.479   7.760   6.234
 4251WAT      O12994   1.575   6.393   7.035
 4251WAT     H112995   1.645   6.462   7.052
 4251WAT     H212996   1.617   6.302   7.036
 4252WAT      O12997   3.527   1.948   0.915
 4252WAT     H112998   3.545   2.031   0.861
 4252WAT     H212999   3.482   1.974   1.000
 4253WAT      O13000   8.001   6.086   6.165
 4253WAT     H113001   8.035   6.134   6.246
 4253WAT     H213002   8.072   6.088   6.093
 4254WAT      O13003   1.175   4.481   5.915
 4254WAT     H113004   1.078   4.464   5.932
 4254WAT     H213005   1.202   4.567   5.959
 4255WAT      O13006   9.340   7.233   4.587
 4255WAT     H113007   9.259   7.239   4.529
 4255WAT     H213008   9.328   7.294   4.666
 4256WAT      O13009   6.815   2.904   7.766
 4256WAT     H113010   6.756   2.933   7.691
 4256WAT     H213011   6.815   2.804   7.772
 4257WAT      O13012   4.870   3.787   2.935
 4257WAT     H113013   4.913   3.770   3.024
 4257WAT     H213014   4.897   3.716   2.871
 4258WAT      O13015   0.481   5.154   7.352
 4258WAT     H113016   0.398   5.161   7.406
 4258WAT     H213017   0.460   5.169   7.255
 4259WAT      O13018   9.327   8.295   5.283
 4259WAT     H113019   9.322   8.304   5.183
 4259WAT     H213020   9.282   8.373   5.326
 4260WAT      O13021   2.599   7.668   6.545
 4260WAT     H113022   2.552   7.612   6.477
 4260WAT     H213023   2.681   7.708   6.503
 4261WAT      O13024   0.406   9.229   1.764
 4261WAT     H113025   0.375   9.152   1.820
 4261WAT     H213026   0.370   9.314   1.802
 4262WAT      O13027   0.476   1.904   1.069
 4262WAT     H113028   0.568   1.920   1.105
 4262WAT     H213029   0.443   1.815   1.098
 4263WAT      O13030   2.743   3.367   2.686
 4263WAT     H113031   2.783   3.372   2.595
 4263WAT     H213032   2.644   3.378   2.680
 4264WAT      O13033   4.422   9.211   4.613
 4264WAT     H113034   4.441   9.183   4.519
 4264WAT     H213035   4.477   9.291   4.635
 4265WAT      O13036   9.633   6.391   5.662
 4265WAT     H113037   9.590   6.318   5.716
 4265WAT     H213038   9.669   6.461   5.723
 4266WAT      O13039   1.390   7.050   2.660
 4266WAT     H113040   1.434   6.971   2.618
 4266WAT     H213041   1.452   7.091   2.727
 4267WAT      O13042   7.895   2.128   5.861
 4267WAT     H113043   7.922   2.041   5.819
 4267WAT     H213044   7.800   2.122   5.891
 4268WAT      O13045   6.933   6.395   9.801
 4268WAT     H113046   6.854   6.433   9.754
 4268WAT     H213047   7.015   6.447   9.777
 4269WAT      O13048   8.307   3.264   1.094
 4269WAT     H113049   8.393   3.312   1.076
 4269WAT     H213050   8.322   3.166   1.092
 4270WAT      O13051   9.613   3.116   0.665
 4270WAT     H113052   9.591   3.129   0.762
 4270WAT     H213053   9.692   3.173   0.640
 4271WAT      O13054   3.310   2.371   4.442
 4271WAT     H113055   3.234   2.307   4.427
 4271WAT     H213056   3.283   2.437   4.513
 4272WAT      O13057   8.901   7.155   7.126
 4272WAT     H113058   8.844   7.123   7.050
 4272WAT     H213059   8.952   7.237   7.098
 4273WAT      O13060   4.644   4.103   0.500
 4273WAT     H113061   4.725   4.154   0.468
 4273WAT     H213062   4.602   4.153   0.575
 4274WAT      O13063   6.222   6.550   5.872
 4274WAT     H113064   6.180   6.613   5.937
 4274WAT     H213065   6.310   6.586   5.842
 4275WAT      O13066   1.867   6.883   2.997
 4275WAT     H113067   1.823   6.952   3.054
 4275WAT     H213068   1.817   6.874   2.911
 4276WAT      O13069   9.585   4.390   5.165
 4276WAT     H113070   9.581   4.489   5.150
 4276WAT     H213071   9.492   4.354   5.173
 4277WAT      O13072   7.516   2.134   7.128
 4277WAT     H113073   7.484   2.039   7.119
 4277WAT     H213074   7.591   2.137   7.194
 4278WAT      O13075   8.765   6.239   3.543
 4278WAT     H113076   8.682   6.195   3.577
 4278WAT     H213077   8.814   6.283   3.618
 4279WAT      O13078   8.889   6.343   4.868
 4279WAT     H113079   8.911   6.430   4.913
 4279WAT     H213080   8.971   6.308   4.823
 4280WAT      O13081   8.491   6.904   9.543
 4280WAT     H113082   8.545   6.821   9.557
 4280WAT     H213083   8.521   6.950   9.460
 4281WAT      O13084   1.517   0.204   4.707
 4281WAT     H113085   1.450   0.145   4.750
 4281WAT     H213086   1.521   0.291   4.756
 4282WAT      O13087   0.852   7.788   2.202
 4282WAT     H113088   0.948   7.807   2.182
 4282WAT     H213089   0.816   7.859   2.262
 4283WAT      O13090   7.903   7.439   1.714
 4283WAT     H113091   7.895   7.358   1.655
 4283WAT     H213092   7.910   7.521   1.657
 4284WAT      O13093   8.344   8.538   0.466
 4284WAT     H113094   8.342   8.628   0.423
 4284WAT     H213095   8.307   8.470   0.402
 4285WAT      O13096   9.510   1.731   8.241
 4285WAT     H113097   9.514   1.830   8.226
 4285WAT     H213098   9.414   1.703   8.252
 4286WAT      O13099   2.529   0.653   4.362
 4286WAT     H113100   2.464   0.689   4.429
 4286WAT     H213101   2.616   0.703   4.370
 4287WAT      O13102   9.035   4.530   7.145
 4287WAT     H113103   9.086   4.444   7.150
 4287WAT     H213104   9.055   4.585   7.226
 4288WAT      O13105   3.806   2.782   2.934
 4288WAT     H113106   3.901   2.793   2.964
 4288WAT     H213107   3.749   2.761   3.014
 4289WAT      O13108   1.809   1.803   5.827
 4289WAT     H113109   1.890   1.767   5.780
 4289WAT     H213110   1.833   1.885   5.877
 4290WAT      O13111   6.471   8.098   7.616
 4290WAT     H113112   6.480   8.065   7.710
 4290WAT     H213113   6.492   8.024   7.552
 4291WAT      O13114   9.331   4.942   7.919
 4291WAT     H113115   9.267   4.867   7.898
 4291WAT     H213116   9.305   4.983   8.007
 4292WAT      O13117   2.177   7.227   1.586
 4292WAT     H113118   2.102   7.199   1.526
 4292WAT     H213119   2.261   7.233   1.533
 4293WAT      O13120   5.547   0.230   6.525
 4293WAT     H113121   5.620   0.256   6.463
 4293WAT     H213122   5.578   0.157   6.586
 4294WAT      O13123   4.771   0.971   4.684
 4294WAT     H113124   4.704   0.953   4.612
 4294WAT     H213125   4.857   0.923   4.662
 4295WAT      O13126   1.465   8.021   9.033
 4295WAT     H113127   1.373   7.998   9.066
 4295WAT     H213128   1.519   7.937   9.021
 4296WAT      O13129   1.092   7.699   5.518
 4296WAT     H113130   1.075   7.789   5.477
 4296WAT     H213131   1.064   7.700   5.614
 4297WAT      O13132   7.695   0.649   8.364
 4297WAT     H113133   7.641   0.720   8.319
 4297WAT     H213134   7.668   0.559   8.329
 4298WAT      O13135   6.770   9.252   5.691
 4298WAT     H113136   6.803   9.172   5.741
 4298WAT     H213137   6.814   9.255   5.601
 4299WAT      O13138   3.702   5.409   0.101
 4299WAT     H113139   3.768   5.333   0.094
 4299WAT     H213140   3.681   5.427   0.197
 4300WAT      O13141   8.120   8.802   1.741
 4300WAT     H113142   8.199   8.758   1.701
 4300WAT     H213143   8.149   8.863   1.814
 4301WAT      O13144   9.279   6.576   5.687
 4301WAT     H113145   9.363   6.619   5.653
 4301WAT     H213146   9.204   6.594   5.623
 4302WAT      O13147   6.618   6.744   0.646
 4302WAT     H113148   6.702   6.726   0.595
 4302WAT     H213149   6.579   6.832   0.617
 4303WAT      O13150   8.199   1.129   8.518
 4303WAT     H113151   8.146   1.197   8.468
 4303WAT     H213152   8.183   1.139   8.616
 4304WAT      O13153   5.582   0.801   2.358
 4304WAT     H113154   5.556   0.895   2.333
 4304WAT     H213155   5.523   0.736   2.310
 4305WAT      O13156   0.902   6.918   8.499
 4305WAT     H113157   0.941   6.983   8.564
 4305WAT     H213158   0.809   6.895   8.526
 4306WAT      O13159   7.365   6.857   5.745
 4306WAT     H113160   7.381   6.943   5.697
 4306WAT     H213161   7.443   6.796   5.732
 4307WAT      O13162   6.562   6.136   8.757
 4307WAT     H113163   6.622   6.215   8.747
 4307WAT     H213164   6.528   6.108   8.667
 4308WAT      O13165   7.094   9.512   9.555
 4308WAT     H113166   7.127   9.418   9.563
 4308WAT     H213167   7.160   9.574   9.598
 4309WAT      O13168   1.279   0.874   9.219
 4309WAT     H113169   1.255   0.882   9.122
 4309WAT     H213170   1.204   0.830   9.268
 4310WAT      O13171   8.877   5.384   6.455
 4310WAT     H113172   8.853   5.291   6.483
 4310WAT     H213173   8.845   5.400   6.362
 4311WAT      O13174   0.136   3.716   5.863
 4311WAT     H113175   0.056   3.771   5.840
 4311WAT     H213176   0.108   3.621   5.877
 4312WAT      O13177   6.748   5.863   9.494
 4312WAT     H113178   6.672   5.822   9.544
 4312WAT     H213179   6.780   5.944   9.542
 4313WAT      O13180   7.397   3.915   2.642
 4313WAT     H113181   7.365   3.865   2.561
 4313WAT     H213182   7.322   3.925   2.707
 4314WAT      O13183   3.749   5.350   0.639
 4314WAT     H113184   3.707   5.439   0.654
 4314WAT     H213185   3.732   5.291   0.718
 4315WAT      O13186   3.762   3.177   7.344
 4315WAT     H113187   3.845   3.122   7.344
 4315WAT     H213188   3.717   3.171   7.255
 4316WAT      O13189   7.918   2.203   9.642
 4316WAT     H113190   7.978   2.262   9.697
 4316WAT     H213191   7.879   2.256   9.567
 4317WAT      O13192   7.965   1.145   3.873
 4317WAT     H113193   7.986   1.100   3.960
 4317WAT     H213194   8.043   1.134   3.811
 4318WAT      O13195   7.504   4.783   7.840
 4318WAT     H113196   7.573   4.730   7.791
 4318WAT     H213197   7.416   4.736   7.835
 4319WAT      O13198   8.309   3.964   6.535
 4319WAT     H113199   8.377   3.938   6.604
 4319WAT     H213200   8.341   3.937   6.444
 4320WAT      O13201   0.010   2.122   2.634
 4320WAT     H113202  -0.082   2.157   2.617
 4320WAT     H213203   0.008   2.062   2.714
 4321WAT      O13204   1.204   9.736   9.367
 4321WAT     H113205   1.178   9.753   9.462
 4321WAT     H213206   1.241   9.643   9.359
 4322WAT      O13207   7.589   6.604   5.424
 4322WAT     H113208   7.551   6.512   5.427
 4322WAT     H213209   7.658   6.609   5.351
 4323WAT      O13210   7.701   6.556   1.667
 4323WAT     H113211   7.787   6.507   1.651
 4323WAT     H213212   7.649   6.558   1.582
 4324WAT      O13213   0.390   5.500   7.054
 4324WAT     H113214   0.346   5.501   6.964
 4324WAT     H213215   0.342   5.562   7.115
 4325WAT      O13216   1.324   2.843   4.782
 4325WAT     H113217   1.401   2.860   4.721
 4325WAT     H213218   1.353   2.859   4.877
 4326WAT      O13219   7.753   0.047   3.125
 4326WAT     H113220   7.753   0.069   3.028
 4326WAT     H213221   7.658   0.032   3.155
 4327WAT      O13222   2.439   6.468   7.764
 4327WAT     H113223   2.465   6.393   7.825
 4327WAT     H213224   2.473   6.555   7.801
 4328WAT      O13225   9.273   1.083   8.387
 4328WAT     H113226   9.220   1.124   8.312
 4328WAT     H213227   9.297   1.154   8.453
 4329WAT      O13228   7.036   8.352   4.360
 4329WAT     H113229   7.000   8.349   4.454
 4329WAT     H213230   7.132   8.379   4.362
 4330WAT      O13231   6.731   2.609   6.245
 4330WAT     H113232   6.800   2.571   6.307
 4330WAT     H213233   6.647   2.627   6.296
 4331WAT      O13234   2.124   8.488   2.571
 4331WAT     H113235   2.179   8.416   2.530
 4331WAT     H213236   2.184   8.552   2.619
 4332WAT      O13237   2.518   7.931   4.472
 4332WAT     H113238   2.532   8.029   4.482
 4332WAT     H213239   2.421   7.912   4.457
 4333WAT      O13240   8.106   9.398   8.042
 4333WAT     H113241   8.043   9.475   8.052
 4333WAT     H213242   8.192   9.430   8.002
 4334WAT      O13243   0.370   3.723   1.965
 4334WAT     H113244   0.296   3.746   2.028
 4334WAT     H213245   0.342   3.647   1.906
 4335WAT      O13246   6.667   4.472   9.518
 4335WAT     H113247   6.598   4.544   9.521
 4335WAT     H213248   6.740   4.493   9.583
 4336WAT      O13249   6.229   1.927   6.003
 4336WAT     H113250   6.303   1.862   6.027
 4336WAT     H213251   6.151   1.876   5.967
 4337WAT      O13252   4.714   3.803   8.233
 4337WAT     H113253   4.674   3.886   8.196
 4337WAT     H213254   4.674   3.723   8.187
 4338WAT      O13255   8.435   9.820   6.850
 4338WAT     H113256   8.406   9.760   6.924
 4338WAT     H213257   8.354   9.861   6.807
 4339WAT      O13258   7.306   5.680   4.073
 4339WAT     H113259   7.260   5.689   4.161
 4339WAT     H213260   7.330   5.584   4.058
 4340WAT      O13261   7.272   5.287   9.490
 4340WAT     H113262   7.366   5.273   9.520
 4340WAT     H213263   7.265   5.270   9.392
 4341WAT      O13264   7.252   4.240   9.516
 4341WAT     H113265   7.183   4.311   9.501
 4341WAT     H213266   7.322   4.274   9.579
 4342WAT      O13267   1.780   1.026   3.538
 4342WAT     H113268   1.879   1.032   3.552
 4342WAT     H213269   1.761   0.991   3.446
 4343WAT      O13270   8.968   8.258   3.178
 4343WAT     H113271   9.022   8.339   3.200
 4343WAT     H213272   8.907   8.278   3.101
 4344WAT      O13273   6.313   3.686   8.659
 4344WAT     H113274   6.296   3.609   8.721
 4344WAT     H213275   6.373   3.656   8.585
 4345WAT      O13276   0.410   0.268   3.545
 4345WAT     H113277   0.370   0.192   3.495
 4345WAT     H213278   0.358   0.283   3.629
 4346WAT      O13279   7.288   8.939   2.675
 4346WAT     H113280   7.253   8.924   2.767
 4346WAT     H213281   7.309   8.850   2.633
 4347WAT      O13282   2.692   5.324   6.580
 4347WAT     H113283   2.618   5.301   6.644
 4347WAT     H213284   2.692   5.422   6.563
 4348WAT      O13285   1.974   2.085   8.729
 4348WAT     H113286   2.052   2.065   8.789
 4348WAT     H213287   1.890   2.084   8.783
 4349WAT      O13288   2.248   4.323   9.052
 4349WAT     H113289   2.248   4.383   9.131
 4349WAT     H213290   2.336   4.274   9.047
 4350WAT      O13291   4.653   2.461   1.509
 4350WAT     H113292   4.697   2.545   1.539
 4350WAT     H213293   4.667   2.389   1.576
 4351WAT      O13294   2.731   3.284   0.495
 4351WAT     H113295   2.751   3.191   0.526
 4351WAT     H213296   2.718   3.344   0.574
 4352WAT      O13297   4.926   5.106   8.181
 4352WAT     H113298   4.882   5.087   8.093
 4352WAT     H213299   4.912   5.202   8.205
 4353WAT      O13300   8.026   4.066   1.328
 4353WAT     H113301   8.117   4.089   1.363
 4353WAT     H213302   7.956   4.098   1.393
 4354WAT      O13303   4.492   6.695   7.785
 4354WAT     H113304   4.463   6.789   7.803
 4354WAT     H213305   4.574   6.675   7.838
 4355WAT      O13306   7.498   3.469   0.774
 4355WAT     H113307   7.489   3.530   0.853
 4355WAT     H213308   7.415   3.476   0.718
 4356WAT      O13309   1.213   2.572   4.753
 4356WAT     H113310   1.152   2.522   4.692
 4356WAT     H213311   1.210   2.669   4.732
 4357WAT      O13312   6.419   1.491   6.038
 4357WAT     H113313   6.493   1.429   6.062
 4357WAT     H213314   6.443   1.584   6.065
 4358WAT      O13315   4.916   8.233   3.885
 4358WAT     H113316   4.831   8.191   3.916
 4358WAT     H213317   4.994   8.177   3.914
 4359WAT      O13318   7.943   4.248   5.739
 4359WAT     H113319   7.888   4.291   5.811
 4359WAT     H213320   7.883   4.203   5.674
 4360WAT      O13321   9.144   0.864   3.547
 4360WAT     H113322   9.111   0.813   3.468
 4360WAT     H213323   9.070   0.872   3.614
 4361WAT      O13324   2.044   2.484   2.871
 4361WAT     H113325   1.988   2.562   2.844
 4361WAT     H213326   2.129   2.485   2.819
 4362WAT      O13327   7.013   6.761   2.944
 4362WAT     H113328   7.109   6.784   2.931
 4362WAT     H213329   6.985   6.787   3.037
 4363WAT      O13330   1.951   6.751   2.445
 4363WAT     H113331   1.920   6.842   2.416
 4363WAT     H213332   1.908   6.727   2.532
 4364WAT      O13333   5.626   8.349   2.545
 4364WAT     H113334   5.542   8.381   2.501
 4364WAT     H213335   5.615   8.254   2.572
 4365WAT      O13336   7.771   2.085   8.592
 4365WAT     H113337   7.713   2.160   8.559
 4365WAT     H213338   7.780   2.016   8.521
 4366WAT      O13339   3.840   2.681   5.064
 4366WAT     H113340   3.775   2.617   5.104
 4366WAT     H213341   3.789   2.755   5.018
 4367WAT      O13342   9.284   3.297   0.289
 4367WAT     H113343   9.280   3.397   0.290
 4367WAT     H213344   9.378   3.267   0.299
 4368WAT      O13345   7.447   2.974   8.487
 4368WAT     H113346   7.451   2.978   8.587
 4368WAT     H213347   7.540   2.972   8.450
 4369WAT      O13348   1.966   9.261   1.390
 4369WAT     H113349   2.017   9.342   1.359
 4369WAT     H213350   1.879   9.290   1.429
 4370WAT      O13351   5.953   0.166   9.611
 4370WAT     H113352   5.960   0.186   9.513
 4370WAT     H213353   6.010   0.229   9.663
 4371WAT      O13354   6.882   3.532   8.700
 4371WAT     H113355   6.942   3.499   8.772
 4371WAT     H213356   6.802   3.577   8.740
 4372WAT      O13357   6.697   3.278   9.441
 4372WAT     H113358   6.781   3.331   9.430
 4372WAT     H213359   6.698   3.232   9.530
 4373WAT      O13360   9.517   1.483   0.346
 4373WAT     H113361   9.486   1.482   0.251
 4373WAT     H213362   9.493   1.396   0.390
 4374WAT      O13363   4.216   6.755   1.059
 4374WAT     H113364   4.299   6.760   1.114
 4374WAT     H213365   4.157   6.832   1.082
 4375WAT      O13366   8.755   6.232   5.400
 4375WAT     H113367   8.789   6.211   5.308
 4375WAT     H213368   8.821   6.290   5.447
 4376WAT      O13369   8.258   5.395   7.529
 4376WAT     H113370   8.357   5.410   7.521
 4376WAT     H213371   8.233   5.311   7.483
 4377WAT      O13372   3.727   0.049   8.564
 4377WAT     H113373   3.638   0.019   8.529
 4377WAT     H213374   3.800  -0.005   8.522
 4378WAT      O13375   9.474   5.396   5.108
 4378WAT     H113376   9.412   5.446   5.047
 4378WAT     H213377   9.568   5.403   5.073
 4379WAT      O13378   9.264   3.514   2.736
 4379WAT     H113379   9.198   3.442   2.757
 4379WAT     H213380   9.220   3.603   2.747
 4380WAT      O13381   9.596   7.431   6.343
 4380WAT     H113382   9.571   7.467   6.253
 4380WAT     H213383   9.592   7.504   6.411
 4381WAT      O13384   3.434   6.354   1.606
 4381WAT     H113385   3.372   6.409   1.663
 4381WAT     H213386   3.521   6.342   1.653
 4382WAT      O13387   2.763   6.370   8.653
 4382WAT     H113388   2.799   6.436   8.587
 4382WAT     H213389   2.663   6.373   8.652
 4383WAT      O13390   3.528   2.192   4.257
 4383WAT     H113391   3.435   2.168   4.227
 4383WAT     H213392   3.531   2.289   4.280
 4384WAT      O13393   6.531   5.110   7.927
 4384WAT     H113394   6.503   5.067   7.841
 4384WAT     H213395   6.631   5.121   7.928
 4385WAT      O13396   8.270   2.107   7.447
 4385WAT     H113397   8.216   2.132   7.527
 4385WAT     H213398   8.237   2.157   7.367
 4386WAT      O13399   5.979   3.848   1.323
 4386WAT     H113400   5.952   3.754   1.301
 4386WAT     H213401   6.012   3.893   1.240
 4387WAT      O13402   4.776   8.964   5.771
 4387WAT     H113403   4.791   9.063   5.774
 4387WAT     H213404   4.701   8.940   5.832
 4388WAT      O13405   1.345   2.503   5.012
 4388WAT     H113406   1.393   2.415   5.018
 4388WAT     H213407   1.305   2.512   4.921
 4389WAT      O13408   8.595   4.374   3.044
 4389WAT     H113409   8.688   4.386   3.011
 4389WAT     H213410   8.540   4.328   2.974
 4390WAT      O13411   3.955   1.327   9.866
 4390WAT     H113412   4.008   1.411   9.856
 4390WAT     H213413   3.950   1.280   9.777
 4391WAT      O13414   7.352   7.759   0.980
 4391WAT     H113415   7.415   7.746   0.904
 4391WAT     H213416   7.258   7.752   0.947
 4392WAT      O13417   0.434   8.213   0.830
 4392WAT     H113418   0.461   8.309   0.836
 4392WAT     H213419   0.377   8.189   0.908
 4393WAT      O13420   3.049   0.526   0.916
 4393WAT     H113421   3.026   0.534   0.819
 4393WAT     H213422   3.142   0.488   0.925
 4394WAT      O13423   8.570   2.769   5.469
 4394WAT     H113424   8.538   2.790   5.561
 4394WAT     H213425   8.636   2.838   5.440
 4395WAT      O13426   5.101   8.170   9.457
 4395WAT     H113427   5.137   8.083   9.423
 4395WAT     H213428   5.166   8.243   9.433
 4396WAT      O13429   9.758   2.319   6.762
 4396WAT     H113430   9.716   2.400   6.803
 4396WAT     H213431   9.690   2.247   6.753
 4397WAT      O13432   2.386   7.662   7.501
 4397WAT     H113433   2.406   7.759   7.485
 4397WAT     H213434   2.321   7.654   7.577
 4398WAT      O13435   6.157   5.508   0.170
 4398WAT     H113436   6.247   5.511   0.215
 4398WAT     H213437   6.086   5.508   0.240
 4399WAT      O13438   3.458   2.701   1.724
 4399WAT     H113439   3.382   2.714   1.660
 4399WAT     H213440   3.532   2.764   1.702
 4400WAT      O13441   5.051   7.597   3.796
 4400WAT     H113442   5.022   7.631   3.707
 4400WAT     H213443   5.131   7.538   3.784
 4401WAT      O13444   9.176   1.684   1.350
 4401WAT     H113445   9.164   1.596   1.396
 4401WAT     H213446   9.262   1.726   1.381
 4402WAT      O13447   9.499   5.263   3.831
 4402WAT     H113448   9.433   5.190   3.846
 4402WAT     H213449   9.592   5.225   3.833
 4403WAT      O13450   5.035   4.470   2.201
 4403WAT     H113451   5.054   4.525   2.282
 4403WAT     H213452   4.936   4.465   2.187
 4404WAT      O13453   2.310   3.670   4.640
 4404WAT     H113454   2.322   3.675   4.739
 4404WAT     H213455   2.212   3.665   4.620
 4405WAT      O13456   4.435   8.120   3.675
 4405WAT     H113457   4.481   8.034   3.696
 4405WAT     H213458   4.452   8.185   3.749
 4406WAT      O13459   2.582   9.274   4.663
 4406WAT     H113460   2.491   9.261   4.622
 4406WAT     H213461   2.624   9.357   4.624
 4407WAT      O13462   6.440   5.103   8.690
 4407WAT     H113463   6.400   5.060   8.771
 4407WAT     H213464   6.509   5.170   8.718
 4408WAT      O13465   7.895   9.206   6.903
 4408WAT     H113466   7.861   9.117   6.873
 4408WAT     H213467   7.924   9.201   6.999
 4409WAT      O13468   9.062   5.562   4.046
 4409WAT     H113469   9.052   5.626   3.971
 4409WAT     H213470   9.091   5.610   4.128
 4410WAT      O13471   3.310   0.649   3.059
 4410WAT     H113472   3.374   0.645   2.983
 4410WAT     H213473   3.220   0.616   3.030
 4411WAT      O13474   9.590   6.975   9.839
 4411WAT     H113475   9.509   7.010   9.791
 4411WAT     H213476   9.672   7.006   9.792
 4412WAT      O13477   0.501   1.949   5.167
 4412WAT     H113478   0.459   2.033   5.132
 4412WAT     H213479   0.593   1.970   5.201
 4413WAT      O13480   5.465   5.174   3.874
 4413WAT     H113481   5.412   5.257   3.897
 4413WAT     H213482   5.406   5.094   3.882
 4414WAT      O13483   3.650   1.539   0.008
 4414WAT     H113484   3.704   1.587   0.076
 4414WAT     H213485   3.703   1.530  -0.076
 4415WAT      O13486   0.591   0.279   6.349
 4415WAT     H113487   0.534   0.220   6.407
 4415WAT     H213488   0.651   0.334   6.407
 4416WAT      O13489   1.567   4.166   4.006
 4416WAT     H113490   1.531   4.074   3.991
 4416WAT     H213491   1.517   4.210   4.080
 4417WAT      O13492   3.989   1.712   7.048
 4417WAT     H113493   4.017   1.796   7.094
 4417WAT     H213494   4.040   1.703   6.962
 4418WAT      O13495   2.845   3.831   1.633
 4418WAT     H113496   2.816   3.874   1.718
 4418WAT     H213497   2.901   3.751   1.653
 4419WAT      O13498   3.916   8.424   0.456
 4419WAT     H113499   3.872   8.505   0.417
 4419WAT     H213500   4.001   8.405   0.408
 4420WAT      O13501   7.301   7.706   8.055
 4420WAT     H113502   7.205   7.728   8.074
 4420WAT     H213503   7.347   7.786   8.018
 4421WAT      O13504   9.282   6.917   5.518
 4421WAT     H113505   9.281   6.996   5.579
 4421WAT     H213506   9.293   6.949   5.423
 4422WAT      O13507   0.501   5.780   2.736
 4422WAT     H113508   0.409   5.811   2.712
 4422WAT     H213509   0.540   5.729   2.659
 4423WAT      O13510   9.250   3.436   7.250
 4423WAT     H113511   9.223   3.482   7.334
 4423WAT     H213512   9.186   3.461   7.176
 4424WAT      O13513   6.214   0.605   2.649
 4424WAT     H113514   6.257   0.663   2.718
 4424WAT     H213515   6.280   0.537   2.616
 4425WAT      O13516   6.535   6.204   9.608
 4425WAT     H113517   6.544   6.303   9.598
 4425WAT     H213518   6.501   6.165   9.523
 4426WAT      O13519   3.807   6.588   3.678
 4426WAT     H113520   3.771   6.517   3.738
 4426WAT     H213521   3.849   6.660   3.733
 4427WAT      O13522   0.877   5.423   5.379
 4427WAT     H113523   0.808   5.433   5.308
 4427WAT     H213524   0.960   5.472   5.353
 4428WAT      O13525   3.609   3.346   5.956
 4428WAT     H113526   3.678   3.402   6.003
 4428WAT     H213527   3.615   3.363   5.857
 4429WAT      O13528   4.708   2.766   6.099
 4429WAT     H113529   4.735   2.817   6.017
 4429WAT     H213530   4.651   2.823   6.157
 4430WAT      O13531   8.009   9.351   5.458
 4430WAT     H113532   7.957   9.301   5.527
 4430WAT     H213533   7.947   9.410   5.406
 4431WAT      O13534   4.733   3.520   1.991
 4431WAT     H113535   4.673   3.560   1.922
 4431WAT     H213536   4.744   3.584   2.067
 4432WAT      O13537   2.895   0.293   4.737
 4432WAT     H113538   2.980   0.304   4.789
 4432WAT     H213539   2.827   0.359   4.770
 4433WAT      O13540   8.424   1.379   8.336
 4433WAT     H113541   8.490   1.365   8.263
 4433WAT     H213542   8.396   1.475   8.339
 4434WAT      O13543   0.512   7.376   1.734
 4434WAT     H113544   0.554   7.461   1.701
 4434WAT     H213545   0.415   7.376   1.711
 4435WAT      O13546   0.843   2.790   0.198
 4435WAT     H113547   0.879   2.737   0.276
 4435WAT     H213548   0.884   2.756   0.113
 4436WAT      O13549   4.928   9.801   9.135
 4436WAT     H113550   5.017   9.837   9.163
 4436WAT     H213551   4.855   9.852   9.181
 4437WAT      O13552   6.874   3.400   6.041
 4437WAT     H113553   6.968   3.366   6.050
 4437WAT     H213554   6.852   3.460   6.118
 4438WAT      O13555   8.076   6.121   8.918
 4438WAT     H113556   8.161   6.130   8.970
 4438WAT     H213557   8.009   6.188   8.951
 4439WAT      O13558   7.297   7.017   7.724
 4439WAT     H113559   7.371   7.040   7.661
 4439WAT     H213560   7.210   7.050   7.688
 4440WAT      O13561   9.776   0.464   7.395
 4440WAT     H113562   9.759   0.462   7.297
 4440WAT     H213563   9.790   0.558   7.425
 4441WAT      O13564   5.778   1.119   3.173
 4441WAT     H113565   5.721   1.167   3.240
 4441WAT     H213566   5.874   1.123   3.202
 4442WAT      O13567   2.461   0.104   5.086
 4442WAT     H113568   2.517   0.090   5.168
 4442WAT     H213569   2.515   0.084   5.005
 4443WAT      O13570   2.356   9.821   3.399
 4443WAT     H113571   2.286   9.892   3.400
 4443WAT     H213572   2.332   9.752   3.330
 4444WAT      O13573   7.197   8.586   0.092
 4444WAT     H113574   7.233   8.659   0.150
 4444WAT     H213575   7.184   8.621  -0.001
 4445WAT      O13576   3.188   4.881   4.349
 4445WAT     H113577   3.208   4.851   4.256
 4445WAT     H213578   3.217   4.977   4.360
 4446WAT      O13579   2.566   5.886   2.082
 4446WAT     H113580   2.520   5.975   2.071
 4446WAT     H213581   2.646   5.882   2.022
 4447WAT      O13582   3.115   2.414   6.762
 4447WAT     H113583   3.208   2.426   6.797
 4447WAT     H213584   3.076   2.504   6.738
 4448WAT      O13585   1.863   1.529   9.571
 4448WAT     H113586   1.900   1.537   9.663
 4448WAT     H213587   1.766   1.552   9.573
 4449WAT      O13588   1.065   5.617   0.754
 4449WAT     H113589   1.067   5.694   0.691
 4449WAT     H213590   1.047   5.651   0.847
 4450WAT      O13591   2.151   8.273   1.280
 4450WAT     H113592   2.118   8.367   1.288
 4450WAT     H213593   2.095   8.214   1.337
 4451WAT      O13594   1.272   7.961   4.343
 4451WAT     H113595   1.307   7.982   4.252
 4451WAT     H213596   1.238   7.867   4.346
 4452WAT      O13597   6.735   8.847   5.768
 4452WAT     H113598   6.649   8.841   5.820
 4452WAT     H213599   6.731   8.784   5.691
 4453WAT      O13600   3.620   8.703   9.666
 4453WAT     H113601   3.552   8.776   9.651
 4453WAT     H213602   3.605   8.630   9.599
 4454WAT      O13603   6.831   6.871   7.819
 4454WAT     H113604   6.790   6.874   7.910
 4454WAT     H213605   6.890   6.791   7.812
 4455WAT      O13606   4.494   4.536   7.759
 4455WAT     H113607   4.486   4.478   7.678
 4455WAT     H213608   4.585   4.577   7.763
 4456WAT      O13609   0.291   3.739   6.921
 4456WAT     H113610   0.253   3.818   6.968
 4456WAT     H213611   0.284   3.752   6.822
 4457WAT      O13612   1.612   1.678   9.534
 4457WAT     H113613   1.623   1.657   9.436
 4457WAT     H213614   1.665   1.760   9.556
 4458WAT      O13615   0.031   9.517   2.642
 4458WAT     H113616  -0.046   9.527   2.704
 4458WAT     H213617   0.048   9.605   2.596
 4459WAT      O13618   5.404   0.544   0.356
 4459WAT     H113619   5.368   0.513   0.268
 4459WAT     H213620   5.350   0.621   0.390
 4460WAT      O13621   3.586   2.515   3.141
 4460WAT     H113622   3.595   2.429   3.191
 4460WAT     H213623   3.491   2.544   3.142
 4461WAT      O13624   7.329   6.944   6.000
 4461WAT     H113625   7.385   7.027   6.007
 4461WAT     H213626   7.337   6.906   5.908
 4462WAT      O13627   1.080   7.176   1.539
 4462WAT     H113628   1.002   7.114   1.522
 4462WAT     H213629   1.158   7.147   1.485
 4463WAT      O13630   0.917   5.701   8.260
 4463WAT     H113631   0.982   5.777   8.255
 4463WAT     H213632   0.824   5.735   8.252
 4464WAT      O13633   0.755   2.297   7.309
 4464WAT     H113634   0.831   2.305   7.245
 4464WAT     H213635   0.727   2.202   7.317
 4465WAT      O13636   4.723   3.000   6.618
 4465WAT     H113637   4.645   2.936   6.622
 4465WAT     H213638   4.769   3.001   6.707
 4466WAT      O13639   0.592   7.996   3.208
 4466WAT     H113640   0.516   8.060   3.221
 4466WAT     H213641   0.560   7.916   3.158
 4467WAT      O13642   5.149   5.668   7.198
 4467WAT     H113643   5.145   5.591   7.134
 4467WAT     H213644   5.223   5.729   7.172
 4468WAT      O13645   1.485   5.816   6.041
 4468WAT     H113646   1.397   5.789   6.081
 4468WAT     H213647   1.472   5.898   5.986
 4469WAT      O13648   6.788   1.197   3.189
 4469WAT     H113649   6.745   1.107   3.193
 4469WAT     H213650   6.879   1.188   3.146
 4470WAT      O13651   4.336   0.563   5.069
 4470WAT     H113652   4.378   0.475   5.046
 4470WAT     H213653   4.269   0.587   4.998
 4471WAT      O13654   2.237   0.312   9.138
 4471WAT     H113655   2.212   0.217   9.153
 4471WAT     H213656   2.166   0.371   9.176
 4472WAT      O13657   8.090   0.949   7.336
 4472WAT     H113658   8.038   1.031   7.360
 4472WAT     H213659   8.164   0.936   7.403
 4473WAT      O13660   9.018   2.125   1.477
 4473WAT     H113661   9.088   2.151   1.410
 4473WAT     H213662   9.011   2.025   1.480
 4474WAT      O13663   7.389   3.386   8.784
 4474WAT     H113664   7.340   3.316   8.732
 4474WAT     H213665   7.392   3.471   8.732
 4475WAT      O13666   6.255   7.320   6.433
 4475WAT     H113667   6.347   7.293   6.461
 4475WAT     H213668   6.208   7.240   6.394
 4476WAT      O13669   0.065   0.447   6.674
 4476WAT     H113670   0.058   0.369   6.613
 4476WAT     H213671   0.147   0.438   6.731
 4477WAT      O13672   1.693   9.338   1.853
 4477WAT     H113673   1.719   9.431   1.827
 4477WAT     H213674   1.600   9.320   1.822
 4478WAT      O13675   0.110   2.788   1.189
 4478WAT     H113676   0.098   2.704   1.241
 4478WAT     H213677   0.142   2.766   1.097
 4479WAT      O13678   5.422   6.992   4.011
 4479WAT     H113679   5.323   6.986   4.029
 4479WAT     H213680   5.449   6.917   3.950
 4480WAT      O13681   1.251   0.124   4.765
 4480WAT     H113682   1.191   0.196   4.731
 4480WAT     H213683   1.235   0.040   4.714
 4481WAT      O13684   5.821   9.041   3.960
 4481WAT     H113685   5.831   8.968   4.028
 4481WAT     H213686   5.799   9.127   4.006
 4482WAT      O13687   1.596   6.779   2.259
 4482WAT     H113688   1.580   6.687   2.294
 4482WAT     H213689   1.679   6.779   2.203
 4483WAT      O13690   3.224   9.398   5.068
 4483WAT     H113691   3.136   9.403   5.021
 4483WAT     H213692   3.265   9.489   5.073
 4484WAT      O13693   7.300   3.204   5.772
 4484WAT     H113694   7.206   3.229   5.794
 4484WAT     H213695   7.361   3.242   5.842
 4485WAT      O13696   1.253   6.711   2.087
 4485WAT     H113697   1.154   6.719   2.079
 4485WAT     H213698   1.283   6.749   2.174
 4486WAT      O13699   0.089   0.630   4.764
 4486WAT     H113700   0.168   0.676   4.805
 4486WAT     H213701   0.102   0.530   4.770
 4487WAT      O13702   6.269   4.607   4.599
 4487WAT     H113703   6.283   4.706   4.609
 4487WAT     H213704   6.177   4.590   4.564
 4488WAT      O13705   8.431   0.840   9.217
 4488WAT     H113706   8.531   0.833   9.207
 4488WAT     H213707   8.409   0.910   9.285
 4489WAT      O13708   0.239   1.683   5.818
 4489WAT     H113709   0.270   1.699   5.912
 4489WAT     H213710   0.313   1.642   5.765
 4490WAT      O13711   5.675   8.835   8.542
 4490WAT     H113712   5.723   8.755   8.578
 4490WAT     H213713   5.677   8.908   8.610
 4491WAT      O13714   8.667   9.137   9.185
 4491WAT     H113715   8.626   9.072   9.121
 4491WAT     H213716   8.595   9.177   9.243
 4492WAT      O13717   5.220   7.313   9.355
 4492WAT     H113718   5.199   7.402   9.396
 4492WAT     H213719   5.141   7.252   9.367
 4493WAT      O13720   1.347   5.958   1.328
 4493WAT     H113721   1.287   6.034   1.305
 4493WAT     H213722   1.387   5.921   1.244
 4494WAT      O13723   2.152   0.752   5.118
 4494WAT     H113724   2.201   0.824   5.069
 4494WAT     H213725   2.209   0.715   5.191
 4495WAT      O13726   0.954   3.586   1.806
 4495WAT     H113727   0.888   3.616   1.737
 4495WAT     H213728   0.921   3.611   1.897
 4496WAT      O13729   8.320   3.175   3.943
 4496WAT     H113730   8.244   3.179   4.008
 4496WAT     H213731   8.285   3.188   3.851
 4497WAT      O13732   0.088   2.651   8.751
 4497WAT     H113733   0.158   2.701   8.699
 4497WAT     H213734   0.016   2.715   8.780
 4498WAT      O13735   6.374   2.107   4.946
 4498WAT     H113736   6.472   2.084   4.945
 4498WAT     H213737   6.344   2.121   5.040
 4499WAT      O13738   2.201   9.604   1.515
 4499WAT     H113739   2.169   9.557   1.433
 4499WAT     H213740   2.191   9.544   1.594
 4500WAT      O13741   9.093   6.136   2.465
 4500WAT     H113742   9.003   6.132   2.510
 4500WAT     H213743   9.081   6.159   2.369
 4501WAT      O13744   7.161   0.533   6.110
 4501WAT     H113745   7.226   0.502   6.179
 4501WAT     H213746   7.179   0.485   6.024
 4502WAT      O13747   7.067   1.277   8.272
 4502WAT     H113748   7.117   1.271   8.186
 4502WAT     H213749   7.124   1.324   8.340
 4503WAT      O13750   7.382   3.820   7.242
 4503WAT     H113751   7.397   3.725   7.213
 4503WAT     H213752   7.444   3.842   7.318
 4504WAT      O13753   1.724   1.841   6.208
 4504WAT     H113754   1.814   1.804   6.186
 4504WAT     H213755   1.726   1.940   6.197
 4505WAT      O13756   0.678   9.171   1.784
 4505WAT     H113757   0.714   9.247   1.837
 4505WAT     H213758   0.582   9.188   1.762
 4506WAT      O13759   7.681   7.558   5.461
 4506WAT     H113760   7.642   7.614   5.533
 4506WAT     H213761   7.643   7.465   5.467
 4507WAT      O13762   3.099   8.976   5.829
 4507WAT     H113763   3.020   8.917   5.810
 4507WAT     H213764   3.182   8.934   5.793
 4508WAT      O13765   4.302   7.388   4.809
 4508WAT     H113766   4.376   7.425   4.752
 4508WAT     H213767   4.215   7.429   4.782
 4509WAT      O13768   6.322   5.878   8.690
 4509WAT     H113769   6.223   5.866   8.681
 4509WAT     H213770   6.361   5.799   8.737
 4510WAT      O13771   9.042   0.728   3.982
 4510WAT     H113772   9.141   0.715   3.976
 4510WAT     H213773   9.020   0.824   3.965
 4511WAT      O13774   9.143   9.781   6.375
 4511WAT     H113775   9.073   9.764   6.444
 4511WAT     H213776   9.219   9.718   6.388
 4512WAT      O13777   1.506   8.000   4.492
 4512WAT     H113778   1.509   8.060   4.572
 4512WAT     H213779   1.416   8.004   4.451
 4513WAT      O13780   2.919   3.187   7.820
 4513WAT     H113781   2.952   3.281   7.820
 4513WAT     H213782   2.819   3.187   7.818
 4514WAT      O13783   8.915   1.399   1.906
 4514WAT     H113784   8.999   1.360   1.869
 4514WAT     H213785   8.843   1.399   1.836
 4515WAT      O13786   2.064   7.755   1.726
 4515WAT     H113787   2.094   7.713   1.640
 4515WAT     H213788   1.964   7.754   1.731
 4516WAT      O13789   9.195   8.538   0.762
 4516WAT     H113790   9.266   8.592   0.717
 4516WAT     H213791   9.217   8.529   0.859
 4517WAT      O13792   8.701   4.378   1.249
 4517WAT     H113793   8.706   4.286   1.212
 4517WAT     H213794   8.606   4.410   1.249
 4518WAT      O13795   0.900   5.489   8.913
 4518WAT     H113796   0.953   5.515   8.832
 4518WAT     H213797   0.963   5.475   8.990
 4519WAT      O13798   1.182   7.979   5.627
 4519WAT     H113799   1.164   7.952   5.532
 4519WAT     H213800   1.239   8.061   5.629
 4520WAT      O13801   4.235   3.006   9.592
 4520WAT     H113802   4.233   3.105   9.606
 4520WAT     H213803   4.266   2.961   9.675
 4521WAT      O13804   1.340   4.644   8.637
 4521WAT     H113805   1.306   4.560   8.679
 4521WAT     H213806   1.346   4.715   8.707
 4522WAT      O13807   8.932   2.200   6.085
 4522WAT     H113808   8.968   2.107   6.079
 4522WAT     H213809   8.993   2.263   6.036
 4523WAT      O13810   5.862   7.955   4.200
 4523WAT     H113811   5.900   7.992   4.115
 4523WAT     H213812   5.765   7.978   4.207
 4524WAT      O13813   7.690   0.408   1.547
 4524WAT     H113814   7.784   0.420   1.578
 4524WAT     H213815   7.688   0.397   1.448
 4525WAT      O13816   6.124   0.339   2.733
 4525WAT     H113817   6.042   0.325   2.678
 4525WAT     H213818   6.160   0.431   2.716
 4526WAT      O13819   3.473   5.385   7.737
 4526WAT     H113820   3.439   5.320   7.805
 4526WAT     H213821   3.572   5.390   7.742
 4527WAT      O13822   1.981   2.026   9.357
 4527WAT     H113823   1.889   1.990   9.340
 4527WAT     H213824   2.018   1.985   9.440
 4528WAT      O13825   1.494   0.891   5.953
 4528WAT     H113826   1.406   0.924   5.987
 4528WAT     H213827   1.533   0.959   5.891
 4529WAT      O13828   4.571   5.553   3.669
 4529WAT     H113829   4.645   5.533   3.733
 4529WAT     H213830   4.557   5.652   3.663
 4530WAT      O13831   8.778   1.396   0.333
 4530WAT     H113832   8.764   1.391   0.234
 4530WAT     H213833   8.689   1.396   0.379
 4531WAT      O13834   9.600   0.705   8.295
 4531WAT     H113835   9.576   0.608   8.296
 4531WAT     H213836   9.647   0.728   8.380
 4532WAT      O13837   7.048   7.609   4.143
 4532WAT     H113838   7.011   7.632   4.233
 4532WAT     H213839   7.115   7.678   4.116
 4533WAT      O13840   3.425   6.723   1.258
 4533WAT     H113841   3.375   6.711   1.343
 4533WAT     H213842   3.427   6.637   1.207
 4534WAT      O13843   9.269   8.313   7.658
 4534WAT     H113844   9.228   8.299   7.568
 4534WAT     H213845   9.214   8.379   7.710
 4535WAT      O13846   4.224   7.391   6.747
 4535WAT     H113847   4.257   7.413   6.656
 4535WAT     H213848   4.300   7.367   6.806
 4536WAT      O13849   1.753   5.386   1.971
 4536WAT     H113850   1.745   5.445   2.052
 4536WAT     H213851   1.842   5.400   1.928
 4537WAT      O13852   9.610   2.717   0.025
 4537WAT     H113853   9.523   2.695   0.067
 4537WAT     H213854   9.619   2.668  -0.062
 4538WAT      O13855   3.319   6.662   9.234
 4538WAT     H113856   3.382   6.718   9.287
 4538WAT     H213857   3.336   6.565   9.252
 4539WAT      O13858   8.807   6.224   5.131
 4539WAT     H113859   8.898   6.188   5.149
 4539WAT     H213860   8.808   6.277   5.046
 4540WAT      O13861   4.572   0.419   6.264
 4540WAT     H113862   4.645   0.379   6.208
 4540WAT     H213863   4.603   0.506   6.302
 4541WAT      O13864   2.372   8.836   8.894
 4541WAT     H113865   2.352   8.757   8.953
 4541WAT     H213866   2.374   8.919   8.950
 4542WAT      O13867   7.208   0.822   2.095
 4542WAT     H113868   7.190   0.920   2.090
 4542WAT     H213869   7.170   0.785   2.180
 4543WAT      O13870   0.418   6.834   8.675
 4543WAT     H113871   0.357   6.755   8.669
 4543WAT     H213872   0.376   6.913   8.630
 4544WAT      O13873   4.321   2.937   5.878
 4544WAT     H113874   4.272   2.976   5.800
 4544WAT     H213875   4.380   3.007   5.918
 4545WAT      O13876   4.810   1.023   5.279
 4545WAT     H113877   4.725   0.986   5.241
 4545WAT     H213878   4.871   1.048   5.203
 4546WAT      O13879   4.285   1.513   4.450
 4546WAT     H113880   4.240   1.427   4.471
 4546WAT     H213881   4.279   1.574   4.529
 4547WAT      O13882   9.540   9.516   4.319
 4547WAT     H113883   9.523   9.485   4.413
 4547WAT     H213884   9.464   9.573   4.288
 4548WAT      O13885   7.438   4.218   2.185
 4548WAT     H113886   7.502   4.220   2.263
 4548WAT     H213887   7.487   4.242   2.102
 4549WAT      O13888   2.524   7.886   7.075
 4549WAT     H113889   2.605   7.909   7.021
 4549WAT     H213890   2.550   7.871   7.170
 4550WAT      O13891   7.675   1.218   9.623
 4550WAT     H113892   7.730   1.208   9.706
 4550WAT     H213893   7.627   1.305   9.626
 4551WAT      O13894   0.904   5.801   2.733
 4551WAT     H113895   0.988   5.764   2.694
 4551WAT     H213896   0.893   5.769   2.827
 4552WAT      O13897   1.311   8.914   0.504
 4552WAT     H113898   1.274   9.000   0.470
 4552WAT     H213899   1.404   8.929   0.538
 4553WAT      O13900   4.527   1.845   4.656
 4553WAT     H113901   4.577   1.766   4.691
 4553WAT     H213902   4.498   1.903   4.732
 4554WAT      O13903   3.434   3.167   1.523
 4554WAT     H113904   3.524   3.123   1.518
 4554WAT     H213905   3.416   3.196   1.618
 4555WAT      O13906   7.858   6.602   9.857
 4555WAT     H113907   7.945   6.590   9.905
 4555WAT     H213908   7.865   6.679   9.794
 4556WAT      O13909   0.030   3.460   5.164
 4556WAT     H113910   0.021   3.365   5.195
 4556WAT     H213911   0.010   3.465   5.066
 4557WAT      O13912   0.699   4.802   7.983
 4557WAT     H113913   0.605   4.781   8.010
 4557WAT     H213914   0.701   4.891   7.936
 4558WAT      O13915   5.407   0.201   9.585
 4558WAT     H113916   5.423   0.300   9.581
 4558WAT     H213917   5.331   0.177   9.524
 4559WAT      O13918   0.663   6.638   5.283
 4559WAT     H113919   0.668   6.660   5.186
 4559WAT     H213920   0.741   6.581   5.309
 4560WAT      O13921   7.983   0.031   8.642
 4560WAT     H113922   7.923   0.110   8.658
 4560WAT     H213923   8.002  -0.014   8.729
 4561WAT      O13924   3.490   5.779   8.777
 4561WAT     H113925   3.512   5.714   8.705
 4561WAT     H213926   3.539   5.865   8.760
 4562WAT      O13927   0.323   0.667   1.355
 4562WAT     H113928   0.224   0.673   1.343
 4562WAT     H213929   0.364   0.622   1.276
 4563WAT      O13930   3.958   8.716   0.789
 4563WAT     H113931   3.924   8.795   0.839
 4563WAT     H213932   3.889   8.643   0.791
 4564WAT      O13933   2.572   2.490   3.604
 4564WAT     H113934   2.625   2.413   3.639
 4564WAT     H213935   2.519   2.459   3.524
 4565WAT      O13936   1.090   4.478   1.101
 4565WAT     H113937   1.083   4.423   1.184
 4565WAT     H213938   1.007   4.533   1.090
 4566WAT      O13939   0.549   2.174   4.091
 4566WAT     H113940   0.596   2.256   4.058
 4566WAT     H213941   0.616   2.105   4.118
 4567WAT      O13942   0.937   7.718   5.193
 4567WAT     H113943   0.900   7.769   5.270
 4567WAT     H213944   0.942   7.621   5.216
 4568WAT      O13945   4.359   3.550   3.203
 4568WAT     H113946   4.320   3.476   3.259
 4568WAT     H213947   4.329   3.539   3.109
 4569WAT      O13948   0.815   7.594   3.906
 4569WAT     H113949   0.895   7.652   3.892
 4569WAT     H213950   0.833   7.529   3.980
 4570WAT      O13951   4.628   1.419   6.843
 4570WAT     H113952   4.657   1.345   6.904
 4570WAT     H213953   4.603   1.382   6.754
 4571WAT      O13954   8.836   8.349   0.703
 4571WAT     H113955   8.862   8.341   0.799
 4571WAT     H213956   8.761   8.415   0.694
 4572WAT      O13957   9.474   7.214   1.009
 4572WAT     H113958   9.386   7.177   1.040
 4572WAT     H213959   9.463   7.311   0.988
 4573WAT      O13960   1.269   6.760   3.704
 4573WAT     H113961   1.239   6.822   3.631
 4573WAT     H213962   1.367   6.774   3.721
 4574WAT      O13963   3.662   6.482   6.016
 4574WAT     H113964   3.630   6.432   5.935
 4574WAT     H213965   3.707   6.567   5.987
 4575WAT      O13966   5.567   7.224   1.326
 4575WAT     H113967   5.634   7.248   1.396
 4575WAT     H213968   5.583   7.279   1.244
 4576WAT      O13969   9.561   5.463   5.826
 4576WAT     H113970   9.466   5.434   5.820
 4576WAT     H213971   9.578   5.539   5.762
 4577WAT      O13972   4.725   3.522   1.254
 4577WAT     H113973   4.653   3.465   1.215
 4577WAT     H213974   4.688   3.612   1.278
 4578WAT      O13975   2.478   8.543   4.201
 4578WAT     H113976   2.464   8.445   4.209
 4578WAT     H213977   2.476   8.570   4.105
 4579WAT      O13978   3.016   2.137   1.996
 4579WAT     H113979   3.085   2.163   2.064
 4579WAT     H213980   3.000   2.039   2.000
 4580WAT      O13981   6.123   7.071   6.310
 4580WAT     H113982   6.052   7.082   6.379
 4580WAT     H213983   6.094   7.113   6.224
 4581WAT      O13984   9.336   7.685   9.134
 4581WAT     H113985   9.406   7.643   9.192
 4581WAT     H213986   9.291   7.759   9.183
 4582WAT      O13987   9.824   6.165   3.147
 4582WAT     H113988   9.856   6.250   3.105
 4582WAT     H213989   9.871   6.087   3.105
 4583WAT      O13990   6.231   7.297   0.878
 4583WAT     H113991   6.158   7.340   0.826
 4583WAT     H213992   6.202   7.206   0.908
 4584WAT      O13993   2.435   5.437   1.544
 4584WAT     H113994   2.445   5.395   1.454
 4584WAT     H213995   2.489   5.386   1.611
 4585WAT      O13996   3.868   8.053   5.844
 4585WAT     H113997   3.833   7.961   5.861
 4585WAT     H213998   3.850   8.079   5.749
 4586WAT      O13999   1.488   4.060   2.477
 4586WAT     H114000   1.572   4.104   2.506
 4586WAT     H214001   1.412   4.092   2.533
 4587WAT      O14002   3.345   2.455   8.393
 4587WAT     H114003   3.261   2.464   8.340
 4587WAT     H214004   3.325   2.419   8.484
 4588WAT      O14005   1.544   0.315   3.284
 4588WAT     H114006   1.485   0.285   3.209
 4588WAT     H214007   1.504   0.396   3.327
 4589WAT      O14008   9.457   9.020   8.882
 4589WAT     H114009   9.533   8.973   8.928
 4589WAT     H214010   9.394   8.953   8.844
 4590WAT      O14011   3.427   6.950   1.652
 4590WAT     H114012   3.456   7.012   1.725
 4590WAT     H214013   3.352   6.892   1.685
 4591WAT      O14014   9.310   5.430   5.420
 4591WAT     H114015   9.323   5.331   5.426
 4591WAT     H214016   9.398   5.476   5.429
 4592WAT      O14017   3.065   1.144   9.641
 4592WAT     H114018   3.013   1.117   9.721
 4592WAT     H214019   3.027   1.229   9.604
 4593WAT      O14020   9.478   2.171   8.757
 4593WAT     H114021   9.434   2.234   8.693
 4593WAT     H214022   9.490   2.216   8.845
 4594WAT      O14023   3.932   5.453   7.910
 4594WAT     H114024   3.915   5.469   8.007
 4594WAT     H214025   3.932   5.541   7.861
 4595WAT      O14026   9.387   5.171   6.500
 4595WAT     H114027   9.367   5.230   6.578
 4595WAT     H214028   9.403   5.227   6.419
 4596WAT      O14029   6.148   6.406   1.268
 4596WAT     H114030   6.220   6.338   1.285
 4596WAT     H214031   6.148   6.473   1.342
 4597WAT      O14032   7.691   1.693   7.724
 4597WAT     H114033   7.738   1.728   7.643
 4597WAT     H214034   7.598   1.730   7.727
 4598WAT      O14035   6.207   0.252   7.370
 4598WAT     H114036   6.153   0.237   7.452
 4598WAT     H214037   6.157   0.311   7.307
 4599WAT      O14038   5.656   7.114   7.803
 4599WAT     H114039   5.573   7.145   7.757
 4599WAT     H214040   5.667   7.164   7.889
 4600WAT      O14041   4.999   3.558   1.216
 4600WAT     H114042   5.009   3.596   1.124
 4600WAT     H214043   4.904   3.528   1.229
 4601WAT      O14044   5.185   2.955   3.785
 4601WAT     H114045   5.107   2.904   3.748
 4601WAT     H214046   5.151   3.029   3.844
 4602WAT      O14047   0.510   6.300   3.807
 4602WAT     H114048   0.600   6.263   3.785
 4602WAT     H214049   0.519   6.384   3.860
 4603WAT      O14050   6.489   0.196   7.832
 4603WAT     H114051   6.511   0.155   7.744
 4603WAT     H214052   6.403   0.159   7.866
 4604WAT      O14053   1.603   3.508   5.647
 4604WAT     H114054   1.632   3.420   5.609
 4604WAT     H214055   1.510   3.500   5.682
 4605WAT      O14056   1.981   9.599   8.245
 4605WAT     H114057   1.977   9.520   8.307
 4605WAT     H214058   1.951   9.681   8.294
 4606WAT      O14059   4.433   7.039   1.772
 4606WAT     H114060   4.394   7.114   1.825
 4606WAT     H214061   4.511   7.073   1.719
 4607WAT      O14062   8.076   8.517   2.093
 4607WAT     H114063   8.009   8.562   2.151
 4607WAT     H214064   8.126   8.449   2.146
 4608WAT      O14065   1.881   8.242   2.979
 4608WAT     H114066   1.919   8.247   3.071
 4608WAT     H214067   1.923   8.313   2.922
 4609WAT      O14068   2.359   3.309   3.109
 4609WAT     H114069   2.414   3.264   3.179
 4609WAT     H214070   2.358   3.252   3.026
 4610WAT      O14071   8.989   1.810   3.112
 4610WAT     H114072   8.901   1.791   3.068
 4610WAT     H214073   9.035   1.885   3.064
 4611WAT      O14074   2.803   3.041   2.556
 4611WAT     H114075   2.703   3.042   2.552
 4611WAT     H214076   2.834   3.079   2.643
 4612WAT      O14077   8.537   5.561   8.696
 4612WAT     H114078   8.543   5.462   8.683
 4612WAT     H214079   8.448   5.585   8.734
 4613WAT      O14080   9.200   3.711   6.916
 4613WAT     H114081   9.130   3.780   6.899
 4613WAT     H214082   9.157   3.630   6.956
 4614WAT      O14083   1.096   9.712   7.348
 4614WAT     H114084   1.144   9.625   7.336
 4614WAT     H214085   1.113   9.747   7.440
 4615WAT      O14086   1.804   7.292   2.925
 4615WAT     H114087   1.863   7.242   2.862
 4615WAT     H214088   1.838   7.385   2.936
 4616WAT      O14089   2.447   8.794   3.214
 4616WAT     H114090   2.365   8.747   3.180
 4616WAT     H214091   2.421   8.880   3.258
 4617WAT      O14092   6.844   9.248   3.841
 4617WAT     H114093   6.807   9.181   3.777
 4617WAT     H214094   6.818   9.222   3.934
 4618WAT      O14095   6.435   5.866   3.236
 4618WAT     H114096   6.420   5.954   3.190
 4618WAT     H214097   6.484   5.804   3.174
 4619WAT      O14098   8.943   2.448   2.305
 4619WAT     H114099   9.040   2.460   2.284
 4619WAT     H214100   8.922   2.494   2.391
 4620WAT      O14101   6.029   6.670   3.566
 4620WAT     H114102   5.935   6.658   3.534
 4620WAT     H214103   6.089   6.687   3.487
 4621WAT      O14104   6.199   6.892   7.472
 4621WAT     H114105   6.131   6.891   7.399
 4621WAT     H214106   6.291   6.901   7.433
 4622WAT      O14107   3.387   7.848   6.679
 4622WAT     H114108   3.468   7.824   6.731
 4622WAT     H214109   3.313   7.784   6.700
 4623WAT      O14110   2.240   7.129   6.286
 4623WAT     H114111   2.309   7.058   6.296
 4623WAT     H214112   2.175   7.102   6.214
 4624WAT      O14113   0.521   8.124   9.009
 4624WAT     H114114   0.615   8.156   9.022
 4624WAT     H214115   0.492   8.073   9.089
 4625WAT      O14116   8.858   5.923   3.962
 4625WAT     H114117   8.904   5.991   3.904
 4625WAT     H214118   8.761   5.946   3.970
 4626WAT      O14119   4.875   3.717   2.137
 4626WAT     H114120   4.963   3.748   2.172
 4626WAT     H214121   4.801   3.760   2.189
 4627WAT      O14122   4.461   7.431   3.030
 4627WAT     H114123   4.375   7.432   2.978
 4627WAT     H214124   4.529   7.376   2.982
 4628WAT      O14125   9.080   1.332   7.252
 4628WAT     H114126   9.164   1.371   7.214
 4628WAT     H214127   9.049   1.390   7.328
 4629WAT      O14128   2.103   9.636   5.693
 4629WAT     H114129   2.033   9.696   5.732
 4629WAT     H214130   2.129   9.567   5.761
 4630WAT      O14131   3.746   0.421   6.472
 4630WAT     H114132   3.653   0.415   6.508
 4630WAT     H214133   3.806   0.357   6.520
 4631WAT      O14134   8.521   7.316   7.628
 4631WAT     H114135   8.533   7.412   7.603
 4631WAT     H214136   8.568   7.297   7.714
 4632WAT      O14137   5.009   3.611   6.934
 4632WAT     H114138   4.929   3.595   6.876
 4632WAT     H214139   5.087   3.560   6.898
 4633WAT      O14140   6.439   4.019   2.168
 4633WAT     H114141   6.441   3.924   2.138
 4633WAT     H214142   6.344   4.049   2.176
 4634WAT      O14143   8.067   5.785   2.944
 4634WAT     H114144   7.993   5.801   2.878
 4634WAT     H214145   8.113   5.699   2.921
 4635WAT      O14146   2.183   8.964   5.765
 4635WAT     H114147   2.236   8.982   5.682
 4635WAT     H214148   2.190   8.867   5.788
 4636WAT      O14149   0.971   3.193   9.360
 4636WAT     H114150   1.037   3.173   9.287
 4636WAT     H214151   1.015   3.183   9.449
 4637WAT      O14152   1.678   6.944   4.024
 4637WAT     H114153   1.588   6.955   4.065
 4637WAT     H214154   1.724   6.865   4.065
 4638WAT      O14155   8.667   8.975   1.983
 4638WAT     H114156   8.637   9.049   1.923
 4638WAT     H214157   8.624   8.889   1.955
 4639WAT      O14158   0.512   0.416   4.104
 4639WAT     H114159   0.496   0.405   4.006
 4639WAT     H214160   0.427   0.402   4.154
 4640WAT      O14161   9.658   4.487   4.042
 4640WAT     H114162   9.713   4.474   3.960
 4640WAT     H214163   9.583   4.420   4.043
 4641WAT      O14164   2.618   0.251   6.834
 4641WAT     H114165   2.673   0.177   6.871
 4641WAT     H214166   2.608   0.238   6.735
 4642WAT      O14167   0.402   5.557   6.617
 4642WAT     H114168   0.465   5.625   6.652
 4642WAT     H214169   0.448   5.468   6.613
 4643WAT      O14170   6.330   6.322   1.908
 4643WAT     H114171   6.412   6.266   1.897
 4643WAT     H214172   6.259   6.290   1.846
 4644WAT      O14173   7.930   0.900   4.355
 4644WAT     H114174   7.986   0.965   4.407
 4644WAT     H214175   7.854   0.870   4.412
 4645WAT      O14176   6.591   5.294   8.814
 4645WAT     H114177   6.516   5.360   8.811
 4645WAT     H214178   6.666   5.331   8.868
 4646WAT      O14179   8.932   4.597   5.079
 4646WAT     H114180   9.014   4.581   5.133
 4646WAT     H214181   8.863   4.642   5.135
 4647WAT      O14182   2.098   5.195   5.740
 4647WAT     H114183   2.187   5.233   5.716
 4647WAT     H214184   2.033   5.212   5.665
 4648WAT      O14185   2.154   6.528   0.668
 4648WAT     H114186   2.193   6.585   0.741
 4648WAT     H214187   2.158   6.432   0.696
 4649WAT      O14188   4.948   4.332   0.136
 4649WAT     H114189   5.039   4.293   0.147
 4649WAT     H214190   4.922   4.329   0.039
 4650WAT      O14191   7.079   9.617   3.226
 4650WAT     H114192   7.066   9.717   3.228
 4650WAT     H214193   7.022   9.575   3.297
 4651WAT      O14194   8.114   8.932   1.144
 4651WAT     H114195   8.022   8.970   1.148
 4651WAT     H214196   8.180   9.003   1.120
 4652WAT      O14197   4.821   4.501   2.922
 4652WAT     H114198   4.721   4.507   2.930
 4652WAT     H214199   4.845   4.443   2.845
 4653WAT      O14200   4.768   0.022   5.746
 4653WAT     H114201   4.803  -0.039   5.817
 4653WAT     H214202   4.681  -0.013   5.711
 4654WAT      O14203   0.752   4.308   9.277
 4654WAT     H114204   0.797   4.382   9.227
 4654WAT     H214205   0.698   4.347   9.352
 4655WAT      O14206   9.350   4.999   3.634
 4655WAT     H114207   9.285   4.936   3.590
 4655WAT     H214208   9.305   5.088   3.648
 4656WAT      O14209   6.253   2.870   1.058
 4656WAT     H114210   6.275   2.854   0.962
 4656WAT     H214211   6.156   2.850   1.074
 4657WAT      O14212   3.172   3.045   3.538
 4657WAT     H114213   3.166   3.083   3.630
 4657WAT     H214214   3.132   2.953   3.536
 4658WAT      O14215   4.113   9.151   9.647
 4658WAT     H114216   4.136   9.240   9.686
 4658WAT     H214217   4.065   9.163   9.560
 4659WAT      O14218   3.504   4.230   7.285
 4659WAT     H114219   3.573   4.299   7.265
 4659WAT     H214220   3.414   4.262   7.256
 4660WAT      O14221   0.117   2.627   4.089
 4660WAT     H114222   0.052   2.559   4.057
 4660WAT     H214223   0.112   2.634   4.189
 4661WAT      O14224   0.320   5.598   2.900
 4661WAT     H114225   0.403   5.545   2.892
 4661WAT     H214226   0.320   5.671   2.832
 4662WAT      O14227   7.190   9.736   7.710
 4662WAT     H114228   7.108   9.789   7.733
 4662WAT     H214229   7.179   9.643   7.743
 4663WAT      O14230   5.008   1.222   1.681
 4663WAT     H114231   4.913   1.193   1.677
 4663WAT     H214232   5.026   1.290   1.610
 4664WAT      O14233   1.210   5.450   8.249
 4664WAT     H114234   1.131   5.474   8.194
 4664WAT     H214235   1.220   5.350   8.254
 4665WAT      O14236   4.756   8.432   7.427
 4665WAT     H114237   4.698   8.462   7.503
 4665WAT     H214238   4.851   8.457   7.445
 4666WAT      O14239   7.294   4.376   6.684
 4666WAT     H114240   7.219   4.441   6.688
 4666WAT     H214241   7.304   4.331   6.774
 4667WAT      O14242   9.402   5.648   4.996
 4667WAT     H114243   9.342   5.665   4.918
 4667WAT     H214244   9.348   5.650   5.080
 4668WAT      O14245   5.628   7.561   8.363
 4668WAT     H114246   5.567   7.637   8.384
 4668WAT     H214247   5.687   7.586   8.287
 4669WAT      O14248   7.839   0.800   6.365
 4669WAT     H114249   7.754   0.780   6.414
 4669WAT     H214250   7.910   0.828   6.430
 4670WAT      O14251   8.758   8.843   3.599
 4670WAT     H114252   8.829   8.877   3.538
 4670WAT     H214253   8.773   8.880   3.691
 4671WAT      O14254   5.569   9.179   4.515
 4671WAT     H114255   5.660   9.146   4.490
 4671WAT     H214256   5.526   9.222   4.436
 4672WAT      O14257   4.974   3.574   9.399
 4672WAT     H114258   4.997   3.672   9.398
 4672WAT     H214259   5.028   3.527   9.329
 4673WAT      O14260   6.728   3.435   3.658
 4673WAT     H114261   6.699   3.507   3.722
 4673WAT     H214262   6.650   3.376   3.638
 4674WAT      O14263   5.363   2.069   0.497
 4674WAT     H114264   5.402   2.160   0.513
 4674WAT     H214265   5.435   2.005   0.471
 4675WAT      O14266   7.737   8.673   3.877
 4675WAT     H114267   7.779   8.762   3.855
 4675WAT     H214268   7.738   8.615   3.796
 4676WAT      O14269   4.333   7.546   2.476
 4676WAT     H114270   4.289   7.509   2.394
 4676WAT     H214271   4.354   7.471   2.539
 4677WAT      O14272   7.241   4.684   7.551
 4677WAT     H114273   7.226   4.585   7.548
 4677WAT     H214274   7.333   4.705   7.519
 4678WAT      O14275   0.337   9.206   5.802
 4678WAT     H114276   0.377   9.119   5.831
 4678WAT     H214277   0.411   9.272   5.787
 4679WAT      O14278   5.450   6.064   5.558
 4679WAT     H114279   5.525   6.095   5.616
 4679WAT     H214280   5.467   5.970   5.528
 4680WAT      O14281   2.752   6.220   5.913
 4680WAT     H114282   2.689   6.189   5.984
 4680WAT     H214283   2.703   6.275   5.845
 4681WAT      O14284   4.541   4.027   4.388
 4681WAT     H114285   4.483   4.050   4.466
 4681WAT     H214286   4.614   4.095   4.380
 4682WAT      O14287   6.107   8.996   5.434
 4682WAT     H114288   6.098   8.907   5.478
 4682WAT     H214289   6.177   8.991   5.362
 4683WAT      O14290   3.392   6.942   8.027
 4683WAT     H114291   3.459   6.931   7.954
 4683WAT     H214292   3.353   6.853   8.051
 4684WAT      O14293   2.797   1.518   7.769
 4684WAT     H114294   2.818   1.459   7.691
 4684WAT     H214295   2.881   1.535   7.822
 4685WAT      O14296   8.949   0.634   5.652
 4685WAT     H114297   8.901   0.715   5.687
 4685WAT     H214298   8.997   0.589   5.727
 4686WAT      O14299   8.191   2.760   6.208
 4686WAT     H114300   8.266   2.807   6.160
 4686WAT     H214301   8.199   2.662   6.194
 4687WAT      O14302   1.431   3.173   0.830
 4687WAT     H114303   1.451   3.228   0.749
 4687WAT     H214304   1.431   3.232   0.911
 4688WAT      O14305   9.371   3.936   7.957
 4688WAT     H114306   9.462   3.896   7.942
 4688WAT     H214307   9.340   3.914   8.049
 4689WAT      O14308   2.604   4.478   2.698
 4689WAT     H114309   2.520   4.489   2.645
 4689WAT     H214310   2.682   4.507   2.642
 4690WAT      O14311   9.375   8.289   7.014
 4690WAT     H114312   9.400   8.283   6.918
 4690WAT     H214313   9.357   8.384   7.038
 4691WAT      O14314   6.749   5.993   7.574
 4691WAT     H114315   6.686   6.068   7.596
 4691WAT     H214316   6.700   5.922   7.524
 4692WAT      O14317   8.051   6.619   2.499
 4692WAT     H114318   8.063   6.590   2.594
 4692WAT     H214319   8.135   6.602   2.448
 4693WAT      O14320   2.471   3.574   8.527
 4693WAT     H114321   2.374   3.557   8.542
 4693WAT     H214322   2.487   3.597   8.431
 4694WAT      O14323   5.543   7.892   4.518
 4694WAT     H114324   5.514   7.985   4.494
 4694WAT     H214325   5.467   7.844   4.563
 4695WAT      O14326   5.652   0.297   1.025
 4695WAT     H114327   5.729   0.337   0.974
 4695WAT     H214328   5.654   0.198   1.016
 4696WAT      O14329   8.154   6.643   3.233
 4696WAT     H114330   8.216   6.564   3.237
 4696WAT     H214331   8.100   6.639   3.149
 4697WAT      O14332   7.319   4.604   0.087
 4697WAT     H114333   7.225   4.570   0.089
 4697WAT     H214334   7.350   4.610  -0.008
 4698WAT      O14335   0.008   7.381   4.360
 4698WAT     H114336  -0.057   7.452   4.388
 4698WAT     H214337   0.046   7.338   4.442
 4699WAT      O14338   1.153   2.662   7.595
 4699WAT     H114339   1.128   2.573   7.558
 4699WAT     H214340   1.096   2.733   7.554
 4700WAT      O14341   4.495   1.245   1.758
 4700WAT     H114342   4.515   1.313   1.687
 4700WAT     H214343   4.565   1.249   1.829
 4701WAT      O14344   4.006   1.730   5.040
 4701WAT     H114345   3.944   1.748   4.963
 4701WAT     H214346   4.070   1.806   5.049
 4702WAT      O14347   0.533   8.653   0.389
 4702WAT     H114348   0.541   8.736   0.334
 4702WAT     H214349   0.464   8.666   0.461
 4703WAT      O14350   5.904   6.738   6.533
 4703WAT     H114351   5.873   6.721   6.626
 4703WAT     H214352   5.854   6.815   6.494
 4704WAT      O14353   0.797   7.478   9.389
 4704WAT     H114354   0.870   7.541   9.363
 4704WAT     H214355   0.825   7.384   9.368
 4705WAT      O14356   9.242   3.260   6.792
 4705WAT     H114357   9.283   3.182   6.840
 4705WAT     H214358   9.159   3.289   6.840
 4706WAT      O14359   5.369   3.348   3.125
 4706WAT     H114360   5.422   3.383   3.202
 4706WAT     H214361   5.287   3.302   3.160
 4707WAT      O14362   3.025   5.465   6.525
 4707WAT     H114363   3.003   5.391   6.461
 4707WAT     H214364   2.989   5.551   6.491
 4708WAT      O14365   8.713   2.776   3.545
 4708WAT     H114366   8.658   2.824   3.614
 4708WAT     H214367   8.675   2.685   3.529
 4709WAT      O14368   5.255   0.123   0.163
 4709WAT     H114369   5.334   0.184   0.154
 4709WAT     H214370   5.244   0.096   0.258
 4710WAT      O14371   6.358   4.252   0.697
 4710WAT     H114372   6.303   4.326   0.736
 4710WAT     H214373   6.415   4.211   0.769
 4711WAT      O14374   2.166   8.637   5.686
 4711WAT     H114375   2.083   8.651   5.632
 4711WAT     H214376   2.241   8.609   5.626
 4712WAT      O14377   5.985   7.080   7.535
 4712WAT     H114378   5.964   7.037   7.623
 4712WAT     H214379   5.921   7.047   7.466
 4713WAT      O14380   8.869   1.635   2.822
 4713WAT     H114381   8.804   1.710   2.813
 4713WAT     H214382   8.840   1.574   2.896
 4714WAT      O14383   5.254   6.454   5.470
 4714WAT     H114384   5.247   6.498   5.380
 4714WAT     H214385   5.338   6.400   5.473
 4715WAT      O14386   0.963   8.434   2.646
 4715WAT     H114387   1.009   8.401   2.729
 4715WAT     H214388   1.026   8.490   2.593
 4716WAT      O14389   3.484   2.431   8.724
 4716WAT     H114390   3.559   2.490   8.754
 4716WAT     H214391   3.468   2.359   8.792
 4717WAT      O14392   8.787   7.637   1.395
 4717WAT     H114393   8.724   7.712   1.415
 4717WAT     H214394   8.856   7.669   1.330
 4718WAT      O14395   1.417   3.921   8.047
 4718WAT     H114396   1.383   3.967   8.129
 4718WAT     H214397   1.344   3.918   7.978
 4719WAT      O14398   1.591   8.726   1.939
 4719WAT     H114399   1.509   8.764   1.894
 4719WAT     H214400   1.666   8.792   1.932
 4720WAT      O14401   9.079   0.877   5.259
 4720WAT     H114402   9.100   0.881   5.357
 4720WAT     H214403   9.146   0.931   5.208
 4721WAT      O14404   4.687   7.261   3.415
 4721WAT     H114405   4.592   7.253   3.384
 4721WAT     H214406   4.732   7.334   3.362
 4722WAT      O14407   4.794   2.567   0.575
 4722WAT     H114408   4.759   2.590   0.666
 4722WAT     H214409   4.892   2.548   0.581
 4723WAT      O14410   4.486   0.411   0.957
 4723WAT     H114411   4.408   0.350   0.946
 4723WAT     H214412   4.457   0.494   1.004
 4724WAT      O14413   9.040   1.455   8.313
 4724WAT     H114414   8.959   1.513   8.314
 4724WAT     H214415   9.082   1.455   8.404
 4725WAT      O14416   7.167   7.465   4.584
 4725WAT     H114417   7.249   7.507   4.623
 4725WAT     H214418   7.194   7.386   4.528
 4726WAT      O14419   9.613   4.272   9.199
 4726WAT     H114420   9.527   4.277   9.149
 4726WAT     H214421   9.675   4.343   9.164
 4727WAT      O14422   9.470   0.431   1.326
 4727WAT     H114423   9.392   0.494   1.331
 4727WAT     H214424   9.437   0.338   1.310
 4728WAT      O14425   7.379   9.722   8.384
 4728WAT     H114426   7.359   9.716   8.286
 4728WAT     H214427   7.302   9.765   8.431
 4729WAT      O14428   6.535   5.442   2.863
 4729WAT     H114429   6.583   5.445   2.775
 4729WAT     H214430   6.438   5.464   2.848
 4730WAT      O14431   6.193   3.010   5.403
 4730WAT     H114432   6.265   3.034   5.468
 4730WAT     H214433   6.183   2.910   5.399
 4731WAT      O14434   9.202   0.190   1.840
 4731WAT     H114435   9.237   0.269   1.789
 4731WAT     H214436   9.103   0.188   1.834
 4732WAT      O14437   2.825   8.090   6.561
 4732WAT     H114438   2.787   8.173   6.520
 4732WAT     H214439   2.787   8.078   6.653
 4733WAT      O14440   7.389   9.638   2.641
 4733WAT     H114441   7.343   9.550   2.629
 4733WAT     H214442   7.460   9.629   2.711
 4734WAT      O14443   5.675   7.216   6.835
 4734WAT     H114444   5.712   7.135   6.881
 4734WAT     H214445   5.575   7.214   6.840
 4735WAT      O14446   4.169   2.857   9.050
 4735WAT     H114447   4.109   2.875   8.972
 4735WAT     H214448   4.135   2.904   9.131
 4736WAT      O14449   4.169   6.635   2.983
 4736WAT     H114450   4.205   6.727   2.967
 4736WAT     H214451   4.105   6.638   3.060
 4737WAT      O14452   4.699   5.452   3.419
 4737WAT     H114453   4.607   5.438   3.383
 4737WAT     H214454   4.696   5.460   3.518
 4738WAT      O14455   0.079   0.447   7.854
 4738WAT     H114456   0.045   0.361   7.815
 4738WAT     H214457   0.074   0.519   7.784
 4739WAT      O14458   7.907   4.346   3.601
 4739WAT     H114459   7.870   4.362   3.510
 4739WAT     H214460   7.880   4.255   3.633
 4740WAT      O14461   1.128   7.440   2.345
 4740WAT     H114462   1.072   7.512   2.387
 4740WAT     H214463   1.144   7.367   2.412
 4741WAT      O14464   8.422   0.578   9.091
 4741WAT     H114465   8.520   0.562   9.098
 4741WAT     H214466   8.402   0.674   9.111
 4742WAT      O14467   4.813   4.824   3.521
 4742WAT     H114468   4.869   4.748   3.488
 4742WAT     H214469   4.771   4.871   3.444
 4743WAT      O14470   9.045   4.656   7.390
 4743WAT     H114471   9.141   4.645   7.417
 4743WAT     H214472   8.986   4.640   7.469
 4744WAT      O14473   4.691   1.016   3.263
 4744WAT     H114474   4.615   1.030   3.326
 4744WAT     H214475   4.656   0.985   3.175
 4745WAT      O14476   0.597   5.324   1.040
 4745WAT     H114477   0.667   5.345   0.972
 4745WAT     H214478   0.579   5.226   1.041
 4746WAT      O14479   2.927   4.639   3.776
 4746WAT     H114480   2.903   4.719   3.831
 4746WAT     H214481   2.913   4.659   3.680
 4747WAT      O14482   1.978   4.407   0.843
 4747WAT     H114483   1.952   4.320   0.885
 4747WAT     H214484   1.948   4.407   0.747
 4748WAT      O14485   5.871   7.531   2.721
 4748WAT     H114486   5.838   7.487   2.804
 4748WAT     H214487   5.928   7.468   2.669
 4749WAT      O14488   4.225   5.679   1.134
 4749WAT     H114489   4.125   5.676   1.131
 4749WAT     H214490   4.255   5.743   1.205
 4750WAT      O14491   0.693   6.851   5.882
 4750WAT     H114492   0.703   6.755   5.908
 4750WAT     H214493   0.640   6.899   5.951
 4751WAT      O14494   6.930   5.220   2.534
 4751WAT     H114495   6.976   5.207   2.445
 4751WAT     H214496   6.950   5.143   2.593
 4752WAT      O14497   9.305   1.823   4.100
 4752WAT     H114498   9.321   1.730   4.065
 4752WAT     H214499   9.277   1.818   4.196
 4753WAT      O14500   2.621   6.591   4.651
 4753WAT     H114501   2.524   6.582   4.676
 4753WAT     H214502   2.666   6.653   4.716
 4754WAT      O14503   6.056   3.865   6.448
 4754WAT     H114504   6.104   3.944   6.486
 4754WAT     H214505   6.026   3.806   6.522
 4755WAT      O14506   3.409   8.761   6.791
 4755WAT     H114507   3.379   8.689   6.729
 4755WAT     H214508   3.340   8.834   6.793
 4756WAT      O14509   1.413   9.580   6.157
 4756WAT     H114510   1.337   9.636   6.191
 4756WAT     H214511   1.460   9.630   6.084
 4757WAT      O14512   7.517   8.003   4.243
 4757WAT     H114513   7.529   8.096   4.280
 4757WAT     H214514   7.441   7.958   4.291
 4758WAT      O14515   9.250   2.393   7.985
 4758WAT     H114516   9.269   2.467   7.920
 4758WAT     H214517   9.154   2.366   7.978
 4759WAT      O14518   1.359   3.724   4.086
 4759WAT     H114519   1.281   3.712   4.024
 4759WAT     H214520   1.332   3.695   4.178
 4760WAT      O14521   1.679   4.772   0.244
 4760WAT     H114522   1.681   4.871   0.233
 4760WAT     H214523   1.605   4.746   0.306
 4761WAT      O14524   7.996   5.594   1.528
 4761WAT     H114525   7.953   5.664   1.584
 4761WAT     H214526   7.943   5.580   1.444
 4762WAT      O14527   9.775   5.492   6.623
 4762WAT     H114528   9.758   5.482   6.721
 4762WAT     H214529   9.835   5.418   6.592
 4763WAT      O14530   9.611   9.420   2.033
 4763WAT     H114531   9.649   9.512   2.034
 4763WAT     H214532   9.681   9.354   2.061
 4764WAT      O14533   9.551   0.314   5.887
 4764WAT     H114534   9.494   0.342   5.965
 4764WAT     H214535   9.506   0.340   5.802
 4765WAT      O14536   8.680   0.328   5.842
 4765WAT     H114537   8.691   0.270   5.761
 4765WAT     H214538   8.583   0.346   5.857
 4766WAT      O14539   9.354   0.725   5.483
 4766WAT     H114540   9.300   0.641   5.471
 4766WAT     H214541   9.435   0.721   5.425
 4767WAT      O14542   5.347   0.985   6.024
 4767WAT     H114543   5.444   0.986   5.999
 4767WAT     H214544   5.324   0.897   6.066
 4768WAT      O14545   7.329   6.035   4.733
 4768WAT     H114546   7.287   5.960   4.682
 4768WAT     H214547   7.401   6.077   4.678
 4769WAT      O14548   1.912   2.681   0.198
 4769WAT     H114549   1.913   2.779   0.180
 4769WAT     H214550   1.854   2.661   0.277
 4770WAT      O14551   4.254   0.466   7.256
 4770WAT     H114552   4.242   0.531   7.331
 4770WAT     H214553   4.305   0.509   7.182
 4771WAT      O14554   7.491   9.806   6.726
 4771WAT     H114555   7.421   9.745   6.762
 4771WAT     H214556   7.510   9.878   6.793
 4772WAT      O14557   2.454   2.780   8.578
 4772WAT     H114558   2.534   2.724   8.600
 4772WAT     H214559   2.482   2.858   8.521
 4773WAT      O14560   7.942   0.317   5.492
 4773WAT     H114561   7.917   0.282   5.401
 4773WAT     H214562   8.020   0.265   5.527
 4774WAT      O14563   5.026   8.460   6.713
 4774WAT     H114564   4.974   8.453   6.627
 4774WAT     H214565   4.975   8.413   6.785
 4775WAT      O14566   1.906   8.608   8.256
 4775WAT     H114567   1.981   8.674   8.245
 4775WAT     H214568   1.818   8.657   8.255
 4776WAT      O14569   9.718   4.734   1.050
 4776WAT     H114570   9.752   4.645   1.082
 4776WAT     H214571   9.738   4.804   1.118
 4777WAT      O14572   3.668   4.454   0.315
 4777WAT     H114573   3.645   4.383   0.383
 4777WAT     H214574   3.618   4.436   0.231
 4778WAT      O14575   2.440   6.454   3.938
 4778WAT     H114576   2.365   6.521   3.943
 4778WAT     H214577   2.401   6.363   3.923
 4779WAT      O14578   0.421   3.256   5.821
 4779WAT     H114579   0.486   3.236   5.895
 4779WAT     H214580   0.452   3.211   5.737
 4780WAT      O14581   0.657   0.366   3.478
 4780WAT     H114582   0.572   0.322   3.506
 4780WAT     H214583   0.691   0.423   3.553
 4781WAT      O14584   1.435   6.432   1.457
 4781WAT     H114585   1.470   6.338   1.449
 4781WAT     H214586   1.420   6.454   1.554
 4782WAT      O14587   9.740   7.537   5.201
 4782WAT     H114588   9.682   7.460   5.178
 4782WAT     H214589   9.791   7.566   5.120
 4783WAT      O14590   7.251   4.721   3.545
 4783WAT     H114591   7.240   4.783   3.623
 4783WAT     H214592   7.172   4.660   3.539
 4784WAT      O14593   3.218   7.741   2.611
 4784WAT     H114594   3.271   7.815   2.571
 4784WAT     H214595   3.121   7.763   2.607
 4785WAT      O14596   1.795   5.481   7.379
 4785WAT     H114597   1.841   5.414   7.320
 4785WAT     H214598   1.835   5.477   7.471
 4786WAT      O14599   8.469   1.663   8.669
 4786WAT     H114600   8.564   1.656   8.699
 4786WAT     H214601   8.461   1.733   8.598
 4787WAT      O14602   8.655   6.676   1.835
 4787WAT     H114603   8.713   6.646   1.759
 4787WAT     H214604   8.562   6.693   1.801
 4788WAT      O14605   0.114   2.462   8.443
 4788WAT     H114606   0.123   2.519   8.525
 4788WAT     H214607   0.033   2.405   8.451
 4789WAT      O14608   6.579   0.734   8.317
 4789WAT     H114609   6.614   0.825   8.343
 4789WAT     H214610   6.552   0.684   8.400
 4790WAT      O14611   0.282   1.407   1.363
 4790WAT     H114612   0.240   1.418   1.273
 4790WAT     H214613   0.379   1.383   1.352
 4791WAT      O14614   6.372   3.329   5.476
 4791WAT     H114615   6.322   3.331   5.390
 4791WAT     H214616   6.319   3.376   5.547
 4792WAT      O14617   7.856   3.331   8.498
 4792WAT     H114618   7.899   3.383   8.424
 4792WAT     H214619   7.919   3.326   8.576
 4793WAT      O14620   7.878   4.457   2.127
 4793WAT     H114621   7.835   4.380   2.173
 4793WAT     H214622   7.808   4.515   2.085
 4794WAT      O14623   4.276   3.059   5.200
 4794WAT     H114624   4.256   3.000   5.122
 4794WAT     H214625   4.191   3.095   5.237
 4795WAT      O14626   8.301   6.775   8.989
 4795WAT     H114627   8.327   6.772   9.086
 4795WAT     H214628   8.218   6.830   8.979
 4796WAT      O14629   3.509   9.226   3.625
 4796WAT     H114630   3.565   9.146   3.604
 4796WAT     H214631   3.548   9.307   3.580
 4797WAT      O14632   8.511   0.724   2.276
 4797WAT     H114633   8.584   0.714   2.208
 4797WAT     H214634   8.545   0.698   2.366
 4798WAT      O14635   4.332   0.712   7.640
 4798WAT     H114636   4.403   0.651   7.675
 4798WAT     H214637   4.359   0.747   7.550
 4799WAT      O14638   3.255   8.074   5.443
 4799WAT     H114639   3.197   8.119   5.376
 4799WAT     H214640   3.348   8.066   5.407
 4800WAT      O14641   8.980   0.459   8.638
 4800WAT     H114642   8.900   0.518   8.625
 4800WAT     H214643   8.962   0.395   8.712
 4801WAT      O14644   0.936   2.254   5.261
 4801WAT     H114645   1.027   2.215   5.257
 4801WAT     H214646   0.940   2.350   5.233
 4802WAT      O14647   1.247   5.924   3.588
 4802WAT     H114648   1.225   6.021   3.578
 4802WAT     H214649   1.233   5.878   3.500
 4803WAT      O14650   5.492   5.459   9.424
 4803WAT     H114651   5.454   5.552   9.417
 4803WAT     H214652   5.578   5.456   9.373
 4804WAT      O14653   4.818   9.595   9.740
 4804WAT     H114654   4.746   9.526   9.743
 4804WAT     H214655   4.815   9.643   9.653
 4805WAT      O14656   3.763   0.549   4.842
 4805WAT     H114657   3.715   0.590   4.765
 4805WAT     H214658   3.860   0.538   4.819
 4806WAT      O14659   4.842   2.501   4.079
 4806WAT     H114660   4.855   2.515   4.177
 4806WAT     H214661   4.816   2.588   4.036
 4807WAT      O14662   6.379   8.492   7.206
 4807WAT     H114663   6.367   8.395   7.227
 4807WAT     H214664   6.454   8.529   7.261
 4808WAT      O14665   2.739   1.703   2.029
 4808WAT     H114666   2.676   1.750   2.091
 4808WAT     H214667   2.804   1.648   2.081
 4809WAT      O14668   6.956   2.999   5.284
 4809WAT     H114669   6.958   3.072   5.353
 4809WAT     H214670   6.993   2.915   5.324
 4810WAT      O14671   8.538   0.046   0.500
 4810WAT     H114672   8.574   0.086   0.584
 4810WAT     H214673   8.501   0.118   0.442
 4811WAT      O14674   2.201   7.217   2.074
 4811WAT     H114675   2.218   7.270   1.991
 4811WAT     H214676   2.252   7.256   2.150
 4812WAT      O14677   2.476   4.054   9.811
 4812WAT     H114678   2.407   3.981   9.805
 4812WAT     H214679   2.438   4.131   9.862
 4813WAT      O14680   8.412   9.580   1.922
 4813WAT     H114681   8.357   9.655   1.887
 4813WAT     H214682   8.358   9.526   1.987
 4814WAT      O14683   7.673   6.247   9.528
 4814WAT     H114684   7.746   6.293   9.478
 4814WAT     H214685   7.712   6.175   9.585
 4815WAT      O14686   7.766   7.036   2.805
 4815WAT     H114687   7.852   7.087   2.797
 4815WAT     H214688   7.694   7.097   2.837
 4816WAT      O14689   2.671   0.449   3.788
 4816WAT     H114690   2.723   0.366   3.767
 4816WAT     H214691   2.575   0.424   3.803
 4817WAT      O14692   5.760   0.335   4.080
 4817WAT     H114693   5.731   0.284   3.999
 4817WAT     H214694   5.837   0.395   4.055
 4818WAT      O14695   1.727   9.428   5.034
 4818WAT     H114696   1.658   9.496   5.056
 4818WAT     H214697   1.716   9.398   4.939
 4819WAT      O14698   2.650   6.954   0.353
 4819WAT     H114699   2.744   6.949   0.386
 4819WAT     H214700   2.639   6.895   0.274
 4820WAT      O14701   3.541   3.842   7.478
 4820WAT     H114702   3.592   3.913   7.430
 4820WAT     H214703   3.562   3.753   7.437
 4821WAT      O14704   2.644   4.097   6.414
 4821WAT     H114705   2.618   4.192   6.430
 4821WAT     H214706   2.735   4.094   6.372
 4822WAT      O14707   0.012   5.253   0.114
 4822WAT     H114708   0.086   5.190   0.091
 4822WAT     H214709  -0.068   5.200   0.142
 4823WAT      O14710   0.554   5.999   6.468
 4823WAT     H114711   0.626   6.065   6.490
 4823WAT     H214712   0.477   6.012   6.530
 4824WAT      O14713   2.220   8.156   1.646
 4824WAT     H114714   2.221   8.068   1.694
 4824WAT     H214715   2.210   8.230   1.712
 4825WAT      O14716   9.234   7.638   7.595
 4825WAT     H114717   9.177   7.577   7.540
 4825WAT     H214718   9.283   7.585   7.664
 4826WAT      O14719   7.039   7.968   9.604
 4826WAT     H114720   6.978   8.046   9.619
 4826WAT     H214721   6.990   7.883   9.626
 4827WAT      O14722   2.949   5.291   3.709
 4827WAT     H114723   3.021   5.222   3.716
 4827WAT     H214724   2.866   5.258   3.755
 4828WAT      O14725   2.398   0.828   6.644
 4828WAT     H114726   2.452   0.775   6.578
 4828WAT     H214727   2.443   0.916   6.661
 4829WAT      O14728   3.972   8.298   7.904
 4829WAT     H114729   3.966   8.398   7.899
 4829WAT     H214730   4.006   8.262   7.817
 4830WAT      O14731   7.743   9.623   5.913
 4830WAT     H114732   7.682   9.656   5.985
 4830WAT     H214733   7.825   9.582   5.954
 4831WAT      O14734   6.407   4.693   9.011
 4831WAT     H114735   6.432   4.598   9.032
 4831WAT     H214736   6.309   4.699   8.991
 4832WAT      O14737   9.798   6.600   1.790
 4832WAT     H114738   9.759   6.619   1.700
 4832WAT     H214739   9.756   6.662   1.858
 4833WAT      O14740   5.378   0.099   3.804
 4833WAT     H114741   5.350   0.083   3.899
 4833WAT     H214742   5.336   0.183   3.771
 4834WAT      O14743   7.221   3.351   6.775
 4834WAT     H114744   7.192   3.259   6.801
 4834WAT     H214745   7.298   3.344   6.711
 4835WAT      O14746   9.803   2.595   5.189
 4835WAT     H114747   9.890   2.642   5.178
 4835WAT     H214748   9.812   2.525   5.260
 4836WAT      O14749   7.752   7.364   5.070
 4836WAT     H114750   7.813   7.324   5.002
 4836WAT     H214751   7.658   7.341   5.048
 4837WAT      O14752   0.861   0.637   0.292
 4837WAT     H114753   0.939   0.699   0.305
 4837WAT     H214754   0.830   0.643   0.197
 4838WAT      O14755   0.171   9.636   6.463
 4838WAT     H114756   0.234   9.702   6.506
 4838WAT     H214757   0.205   9.543   6.479
 4839WAT      O14758   6.974   0.203   6.461
 4839WAT     H114759   7.021   0.223   6.547
 4839WAT     H214760   7.041   0.192   6.388
 4840WAT      O14761   3.323   0.005   5.908
 4840WAT     H114762   3.240   0.061   5.912
 4840WAT     H214763   3.370   0.020   5.821
 4841WAT      O14764   2.440   1.848   6.702
 4841WAT     H114765   2.440   1.769   6.763
 4841WAT     H214766   2.525   1.899   6.715
 4842WAT      O14767   3.853   7.652   9.812
 4842WAT     H114768   3.894   7.631   9.723
 4842WAT     H214769   3.753   7.652   9.804
 4843WAT      O14770   2.178   8.152   8.829
 4843WAT     H114771   2.140   8.242   8.850
 4843WAT     H214772   2.260   8.163   8.773
 4844WAT      O14773   2.310   0.955   4.343
 4844WAT     H114774   2.328   0.925   4.249
 4844WAT     H214775   2.306   1.054   4.346
 4845WAT      O14776   1.602   0.201   5.389
 4845WAT     H114777   1.597   0.299   5.369
 4845WAT     H214778   1.626   0.151   5.306
 4846WAT      O14779   5.470   7.623   5.486
 4846WAT     H114780   5.393   7.676   5.453
 4846WAT     H214781   5.476   7.537   5.435
 4847WAT      O14782   2.932   1.885   1.986
 4847WAT     H114783   2.854   1.824   1.993
 4847WAT     H214784   3.011   1.844   2.032
 4848WAT      O14785   8.039   1.713   2.268
 4848WAT     H114786   8.005   1.703   2.361
 4848WAT     H214787   8.013   1.802   2.232
 4849WAT      O14788   9.282   9.465   5.076
 4849WAT     H114789   9.232   9.412   5.145
 4849WAT     H214790   9.228   9.468   4.992
 4850WAT      O14791   1.773   5.162   7.455
 4850WAT     H114792   1.799   5.234   7.391
 4850WAT     H214793   1.855   5.114   7.486
 4851WAT      O14794   8.510   8.727   1.937
 4851WAT     H114795   8.521   8.733   1.838
 4851WAT     H214796   8.413   8.714   1.960
 4852WAT      O14797   3.054   2.808   6.212
 4852WAT     H114798   2.974   2.756   6.244
 4852WAT     H214799   3.137   2.767   6.250
 4853WAT      O14800   9.533   9.202   1.135
 4853WAT     H114801   9.461   9.272   1.135
 4853WAT     H214802   9.577   9.199   1.224
 4854WAT      O14803   5.544   5.540   3.942
 4854WAT     H114804   5.469   5.499   3.889
 4854WAT     H214805   5.596   5.467   3.987
 4855WAT      O14806   3.751   4.756   5.935
 4855WAT     H114807   3.742   4.848   5.898
 4855WAT     H214808   3.693   4.693   5.883
 4856WAT      O14809   7.984   9.841   4.799
 4856WAT     H114810   7.924   9.873   4.872
 4856WAT     H214811   7.975   9.742   4.789
 4857WAT      O14812   2.114   6.608   8.030
 4857WAT     H114813   2.019   6.613   7.999
 4857WAT     H214814   2.122   6.543   8.105
 4858WAT      O14815   4.503   0.291   1.757
 4858WAT     H114816   4.590   0.286   1.708
 4858WAT     H214817   4.456   0.203   1.753
 4859WAT      O14818   3.656   8.175   0.114
 4859WAT     H114819   3.605   8.261   0.108
 4859WAT     H214820   3.600   8.105   0.156
 4860WAT      O14821   9.319   2.113   7.988
 4860WAT     H114822   9.334   2.211   7.979
 4860WAT     H214823   9.229   2.089   7.953
 4861WAT      O14824   1.949   8.108   7.080
 4861WAT     H114825   2.019   8.179   7.088
 4861WAT     H214826   1.994   8.018   7.074
 4862WAT      O14827   0.814   2.447   9.788
 4862WAT     H114828   0.793   2.447   9.690
 4862WAT     H214829   0.731   2.425   9.840
 4863WAT      O14830   2.865   9.472   8.675
 4863WAT     H114831   2.773   9.452   8.709
 4863WAT     H214832   2.928   9.482   8.752
 4864WAT      O14833   6.902   2.796   0.292
 4864WAT     H114834   6.884   2.817   0.195
 4864WAT     H214835   6.815   2.791   0.341
 4865WAT      O14836   2.658   4.268   5.513
 4865WAT     H114837   2.681   4.317   5.429
 4865WAT     H214838   2.615   4.330   5.578
 4866WAT      O14839   9.184   4.644   3.601
 4866WAT     H114840   9.164   4.669   3.696
 4866WAT     H214841   9.107   4.671   3.543
 4867WAT      O14842   6.769   6.492   1.437
 4867WAT     H114843   6.769   6.591   1.423
 4867WAT     H214844   6.791   6.472   1.532
 4868WAT      O14845   5.342   4.034   2.448
 4868WAT     H114846   5.361   4.129   2.471
 4868WAT     H214847   5.265   4.001   2.503
 4869WAT      O14848   2.606   9.429   8.749
 4869WAT     H114849   2.585   9.364   8.822
 4869WAT     H214850   2.555   9.514   8.764
 4870WAT      O14851   7.768   7.902   6.238
 4870WAT     H114852   7.773   8.001   6.228
 4870WAT     H214853   7.677   7.870   6.211
 4871WAT      O14854   5.186   8.488   9.681
 4871WAT     H114855   5.149   8.460   9.769
 4871WAT     H214856   5.282   8.459   9.675
 4872WAT      O14857   4.226   9.590   2.919
 4872WAT     H114858   4.174   9.529   2.980
 4872WAT     H214859   4.197   9.576   2.825
 4873WAT      O14860   0.461   0.498   0.016
 4873WAT     H114861   0.556   0.467   0.023
 4873WAT     H214862   0.424   0.475  -0.074
 4874WAT      O14863   7.711   2.963   3.409
 4874WAT     H114864   7.712   2.869   3.376
 4874WAT     H214865   7.671   3.022   3.339
 4875WAT      O14866   1.991   9.111   9.874
 4875WAT     H114867   2.030   9.203   9.874
 4875WAT     H214868   2.055   9.048   9.918
 4876WAT      O14869   5.524   6.299   1.547
 4876WAT     H114870   5.482   6.388   1.527
 4876WAT     H214871   5.464   6.225   1.517
 4877WAT      O14872   3.542   7.509   3.740
 4877WAT     H114873   3.567   7.550   3.828
 4877WAT     H214874   3.444   7.492   3.739
 4878WAT      O14875   9.180   7.905   3.250
 4878WAT     H114876   9.113   7.905   3.324
 4878WAT     H214877   9.190   7.812   3.214
 4879WAT      O14878   8.413   2.595   8.177
 4879WAT     H114879   8.363   2.597   8.264
 4879WAT     H214880   8.502   2.551   8.191
 4880WAT      O14881   6.307   4.007   6.943
 4880WAT     H114882   6.265   3.984   6.855
 4880WAT     H214883   6.393   4.056   6.927
 4881WAT      O14884   6.148   9.390   5.544
 4881WAT     H114885   6.224   9.354   5.490
 4881WAT     H214886   6.106   9.315   5.596
 4882WAT      O14887   7.679   5.758   1.124
 4882WAT     H114888   7.765   5.793   1.160
 4882WAT     H214889   7.606   5.777   1.190
 4883WAT      O14890   0.463   1.615   4.836
 4883WAT     H114891   0.448   1.680   4.910
 4883WAT     H214892   0.550   1.568   4.850
 4884WAT      O14893   9.065   5.498   9.806
 4884WAT     H114894   8.994   5.437   9.771
 4884WAT     H214895   9.079   5.573   9.742
 4885WAT      O14896   6.261   7.708   9.422
 4885WAT     H114897   6.197   7.640   9.458
 4885WAT     H214898   6.253   7.712   9.323
 4886WAT      O14899   5.314   7.380   1.464
 4886WAT     H114900   5.313   7.304   1.399
 4886WAT     H214901   5.407   7.393   1.499
 4887WAT      O14902   7.808   9.657   0.026
 4887WAT     H114903   7.761   9.703  -0.050
 4887WAT     H214904   7.879   9.597  -0.010
 4888WAT      O14905   3.554   0.512   3.159
 4888WAT     H114906   3.586   0.506   3.254
 4888WAT     H214907   3.457   0.538   3.159
 4889WAT      O14908   2.550   3.742   1.811
 4889WAT     H114909   2.502   3.784   1.888
 4889WAT     H214910   2.539   3.643   1.814
 4890WAT      O14911   1.606   6.929   1.523
 4890WAT     H114912   1.665   6.876   1.585
 4890WAT     H214913   1.565   6.867   1.456
 4891WAT      O14914   9.157   5.322   4.228
 4891WAT     H114915   9.102   5.346   4.148
 4891WAT     H214916   9.195   5.230   4.216
 4892WAT      O14917   6.283   9.767   4.502
 4892WAT     H114918   6.187   9.792   4.517
 4892WAT     H214919   6.341   9.820   4.564
 4893WAT      O14920   7.396   2.268   5.668
 4893WAT     H114921   7.469   2.275   5.736
 4893WAT     H214922   7.431   2.293   5.578
 4894WAT      O14923   8.809   4.727   9.597
 4894WAT     H114924   8.866   4.685   9.668
 4894WAT     H214925   8.725   4.674   9.586
 4895WAT      O14926   2.026   5.397   1.489
 4895WAT     H114927   2.079   5.314   1.499
 4895WAT     H214928   2.065   5.469   1.546
 4896WAT      O14929   9.783   3.624   6.112
 4896WAT     H114930   9.874   3.657   6.136
 4896WAT     H214931   9.726   3.700   6.082
 4897WAT      O14932   5.853   2.327   8.281
 4897WAT     H114933   5.923   2.372   8.224
 4897WAT     H214934   5.896   2.254   8.334
 4898WAT      O14935   4.112   8.411   0.247
 4898WAT     H114936   4.046   8.382   0.177
 4898WAT     H214937   4.182   8.469   0.205
 4899WAT      O14938   4.548   9.515   2.649
 4899WAT     H114939   4.567   9.489   2.744
 4899WAT     H214940   4.565   9.438   2.589
 4900WAT      O14941   4.114   9.488   5.094
 4900WAT     H114942   4.150   9.417   5.154
 4900WAT     H214943   4.015   9.476   5.084
 4901WAT      O14944   5.157   9.252   0.710
 4901WAT     H114945   5.085   9.201   0.758
 4901WAT     H214946   5.120   9.338   0.676
 4902WAT      O14947   0.793   8.217   3.895
 4902WAT     H114948   0.813   8.157   3.973
 4902WAT     H214949   0.694   8.226   3.885
 4903WAT      O14950   5.742   8.276   7.933
 4903WAT     H114951   5.731   8.255   8.030
 4903WAT     H214952   5.839   8.275   7.909
 4904WAT      O14953   4.253   6.794   7.580
 4904WAT     H114954   4.232   6.884   7.541
 4904WAT     H214955   4.340   6.761   7.542
 4905WAT      O14956   9.323   5.592   2.758
 4905WAT     H114957   9.365   5.673   2.799
 4905WAT     H214958   9.267   5.545   2.827
 4906WAT      O14959   3.875   1.039   7.133
 4906WAT     H114960   3.970   1.021   7.108
 4906WAT     H214961   3.837   0.960   7.180
 4907WAT      O14962   7.032   6.712   8.346
 4907WAT     H114963   7.091   6.762   8.282
 4907WAT     H214964   7.084   6.636   8.385
 4908WAT      O14965   8.910   2.764   9.055
 4908WAT     H114966   8.904   2.673   9.097
 4908WAT     H214967   8.877   2.759   8.961
 4909WAT      O14968   6.963   0.111   5.214
 4909WAT     H114969   6.938   0.099   5.118
 4909WAT     H214970   7.000   0.203   5.227
 4910WAT      O14971   9.548   8.109   8.360
 4910WAT     H114972   9.579   8.204   8.350
 4910WAT     H214973   9.483   8.087   8.287
 4911WAT      O14974   6.941   4.087   0.851
 4911WAT     H114975   6.879   4.149   0.899
 4911WAT     H214976   6.966   4.011   0.912
 4912WAT      O14977   2.280   0.187   2.901
 4912WAT     H114978   2.294   0.133   2.819
 4912WAT     H214979   2.354   0.254   2.910
 4913WAT      O14980   4.536   3.328   6.747
 4913WAT     H114981   4.631   3.311   6.776
 4913WAT     H214982   4.484   3.367   6.823
 4914WAT      O14983   9.574   0.840   9.088
 4914WAT     H114984   9.564   0.806   8.995
 4914WAT     H214985   9.642   0.914   9.089
 4915WAT      O14986   1.027   9.243   7.237
 4915WAT     H114987   0.980   9.331   7.235
 4915WAT     H214988   1.126   9.259   7.230
 4916WAT      O14989   7.766   3.706   1.368
 4916WAT     H114990   7.772   3.752   1.279
 4916WAT     H214991   7.846   3.647   1.380
 4917WAT      O14992   1.211   5.628   7.602
 4917WAT     H114993   1.252   5.538   7.619
 4917WAT     H214994   1.114   5.625   7.627
 4918WAT      O14995   5.227   2.051   2.472
 4918WAT     H114996   5.239   1.961   2.513
 4918WAT     H214997   5.260   2.121   2.536
 4919WAT      O14998   5.297   1.235   4.693
 4919WAT     H114999   5.348   1.152   4.712
 4919WAT     H215000   5.237   1.256   4.771
 4920WAT      O15001   1.607   2.440   7.291
 4920WAT     H115002   1.617   2.345   7.262
 4920WAT     H215003   1.660   2.456   7.374
 4921WAT      O15004   6.204   0.636   4.907
 4921WAT     H115005   6.218   0.733   4.890
 4921WAT     H215006   6.166   0.622   4.998
 4922WAT      O15007   0.695   7.084   8.913
 4922WAT     H115008   0.652   7.000   8.879
 4922WAT     H215009   0.737   7.133   8.837
 4923WAT      O15010   1.799   9.051   8.289
 4923WAT     H115011   1.852   9.030   8.370
 4923WAT     H215012   1.737   8.975   8.269
 4924WAT      O15013   1.148   5.247   7.582
 4924WAT     H115014   1.218   5.290   7.639
 4924WAT     H215015   1.101   5.177   7.635
 4925WAT      O15016   0.154   3.144   1.238
 4925WAT     H115017   0.112   3.072   1.184
 4925WAT     H215018   0.233   3.180   1.189
 4926WAT      O15019   3.201   2.326   0.748
 4926WAT     H115020   3.282   2.339   0.691
 4926WAT     H215021   3.164   2.415   0.774
 4927WAT      O15022   3.335   7.458   5.898
 4927WAT     H115023   3.251   7.509   5.920
 4927WAT     H215024   3.365   7.481   5.806
 4928WAT      O15025   7.521   9.716   1.034
 4928WAT     H115026   7.553   9.723   0.940
 4928WAT     H215027   7.569   9.783   1.091
 4929WAT      O15028   2.091   4.518   4.666
 4929WAT     H115029   2.102   4.437   4.724
 4929WAT     H215030   2.154   4.511   4.588
 4930WAT      O15031   1.864   3.288   6.726
 4930WAT     H115032   1.799   3.215   6.703
 4930WAT     H215033   1.880   3.289   6.825
 4931WAT      O15034   3.798   1.079   5.113
 4931WAT     H115035   3.853   1.136   5.174
 4931WAT     H215036   3.760   1.135   5.040
 4932WAT      O15037   6.285   2.045   3.226
 4932WAT     H115038   6.378   2.077   3.210
 4932WAT     H215039   6.258   2.066   3.320
 4933WAT      O15040   0.671   9.462   8.417
 4933WAT     H115041   0.728   9.382   8.436
 4933WAT     H215042   0.647   9.463   8.320
 4934WAT      O15043   2.020   3.928   5.056
 4934WAT     H115044   2.045   3.958   5.148
 4934WAT     H215045   2.103   3.911   5.003
 4935WAT      O15046   6.414   2.800   5.680
 4935WAT     H115047   6.409   2.884   5.625
 4935WAT     H215048   6.373   2.724   5.629
 4936WAT      O15049   7.235   0.283   1.944
 4936WAT     H115050   7.145   0.314   1.914
 4936WAT     H215051   7.304   0.308   1.876
 4937WAT      O15052   2.673   2.664   9.113
 4937WAT     H115053   2.748   2.731   9.110
 4937WAT     H215054   2.675   2.616   9.200
 4938WAT      O15055   7.209   7.968   6.868
 4938WAT     H115056   7.127   8.023   6.848
 4938WAT     H215057   7.263   7.958   6.784
 4939WAT      O15058   7.667   1.595   5.248
 4939WAT     H115059   7.594   1.602   5.180
 4939WAT     H215060   7.640   1.645   5.331
 4940WAT      O15061   6.411   7.828   3.948
 4940WAT     H115062   6.377   7.734   3.948
 4940WAT     H215063   6.510   7.827   3.962
 4941WAT      O15064   8.213   1.358   7.785
 4941WAT     H115065   8.278   1.422   7.743
 4941WAT     H215066   8.160   1.406   7.855
 4942WAT      O15067   4.566   3.271   0.547
 4942WAT     H115068   4.543   3.205   0.475
 4942WAT     H215069   4.611   3.350   0.505
 4943WAT      O15070   5.360   6.754   0.692
 4943WAT     H115071   5.266   6.744   0.661
 4943WAT     H215072   5.363   6.812   0.773
 4944WAT      O15073   4.919   7.694   6.836
 4944WAT     H115074   4.906   7.649   6.748
 4944WAT     H215075   4.978   7.774   6.824
 4945WAT      O15076   2.310   4.082   3.664
 4945WAT     H115077   2.287   4.154   3.599
 4945WAT     H215078   2.346   4.003   3.614
 4946WAT      O15079   8.136   9.014   3.937
 4946WAT     H115080   8.110   9.099   3.891
 4946WAT     H215081   8.233   8.997   3.923
 4947WAT      O15082   2.201   0.118   0.655
 4947WAT     H115083   2.280   0.126   0.593
 4947WAT     H215084   2.121   0.159   0.612
 4948WAT      O15085   3.261   7.620   7.932
 4948WAT     H115086   3.173   7.611   7.886
 4948WAT     H215087   3.301   7.709   7.912
 4949WAT      O15088   7.963   2.903   6.220
 4949WAT     H115089   7.974   2.993   6.179
 4949WAT     H215090   8.045   2.848   6.205
 4950WAT      O15091   9.813   2.810   0.693
 4950WAT     H115092   9.815   2.905   0.662
 4950WAT     H215093   9.723   2.770   0.675
 4951WAT      O15094   7.943   5.073   6.086
 4951WAT     H115095   7.932   5.019   6.003
 4951WAT     H215096   8.030   5.050   6.130
 4952WAT      O15097   3.202   1.567   3.444
 4952WAT     H115098   3.134   1.564   3.372
 4952WAT     H215099   3.157   1.567   3.534
 4953WAT      O15100   7.936   6.671   4.140
 4953WAT     H115101   7.987   6.588   4.161
 4953WAT     H215102   7.858   6.678   4.202
 4954WAT      O15103   5.056   4.203   5.872
 4954WAT     H115104   5.100   4.114   5.866
 4954WAT     H215105   5.111   4.271   5.825
 4955WAT      O15106   2.765   5.847   8.789
 4955WAT     H115107   2.806   5.773   8.737
 4955WAT     H215108   2.832   5.919   8.804
 4956WAT      O15109   0.560   7.475   3.316
 4956WAT     H115110   0.642   7.441   3.268
 4956WAT     H215111   0.582   7.559   3.365
 4957WAT      O15112   4.629   4.322   7.849
 4957WAT     H115113   4.585   4.241   7.810
 4957WAT     H215114   4.560   4.393   7.861
 4958WAT      O15115   1.136   3.341   3.758
 4958WAT     H115116   1.168   3.264   3.701
 4958WAT     H215117   1.084   3.305   3.835
 4959WAT      O15118   3.190   5.931   0.552
 4959WAT     H115119   3.115   5.865   0.551
 4959WAT     H215120   3.172   6.003   0.485
 4960WAT      O15121   7.692   5.251   0.081
 4960WAT     H115122   7.715   5.168   0.031
 4960WAT     H215123   7.774   5.307   0.093
 4961WAT      O15124   4.803   8.464   8.470
 4961WAT     H115125   4.781   8.444   8.565
 4961WAT     H215126   4.884   8.411   8.443
 4962WAT      O15127   2.231   1.593   2.504
 4962WAT     H115128   2.284   1.673   2.478
 4962WAT     H215129   2.267   1.556   2.590
 4963WAT      O15130   1.234   4.119   5.305
 4963WAT     H115131   1.288   4.176   5.367
 4963WAT     H215132   1.245   4.023   5.331
 4964WAT      O15133   7.867   7.602   7.187
 4964WAT     H115134   7.931   7.572   7.115
 4964WAT     H215135   7.818   7.523   7.223
 4965WAT      O15136   2.780   4.337   2.003
 4965WAT     H115137   2.712   4.361   1.934
 4965WAT     H215138   2.872   4.352   1.967
 4966WAT      O15139   7.233   8.236   4.715
 4966WAT     H115140   7.157   8.272   4.662
 4966WAT     H215141   7.293   8.311   4.742
 4967WAT      O15142   4.729   6.636   7.925
 4967WAT     H115143   4.747   6.601   8.017
 4967WAT     H215144   4.802   6.699   7.899
 4968WAT      O15145   9.051   7.369   1.983
 4968WAT     H115146   9.001   7.321   2.055
 4968WAT     H215147   9.042   7.468   1.998
 4969WAT      O15148   4.973   9.103   8.259
 4969WAT     H115149   4.977   9.007   8.287
 4969WAT     H215150   4.878   9.134   8.260
 4970WAT      O15151   8.189   1.707   3.557
 4970WAT     H115152   8.153   1.617   3.531
 4970WAT     H215153   8.162   1.728   3.651
 4971WAT      O15154   7.022   0.916   4.546
 4971WAT     H115155   7.115   0.882   4.531
 4971WAT     H215156   6.958   0.861   4.493
 4972WAT      O15157   6.709   1.207   5.772
 4972WAT     H115158   6.734   1.152   5.852
 4972WAT     H215159   6.639   1.160   5.719
 4973WAT      O15160   0.440   4.993   2.442
 4973WAT     H115161   0.503   4.964   2.371
 4973WAT     H215162   0.358   4.936   2.440
 4974WAT      O15163   9.799   6.511   7.914
 4974WAT     H115164   9.787   6.417   7.879
 4974WAT     H215165   9.776   6.576   7.841
 4975WAT      O15166   3.522   7.801   0.927
 4975WAT     H115167   3.438   7.845   0.895
 4975WAT     H215168   3.503   7.752   1.013
 4976WAT      O15169   5.662   4.779   7.289
 4976WAT     H115170   5.690   4.819   7.202
 4976WAT     H215171   5.706   4.828   7.364
 4977WAT      O15172   1.761   9.300   3.229
 4977WAT     H115173   1.708   9.300   3.314
 4977WAT     H215174   1.753   9.210   3.185
 4978WAT      O15175   7.298   1.829   5.671
 4978WAT     H115176   7.254   1.915   5.644
 4978WAT     H215177   7.290   1.763   5.597
 4979WAT      O15178   1.211   9.389   5.823
 4979WAT     H115179   1.289   9.377   5.762
 4979WAT     H215180   1.128   9.357   5.778
 4980WAT      O15181   2.990   7.124   4.656
 4980WAT     H115182   3.007   7.182   4.736
 4980WAT     H215183   2.917   7.060   4.676
 4981WAT      O15184   8.362   4.653   0.572
 4981WAT     H115185   8.375   4.566   0.523
 4981WAT     H215186   8.450   4.698   0.584
 4982WAT      O15187   5.235   2.325   6.789
 4982WAT     H115188   5.269   2.264   6.719
 4982WAT     H215189   5.144   2.357   6.765
 4983WAT      O15190   2.870   0.834   7.519
 4983WAT     H115191   2.846   0.771   7.593
 4983WAT     H215192   2.832   0.924   7.540
 4984WAT      O15193   8.721   4.039   0.872
 4984WAT     H115194   8.629   4.015   0.840
 4984WAT     H215195   8.774   4.075   0.795
 4985WAT      O15196   3.035   0.665   3.007
 4985WAT     H115197   2.983   0.713   3.078
 4985WAT     H215198   3.014   0.706   2.918
 4986WAT      O15199   0.373   0.388   2.750
 4986WAT     H115200   0.368   0.426   2.842
 4986WAT     H215201   0.396   0.290   2.755
 4987WAT      O15202   6.743   5.917   3.252
 4987WAT     H115203   6.791   5.999   3.283
 4987WAT     H215204   6.719   5.928   3.155
 4988WAT      O15205   7.548   8.536   2.617
 4988WAT     H115206   7.595   8.609   2.569
 4988WAT     H215207   7.489   8.574   2.688
 4989WAT      O15208   4.118   0.135   2.800
 4989WAT     H115209   4.204   0.083   2.803
 4989WAT     H215210   4.089   0.146   2.705
 4990WAT      O15211   1.706   9.396   5.415
 4990WAT     H115212   1.609   9.398   5.391
 4990WAT     H215213   1.752   9.476   5.376
 4991WAT      O15214   1.249   0.966   8.471
 4991WAT     H115215   1.291   0.940   8.384
 4991WAT     H215216   1.155   0.931   8.474
 4992WAT      O15217   0.496   6.926   8.251
 4992WAT     H115218   0.419   6.987   8.228
 4992WAT     H215219   0.493   6.846   8.192
 4993WAT      O15220   2.343   8.297   8.056
 4993WAT     H115221   2.256   8.307   8.007
 4993WAT     H215222   2.334   8.225   8.124
 4994WAT      O15223   5.249   1.070   2.695
 4994WAT     H115224   5.186   1.117   2.633
 4994WAT     H215225   5.203   1.053   2.782
 4995WAT      O15226   0.006   7.255   4.113
 4995WAT     H115227   0.100   7.235   4.085
 4995WAT     H215228   0.007   7.324   4.185
 4996WAT      O15229   1.440   5.912   6.297
 4996WAT     H115230   1.521   5.900   6.355
 4996WAT     H215231   1.466   5.902   6.201
 4997WAT      O15232   4.270   8.306   4.937
 4997WAT     H115233   4.197   8.339   4.876
 4997WAT     H215234   4.342   8.264   4.882
 4998WAT      O15235   8.626   3.943   0.521
 4998WAT     H115236   8.528   3.925   0.509
 4998WAT     H215237   8.640   3.997   0.604
 4999WAT      O15238   5.879   5.307   7.036
 4999WAT     H115239   5.790   5.271   7.064
 4999WAT     H215240   5.913   5.369   7.107
 5000WAT      O15241   6.253   2.617   1.474
 5000WAT     H115242   6.316   2.644   1.402
 5000WAT     H215243   6.304   2.599   1.558
 5001WAT      O15244   7.565   8.947   1.042
 5001WAT     H115245   7.552   8.855   1.081
 5001WAT     H215246   7.649   8.986   1.078
 5002WAT      O15247   6.248   9.622   9.756
 5002WAT     H115248   6.294   9.704   9.790
 5002WAT     H215249   6.206   9.573   9.832
 5003WAT      O15250   2.174   2.662   2.729
 5003WAT     H115251   2.213   2.697   2.814
 5003WAT     H215252   2.156   2.738   2.667
 5004WAT      O15253   5.128   7.838   5.074
 5004WAT     H115254   5.075   7.781   5.011
 5004WAT     H215255   5.213   7.867   5.030
 5005WAT      O15256   0.035   2.254   4.935
 5005WAT     H115257  -0.054   2.299   4.922
 5005WAT     H215258   0.105   2.302   4.883
 5006WAT      O15259   8.862   1.385   4.604
 5006WAT     H115260   8.906   1.410   4.690
 5006WAT     H215261   8.809   1.463   4.569
 5007WAT      O15262   1.415   8.429   9.523
 5007WAT     H115263   1.483   8.395   9.588
 5007WAT     H215264   1.453   8.508   9.474
 5008WAT      O15265   6.211   0.945   6.605
 5008WAT     H115266   6.129   0.984   6.646
 5008WAT     H215267   6.188   0.902   6.518
 5009WAT      O15268   1.011   3.735   0.735
 5009WAT     H115269   0.917   3.705   0.719
 5009WAT     H215270   1.038   3.715   0.829
 5010WAT      O15271   3.496   4.966   7.192
 5010WAT     H115272   3.561   4.915   7.136
 5010WAT     H215273   3.478   5.054   7.149
 5011WAT      O15274   2.568   8.913   1.849
 5011WAT     H115275   2.644   8.960   1.804
 5011WAT     H215276   2.532   8.843   1.787
 5012WAT      O15277   7.937   1.607   6.677
 5012WAT     H115278   8.000   1.683   6.660
 5012WAT     H215279   7.939   1.545   6.598
 5013WAT      O15280   7.471   1.724   7.426
 5013WAT     H115281   7.408   1.684   7.493
 5013WAT     H215282   7.430   1.805   7.385
 5014WAT      O15283   0.317   9.475   0.330
 5014WAT     H115284   0.261   9.449   0.409
 5014WAT     H215285   0.265   9.536   0.271
 5015WAT      O15286   9.014   3.973   4.160
 5015WAT     H115287   9.113   3.989   4.160
 5015WAT     H215288   8.978   3.988   4.253
 5016WAT      O15289   4.205   4.155   7.324
 5016WAT     H115290   4.190   4.201   7.412
 5016WAT     H215291   4.275   4.084   7.334
 5017WAT      O15292   4.952   4.780   4.906
 5017WAT     H115293   4.953   4.873   4.870
 5017WAT     H215294   4.878   4.769   4.972
 5018WAT      O15295   3.931   8.056   2.402
 5018WAT     H115296   3.977   7.978   2.444
 5018WAT     H215297   3.933   8.134   2.466
 5019WAT      O15298   2.473   4.292   2.406
 5019WAT     H115299   2.524   4.327   2.327
 5019WAT     H215300   2.537   4.259   2.475
 5020WAT      O15301   6.319   7.946   9.540
 5020WAT     H115302   6.314   7.865   9.482
 5020WAT     H215303   6.398   8.002   9.512
 5021WAT      O15304   3.612   0.950   8.738
 5021WAT     H115305   3.576   0.984   8.825
 5021WAT     H215306   3.683   0.882   8.755
 5022WAT      O15307   8.877   7.015   5.780
 5022WAT     H115308   8.860   6.995   5.684
 5022WAT     H215309   8.961   6.969   5.810
 5023WAT      O15310   2.649   5.521   7.178
 5023WAT     H115311   2.551   5.535   7.168
 5023WAT     H215312   2.677   5.443   7.123
 5024WAT      O15313   3.434   3.891   9.542
 5024WAT     H115314   3.466   3.882   9.448
 5024WAT     H215315   3.489   3.831   9.602
 5025WAT      O15316   9.645   9.457   3.890
 5025WAT     H115317   9.551   9.429   3.909
 5025WAT     H215318   9.648   9.556   3.878
 5026WAT      O15319   5.977   2.601   0.372
 5026WAT     H115320   6.039   2.601   0.294
 5026WAT     H215321   5.920   2.519   0.370
 5027WAT      O15322   0.199   3.936   4.857
 5027WAT     H115323   0.225   3.947   4.953
 5027WAT     H215324   0.171   3.842   4.840
 5028WAT      O15325   5.272   8.493   0.360
 5028WAT     H115326   5.309   8.537   0.442
 5028WAT     H215327   5.328   8.413   0.337
 5029WAT      O15328   0.203   5.857   2.150
 5029WAT     H115329   0.280   5.794   2.150
 5029WAT     H215330   0.201   5.907   2.063
 5030WAT      O15331   8.233   9.293   1.716
 5030WAT     H115332   8.177   9.241   1.652
 5030WAT     H215333   8.197   9.281   1.809
 5031WAT      O15334   2.757   7.208   8.853
 5031WAT     H115335   2.848   7.243   8.873
 5031WAT     H215336   2.741   7.125   8.907
 5032WAT      O15337   5.451   8.722   2.707
 5032WAT     H115338   5.395   8.642   2.686
 5032WAT     H215339   5.400   8.805   2.685
 5033WAT      O15340   6.030   4.903   5.581
 5033WAT     H115341   5.954   4.964   5.561
 5033WAT     H215342   6.046   4.900   5.680
 5034WAT      O15343   4.432   5.318   8.442
 5034WAT     H115344   4.452   5.410   8.408
 5034WAT     H215345   4.393   5.324   8.534
 5035WAT      O15346   5.866   6.659   0.706
 5035WAT     H115347   5.874   6.560   0.716
 5035WAT     H215348   5.773   6.683   0.680
 5036WAT      O15349   3.354   6.131   0.880
 5036WAT     H115350   3.443   6.094   0.855
 5036WAT     H215351   3.303   6.155   0.797
 5037WAT      O15352   7.252   0.607   5.561
 5037WAT     H115353   7.157   0.616   5.532
 5037WAT     H215354   7.283   0.694   5.600
 5038WAT      O15355   2.205   7.618   2.372
 5038WAT     H115356   2.291   7.568   2.384
 5038WAT     H215357   2.173   7.607   2.278
 5039WAT      O15358   2.383   1.467   3.991
 5039WAT     H115359   2.394   1.376   4.031
 5039WAT     H215360   2.309   1.516   4.037
 5040WAT      O15361   7.075   2.727   0.792
 5040WAT     H115362   7.114   2.770   0.711
 5040WAT     H215363   7.127   2.645   0.815
 5041WAT      O15364   4.313   2.587   2.966
 5041WAT     H115365   4.243   2.574   3.037
 5041WAT     H215366   4.385   2.647   3.001
 5042WAT      O15367   1.720   2.438   0.276
 5042WAT     H115368   1.697   2.343   0.252
 5042WAT     H215369   1.667   2.501   0.218
 5043WAT      O15370   9.117   8.833   3.983
 5043WAT     H115371   9.066   8.919   3.992
 5043WAT     H215372   9.165   8.832   3.895
 5044WAT      O15373   4.442   6.139   2.128
 5044WAT     H115374   4.347   6.140   2.097
 5044WAT     H215375   4.452   6.074   2.203
 5045WAT      O15376   3.505   6.238   4.189
 5045WAT     H115377   3.463   6.263   4.102
 5045WAT     H215378   3.600   6.271   4.191
 5046WAT      O15379   9.645   6.528   5.416
 5046WAT     H115380   9.641   6.501   5.512
 5046WAT     H215381   9.731   6.495   5.376
 5047WAT      O15382   8.802   9.000   0.437
 5047WAT     H115383   8.857   8.942   0.377
 5047WAT     H215384   8.786   8.953   0.524
 5048WAT      O15385   8.085   2.963   8.523
 5048WAT     H115386   8.048   2.929   8.436
 5048WAT     H215387   8.131   3.051   8.507
 5049WAT      O15388   7.440   7.460   1.783
 5049WAT     H115389   7.495   7.432   1.704
 5049WAT     H215390   7.475   7.546   1.819
 5050WAT      O15391   5.254   3.623   4.409
 5050WAT     H115392   5.317   3.550   4.386
 5050WAT     H215393   5.167   3.584   4.441
 5051WAT      O15394   9.308   7.858   6.595
 5051WAT     H115395   9.346   7.894   6.510
 5051WAT     H215396   9.382   7.832   6.657
 5052WAT      O15397   5.460   9.170   5.623
 5052WAT     H115398   5.438   9.162   5.526
 5052WAT     H215399   5.558   9.155   5.636
 5053WAT      O15400   4.625   9.019   9.013
 5053WAT     H115401   4.679   9.058   8.939
 5053WAT     H215402   4.533   8.997   8.979
 5054WAT      O15403   5.073   4.876   5.719
 5054WAT     H115404   5.094   4.899   5.624
 5054WAT     H215405   4.974   4.870   5.731
 5055WAT      O15406   7.521   4.960   9.249
 5055WAT     H115407   7.479   4.922   9.332
 5055WAT     H215408   7.587   4.895   9.213
 5056WAT      O15409   9.041   2.405   2.615
 5056WAT     H115410   8.997   2.489   2.582
 5056WAT     H215411   9.103   2.427   2.691
 5057WAT      O15412   1.953   7.912   5.188
 5057WAT     H115413   1.995   7.918   5.098
 5057WAT     H215414   1.980   7.826   5.232
 5058WAT      O15415   2.091   2.503   8.608
 5058WAT     H115416   2.097   2.490   8.707
 5058WAT     H215417   2.036   2.585   8.589
 5059WAT      O15418   8.966   0.967   6.664
 5059WAT     H115419   8.958   1.038   6.594
 5059WAT     H215420   9.040   0.991   6.727
 5060WAT      O15421   1.304   4.446   7.437
 5060WAT     H115422   1.333   4.540   7.421
 5060WAT     H215423   1.237   4.420   7.367
 5061WAT      O15424   9.053   0.700   8.722
 5061WAT     H115425   8.990   0.765   8.679
 5061WAT     H215426   9.035   0.608   8.688
 5062WAT      O15427   2.634   0.187   1.244
 5062WAT     H115428   2.658   0.238   1.327
 5062WAT     H215429   2.593   0.250   1.178
 5063WAT      O15430   1.557   6.456   2.673
 5063WAT     H115431   1.478   6.419   2.722
 5063WAT     H215432   1.622   6.493   2.739
 5064WAT      O15433   9.426   0.402   0.336
 5064WAT     H115434   9.409   0.432   0.242
 5064WAT     H215435   9.515   0.436   0.366
 5065WAT      O15436   2.954   4.879   5.692
 5065WAT     H115437   2.977   4.963   5.642
 5065WAT     H215438   2.979   4.799   5.636
 5066WAT      O15439   2.025   2.631   3.421
 5066WAT     H115440   1.998   2.537   3.401
 5066WAT     H215441   1.944   2.689   3.426
 5067WAT      O15442   8.908   0.374   2.896
 5067WAT     H115443   8.816   0.361   2.857
 5067WAT     H215444   8.947   0.460   2.863
 5068WAT      O15445   0.781   7.429   8.524
 5068WAT     H115446   0.698   7.485   8.518
 5068WAT     H215447   0.784   7.368   8.445
 5069WAT      O15448   6.116   3.697   1.625
 5069WAT     H115449   6.068   3.782   1.602
 5069WAT     H215450   6.195   3.687   1.565
 5070WAT      O15451   9.312   4.713   5.772
 5070WAT     H115452   9.401   4.741   5.806
 5070WAT     H215453   9.240   4.757   5.826
 5071WAT      O15454   1.260   1.824   2.378
 5071WAT     H115455   1.262   1.862   2.285
 5071WAT     H215456   1.171   1.781   2.394
 5072WAT      O15457   4.577   3.310   3.700
 5072WAT     H115458   4.643   3.327   3.627
 5072WAT     H215459   4.543   3.397   3.736
 5073WAT      O15460   4.989   0.691   1.772
 5073WAT     H115461   4.890   0.692   1.786
 5073WAT     H215462   5.021   0.783   1.748
 5074WAT      O15463   3.540   1.748   4.109
 5074WAT     H115464   3.601   1.674   4.137
 5074WAT     H215465   3.455   1.743   4.163
 5075WAT      O15466   3.478   4.282   1.218
 5075WAT     H115467   3.496   4.202   1.275
 5075WAT     H215468   3.564   4.315   1.180
 5076WAT      O15469   6.223   2.610   8.025
 5076WAT     H115470   6.242   2.650   7.935
 5076WAT     H215471   6.216   2.684   8.093
 5077WAT      O15472   5.564   9.685   8.571
 5077WAT     H115473   5.528   9.644   8.486
 5077WAT     H215474   5.645   9.739   8.550
 5078WAT      O15475   8.855   0.210   3.769
 5078WAT     H115476   8.785   0.140   3.780
 5078WAT     H215477   8.815   0.300   3.790
 5079WAT      O15478   1.757   6.028   3.753
 5079WAT     H115479   1.761   6.119   3.710
 5079WAT     H215480   1.685   6.028   3.822
 5080WAT      O15481   6.313   4.466   7.616
 5080WAT     H115482   6.378   4.434   7.685
 5080WAT     H215483   6.338   4.559   7.588
 5081WAT      O15484   1.461   1.237   2.356
 5081WAT     H115485   1.411   1.168   2.409
 5081WAT     H215486   1.504   1.301   2.419
 5082WAT      O15487   6.820   4.313   6.449
 5082WAT     H115488   6.729   4.281   6.476
 5082WAT     H215489   6.811   4.401   6.401
 5083WAT      O15490   1.074   5.167   5.264
 5083WAT     H115491   1.008   5.176   5.339
 5083WAT     H215492   1.083   5.071   5.239
 5084WAT      O15493   5.477   2.364   5.800
 5084WAT     H115494   5.380   2.342   5.802
 5084WAT     H215495   5.513   2.366   5.894
 5085WAT      O15496   6.402   0.035   3.342
 5085WAT     H115497   6.396  -0.043   3.404
 5085WAT     H215498   6.323   0.036   3.281
 5086WAT      O15499   7.662   4.568   4.303
 5086WAT     H115500   7.749   4.524   4.278
 5086WAT     H215501   7.595   4.498   4.325
 5087WAT      O15502   0.174   6.260   7.762
 5087WAT     H115503   0.144   6.247   7.667
 5087WAT     H215504   0.151   6.353   7.791
 5088WAT      O15505   9.546   7.022   8.969
 5088WAT     H115506   9.531   6.931   9.009
 5088WAT     H215507   9.575   7.013   8.874
 5089WAT      O15508   9.717   6.768   5.060
 5089WAT     H115509   9.810   6.733   5.066
 5089WAT     H215510   9.682   6.755   4.968
 5090WAT      O15511   8.956   6.211   0.478
 5090WAT     H115512   8.890   6.187   0.407
 5090WAT     H215513   8.908   6.235   0.562
 5091WAT      O15514   0.726   9.405   1.323
 5091WAT     H115515   0.734   9.319   1.272
 5091WAT     H215516   0.808   9.461   1.306
 5092WAT      O15517   9.492   2.016   5.989
 5092WAT     H115518   9.488   1.937   5.928
 5092WAT     H215519   9.541   2.091   5.944
 5093WAT      O15520   4.250   9.621   0.826
 5093WAT     H115521   4.344   9.591   0.809
 5093WAT     H215522   4.198   9.616   0.741
 5094WAT      O15523   4.870   0.224   5.630
 5094WAT     H115524   4.836   0.140   5.673
 5094WAT     H215525   4.962   0.243   5.663
 5095WAT      O15526   4.758   2.267   0.951
 5095WAT     H115527   4.743   2.206   1.029
 5095WAT     H215528   4.846   2.314   0.962
 5096WAT      O15529   0.098   4.033   8.204
 5096WAT     H115530   0.051   3.972   8.140
 5096WAT     H215531   0.032   4.097   8.244
 5097WAT      O15532   6.194   3.688   2.933
 5097WAT     H115533   6.116   3.690   2.996
 5097WAT     H215534   6.247   3.604   2.947
 5098WAT      O15535   4.283   8.077   3.203
 5098WAT     H115536   4.327   8.071   3.293
 5098WAT     H215537   4.245   8.169   3.191
 5099WAT      O15538   8.553   4.856   8.748
 5099WAT     H115539   8.462   4.823   8.721
 5099WAT     H215540   8.606   4.876   8.666
 5100WAT      O15541   4.942   0.165   7.015
 5100WAT     H115542   4.877   0.088   7.021
 5100WAT     H215543   4.895   0.244   6.977
 5101WAT      O15544   7.995   5.101   1.738
 5101WAT     H115545   7.993   5.034   1.664
 5101WAT     H215546   7.990   5.193   1.699
 5102WAT      O15547   8.638   0.046   3.790
 5102WAT     H115548   8.632   0.041   3.691
 5102WAT     H215549   8.651  -0.045   3.828
 5103WAT      O15550   2.572   8.717   7.682
 5103WAT     H115551   2.546   8.659   7.604
 5103WAT     H215552   2.614   8.660   7.753
 5104WAT      O15553   4.110   7.824   9.746
 5104WAT     H115554   4.093   7.766   9.666
 5104WAT     H215555   4.145   7.767   9.821
 5105WAT      O15556   6.738   4.713   0.227
 5105WAT     H115557   6.831   4.732   0.258
 5105WAT     H215558   6.705   4.789   0.172
 5106WAT      O15559   7.617   1.530   0.100
 5106WAT     H115560   7.553   1.595   0.059
 5106WAT     H215561   7.710   1.551   0.068
 5107WAT      O15562   1.596   5.031   0.664
 5107WAT     H115563   1.513   5.009   0.612
 5107WAT     H215564   1.660   4.955   0.657
 5108WAT      O15565   8.828   3.793   8.174
 5108WAT     H115566   8.849   3.840   8.260
 5108WAT     H215567   8.754   3.728   8.188
 5109WAT      O15568   6.943   3.107   8.398
 5109WAT     H115569   6.902   3.192   8.430
 5109WAT     H215570   7.040   3.105   8.422
 5110WAT      O15571   4.711   7.372   1.288
 5110WAT     H115572   4.774   7.333   1.355
 5110WAT     H215573   4.745   7.462   1.259
 5111WAT      O15574   3.700   2.872   8.078
 5111WAT     H115575   3.655   2.830   7.999
 5111WAT     H215576   3.735   2.962   8.053
 5112WAT      O15577   4.830   3.052   7.965
 5112WAT     H115578   4.844   3.105   7.882
 5112WAT     H215579   4.738   3.012   7.964
 5113WAT      O15580   3.484   1.378   8.135
 5113WAT     H115581   3.431   1.420   8.209
 5113WAT     H215582   3.495   1.444   8.060
 5114WAT      O15583   9.405   5.418   0.489
 5114WAT     H115584   9.353   5.484   0.434
 5114WAT     H215585   9.348   5.338   0.507
 5115WAT      O15586   8.937   5.016   8.462
 5115WAT     H115587   8.996   4.964   8.401
 5115WAT     H215588   8.983   5.101   8.488
 5116WAT      O15589   5.981   1.268   9.496
 5116WAT     H115590   6.044   1.310   9.431
 5116WAT     H215591   6.031   1.241   9.578
 5117WAT      O15592   1.062   0.605   8.154
 5117WAT     H115593   0.976   0.601   8.205
 5117WAT     H215594   1.122   0.674   8.194
 5118WAT      O15595   7.907   3.433   9.033
 5118WAT     H115596   7.835   3.483   9.082
 5118WAT     H215597   7.876   3.340   9.014
 5119WAT      O15598   5.101   0.078   4.299
 5119WAT     H115599   5.130  -0.014   4.326
 5119WAT     H215600   5.158   0.146   4.345
 5120WAT      O15601   1.331   0.412   9.431
 5120WAT     H115602   1.389   0.377   9.505
 5120WAT     H215603   1.274   0.486   9.466
 5121WAT      O15604   1.938   3.838   5.786
 5121WAT     H115605   2.017   3.784   5.757
 5121WAT     H215606   1.862   3.777   5.809
 5122WAT      O15607   5.027   3.906   7.018
 5122WAT     H115608   4.943   3.942   7.060
 5122WAT     H215609   5.014   3.809   6.998
 5123WAT      O15610   5.758   6.168   7.935
 5123WAT     H115611   5.682   6.223   7.967
 5123WAT     H215612   5.813   6.138   8.013
 5124WAT      O15613   8.369   6.777   0.181
 5124WAT     H115614   8.455   6.788   0.131
 5124WAT     H215615   8.375   6.697   0.240
 5125WAT      O15616   7.327   3.833   2.386
 5125WAT     H115617   7.229   3.825   2.367
 5125WAT     H215618   7.378   3.816   2.302
 5126WAT      O15619   6.452   5.260   9.245
 5126WAT     H115620   6.400   5.193   9.193
 5126WAT     H215621   6.550   5.248   9.226
 5127WAT      O15622   7.416   4.680   8.952
 5127WAT     H115623   7.384   4.661   8.859
 5127WAT     H215624   7.396   4.601   9.011
 5128WAT      O15625   5.327   7.382   0.494
 5128WAT     H115626   5.322   7.284   0.479
 5128WAT     H215627   5.383   7.424   0.423
 5129WAT      O15628   4.862   9.228   5.847
 5129WAT     H115629   4.953   9.194   5.872
 5129WAT     H215630   4.871   9.296   5.774
 5130WAT      O15631   8.552   0.725   1.235
 5130WAT     H115632   8.459   0.759   1.221
 5130WAT     H215633   8.571   0.720   1.333
 5131WAT      O15634   5.327   8.165   2.573
 5131WAT     H115635   5.338   8.094   2.504
 5131WAT     H215636   5.373   8.248   2.544
 5132WAT      O15637   3.585   9.692   2.856
 5132WAT     H115638   3.535   9.649   2.781
 5132WAT     H215639   3.672   9.729   2.821
 5133WAT      O15640   1.241   8.507   9.306
 5133WAT     H115641   1.328   8.554   9.323
 5133WAT     H215642   1.259   8.414   9.275
 5134WAT      O15643   0.073   4.431   3.119
 5134WAT     H115644   0.112   4.455   3.208
 5134WAT     H215645  -0.004   4.492   3.099
 5135WAT      O15646   0.951   7.645   2.494
 5135WAT     H115647   0.926   7.665   2.589
 5135WAT     H215648   0.870   7.654   2.436
 5136WAT      O15649   9.694   8.457   7.926
 5136WAT     H115650   9.653   8.469   7.835
 5136WAT     H215651   9.793   8.452   7.917
 5137WAT      O15652   6.171   5.777   2.389
 5137WAT     H115653   6.268   5.773   2.412
 5137WAT     H215654   6.121   5.816   2.466
 5138WAT      O15655   7.837   2.343   0.979
 5138WAT     H115656   7.751   2.393   0.986
 5138WAT     H215657   7.818   2.245   0.970
 5139WAT      O15658   5.709   6.053   5.666
 5139WAT     H115659   5.785   6.053   5.601
 5139WAT     H215660   5.680   5.959   5.684
 5140WAT      O15661   8.250   2.019   0.588
 5140WAT     H115662   8.162   1.975   0.608
 5140WAT     H215663   8.300   1.965   0.521
 5141WAT      O15664   3.770   1.217   5.581
 5141WAT     H115665   3.821   1.289   5.629
 5141WAT     H215666   3.834   1.149   5.546
 5142WAT      O15667   3.473   0.750   0.177
 5142WAT     H115668   3.557   0.774   0.224
 5142WAT     H215669   3.490   0.746   0.078
 5143WAT      O15670   5.450   8.321   3.465
 5143WAT     H115671   5.403   8.400   3.426
 5143WAT     H215672   5.475   8.341   3.560
 5144WAT      O15673   5.778   9.561   2.521
 5144WAT     H115674   5.873   9.575   2.493
 5144WAT     H215675   5.717   9.586   2.446
 5145WAT      O15676   5.805   9.800   3.986
 5145WAT     H115677   5.895   9.839   4.006
 5145WAT     H215678   5.747   9.869   3.943
 5146WAT      O15679   6.099   8.977   2.497
 5146WAT     H115680   6.063   9.065   2.529
 5146WAT     H215681   6.198   8.976   2.506
 5147WAT      O15682   1.676   4.064   7.004
 5147WAT     H115683   1.673   4.103   7.097
 5147WAT     H215684   1.694   3.966   7.010
 5148WAT      O15685   6.842   3.989   7.232
 5148WAT     H115686   6.898   3.908   7.245
 5148WAT     H215687   6.800   3.988   7.141
 5149WAT      O15688   7.181   6.285   6.730
 5149WAT     H115689   7.236   6.244   6.657
 5149WAT     H215690   7.117   6.351   6.690
 5150WAT      O15691   4.053   6.641   9.097
 5150WAT     H115692   4.119   6.614   9.027
 5150WAT     H215693   4.025   6.560   9.149
 5151WAT      O15694   8.743   9.276   0.620
 5151WAT     H115695   8.732   9.365   0.666
 5151WAT     H215696   8.786   9.290   0.531
 5152WAT      O15697   5.580   0.983   6.375
 5152WAT     H115698   5.533   0.916   6.317
 5152WAT     H215699   5.530   1.069   6.374
 5153WAT      O15700   6.947   9.720   3.935
 5153WAT     H115701   6.929   9.756   3.844
 5153WAT     H215702   7.046   9.719   3.952
 5154WAT      O15703   0.461   4.384   3.540
 5154WAT     H115704   0.522   4.378   3.619
 5154WAT     H215705   0.498   4.329   3.465
 5155WAT      O15706   2.134   5.156   7.296
 5155WAT     H115707   2.113   5.077   7.238
 5155WAT     H215708   2.115   5.133   7.392
 5156WAT      O15709   7.010   0.384   9.051
 5156WAT     H115710   6.948   0.440   8.995
 5156WAT     H215711   6.956   0.328   9.115
 5157WAT      O15712   3.994   7.671   6.762
 5157WAT     H115713   3.898   7.652   6.740
 5157WAT     H215714   4.032   7.735   6.695
 5158WAT      O15715   8.798   8.274   5.135
 5158WAT     H115716   8.755   8.240   5.219
 5158WAT     H215717   8.848   8.358   5.156
 5159WAT      O15718   3.046   1.211   2.385
 5159WAT     H115719   3.081   1.302   2.362
 5159WAT     H215720   3.043   1.201   2.485
 5160WAT      O15721   2.360   4.780   8.098
 5160WAT     H115722   2.394   4.832   8.177
 5160WAT     H215723   2.373   4.683   8.114
 5161WAT      O15724   4.975   7.437   4.412
 5161WAT     H115725   5.060   7.413   4.459
 5161WAT     H215726   4.897   7.398   4.461
 5162WAT      O15727   7.554   7.764   6.071
 5162WAT     H115728   7.550   7.715   6.158
 5162WAT     H215729   7.465   7.759   6.025
 5163WAT      O15730   6.931   3.182   8.683
 5163WAT     H115731   6.870   3.255   8.652
 5163WAT     H215732   7.026   3.209   8.667
 5164WAT      O15733   4.485   2.129   2.195
 5164WAT     H115734   4.429   2.150   2.115
 5164WAT     H215735   4.577   2.166   2.182
 5165WAT      O15736   1.346   1.822   3.830
 5165WAT     H115737   1.377   1.894   3.892
 5165WAT     H215738   1.423   1.760   3.812
 5166WAT      O15739   2.896   5.537   8.239
 5166WAT     H115740   2.837   5.618   8.245
 5166WAT     H215741   2.875   5.488   8.154
 5167WAT      O15742   5.491   7.254   6.375
 5167WAT     H115743   5.459   7.162   6.354
 5167WAT     H215744   5.558   7.251   6.449
 5168WAT      O15745   0.836   3.991   7.097
 5168WAT     H115746   0.826   4.016   7.193
 5168WAT     H215747   0.859   3.894   7.090
 5169WAT      O15748   4.877   4.907   4.112
 5169WAT     H115749   4.951   4.891   4.047
 5169WAT     H215750   4.790   4.916   4.063
 5170WAT      O15751   0.149   6.433   9.094
 5170WAT     H115752   0.248   6.423   9.102
 5170WAT     H215753   0.104   6.382   9.167
 5171WAT      O15754   6.043   1.115   9.097
 5171WAT     H115755   5.952   1.077   9.117
 5171WAT     H215756   6.110   1.041   9.097
 5172WAT      O15757   8.919   5.167   6.833
 5172WAT     H115758   8.977   5.247   6.816
 5172WAT     H215759   8.824   5.189   6.811
 5173WAT      O15760   7.884   0.610   8.570
 5173WAT     H115761   7.908   0.693   8.621
 5173WAT     H215762   7.817   0.634   8.499
 5174WAT      O15763   7.586   5.433   4.810
 5174WAT     H115764   7.632   5.446   4.898
 5174WAT     H215765   7.644   5.470   4.737
 5175WAT      O15766   3.596   9.141   1.457
 5175WAT     H115767   3.514   9.097   1.495
 5175WAT     H215768   3.600   9.123   1.358
 5176WAT      O15769   1.410   5.555   6.744
 5176WAT     H115770   1.377   5.591   6.832
 5176WAT     H215771   1.504   5.522   6.755
 5177WAT      O15772   5.307   3.239   5.685
 5177WAT     H115773   5.275   3.266   5.775
 5177WAT     H215774   5.358   3.152   5.692
 5178WAT      O15775   3.434   1.180   7.785
 5178WAT     H115776   3.517   1.145   7.830
 5178WAT     H215777   3.455   1.268   7.741
 5179WAT      O15778   1.761   7.343   9.832
 5179WAT     H115779   1.681   7.289   9.807
 5179WAT     H215780   1.764   7.354   9.931
 5180WAT      O15781   8.643   7.677   6.151
 5180WAT     H115782   8.692   7.694   6.065
 5180WAT     H215783   8.651   7.580   6.175
 5181WAT      O15784   4.625   9.465   1.402
 5181WAT     H115785   4.537   9.460   1.448
 5181WAT     H215786   4.696   9.488   1.469
 5182WAT      O15787   1.379   2.868   6.222
 5182WAT     H115788   1.368   2.769   6.219
 5182WAT     H215789   1.333   2.905   6.302
 5183WAT      O15790   1.190   7.103   5.370
 5183WAT     H115791   1.270   7.159   5.391
 5183WAT     H215792   1.111   7.162   5.357
 5184WAT      O15793   8.049   2.671   2.409
 5184WAT     H115794   8.094   2.698   2.494
 5184WAT     H215795   8.112   2.684   2.332
 5185WAT      O15796   6.052   8.057   4.023
 5185WAT     H115797   6.033   8.151   3.994
 5185WAT     H215798   6.149   8.037   4.010
 5186WAT      O15799   3.178   4.260   5.865
 5186WAT     H115800   3.264   4.209   5.856
 5186WAT     H215801   3.102   4.196   5.869
 5187WAT      O15802   7.628   5.602   0.639
 5187WAT     H115803   7.631   5.660   0.558
 5187WAT     H215804   7.541   5.552   0.642
 5188WAT      O15805   9.452   5.083   8.852
 5188WAT     H115806   9.371   5.129   8.888
 5188WAT     H215807   9.526   5.149   8.841
 5189WAT      O15808   5.056   7.999   2.494
 5189WAT     H115809   5.096   8.057   2.565
 5189WAT     H215810   5.012   8.056   2.425
 5190WAT      O15811   6.489   7.717   6.383
 5190WAT     H115812   6.470   7.704   6.481
 5190WAT     H215813   6.585   7.741   6.371
 5191WAT      O15814   6.760   8.595   0.024
 5191WAT     H115815   6.800   8.552   0.105
 5191WAT     H215816   6.667   8.561   0.011
 5192WAT      O15817   5.801   1.737   1.804
 5192WAT     H115818   5.801   1.783   1.893
 5192WAT     H215819   5.793   1.806   1.732
 5193WAT      O15820   9.648   9.011   1.734
 5193WAT     H115821   9.668   8.930   1.789
 5193WAT     H215822   9.696   9.005   1.647
 5194WAT      O15823   3.942   4.367   5.019
 5194WAT     H115824   3.960   4.346   4.923
 5194WAT     H215825   3.866   4.311   5.052
 5195WAT      O15826   0.480   5.184   0.694
 5195WAT     H115827   0.477   5.094   0.651
 5195WAT     H215828   0.393   5.203   0.739
 5196WAT      O15829   5.718   0.428   8.230
 5196WAT     H115830   5.728   0.336   8.192
 5196WAT     H215831   5.623   0.456   8.224
 5197WAT      O15832   3.688   9.615   4.969
 5197WAT     H115833   3.748   9.543   5.005
 5197WAT     H215834   3.729   9.655   4.887
 5198WAT      O15835   4.306   5.895   8.672
 5198WAT     H115836   4.402   5.924   8.676
 5198WAT     H215837   4.264   5.931   8.588
 5199WAT      O15838   1.943   6.086   8.532
 5199WAT     H115839   1.910   6.174   8.499
 5199WAT     H215840   2.019   6.054   8.474
 5200WAT      O15841   5.672   1.383   9.472
 5200WAT     H115842   5.598   1.334   9.519
 5200WAT     H215843   5.633   1.445   9.405
 5201WAT      O15844   0.567   8.769   3.158
 5201WAT     H115845   0.633   8.813   3.219
 5201WAT     H215846   0.589   8.672   3.149
 5202WAT      O15847   8.271   4.498   5.157
 5202WAT     H115848   8.227   4.573   5.109
 5202WAT     H215849   8.354   4.471   5.108
 5203WAT      O15850   4.659   4.023   9.398
 5203WAT     H115851   4.600   4.017   9.479
 5203WAT     H215852   4.602   4.035   9.317
 5204WAT      O15853   5.177   7.606   1.507
 5204WAT     H115854   5.206   7.511   1.502
 5204WAT     H215855   5.123   7.620   1.590
 5205WAT      O15856   4.330   5.148   3.002
 5205WAT     H115857   4.407   5.102   3.047
 5205WAT     H215858   4.364   5.208   2.930
 5206WAT      O15859   9.471   5.362   6.328
 5206WAT     H115860   9.505   5.417   6.404
 5206WAT     H215861   9.549   5.321   6.280
 5207WAT      O15862   9.877   5.895   3.712
 5207WAT     H115863   9.883   5.967   3.782
 5207WAT     H215864   9.936   5.919   3.635
 5208WAT      O15865   1.142   7.352   8.505
 5208WAT     H115866   1.119   7.281   8.437
 5208WAT     H215867   1.095   7.331   8.591
 5209WAT      O15868   5.434   4.919   7.417
 5209WAT     H115869   5.412   4.847   7.483
 5209WAT     H215870   5.506   4.886   7.356
 5210WAT      O15871   0.489   7.417   2.697
 5210WAT     H115872   0.587   7.406   2.677
 5210WAT     H215873   0.438   7.420   2.612
 5211WAT      O15874   7.453   6.694   3.485
 5211WAT     H115875   7.471   6.715   3.581
 5211WAT     H215876   7.355   6.703   3.468
 5212WAT      O15877   2.388   8.218   9.040
 5212WAT     H115878   2.481   8.228   9.075
 5212WAT     H215879   2.361   8.301   8.991
 5213WAT      O15880   6.994   2.192   5.647
 5213WAT     H115881   6.943   2.129   5.589
 5213WAT     H215882   6.989   2.160   5.742
 5214WAT      O15883   8.947   2.481   0.012
 5214WAT     H115884   8.898   2.394   0.008
 5214WAT     H215885   8.960   2.508   0.107
 5215WAT      O15886   5.876   1.480   7.556
 5215WAT     H115887   5.972   1.455   7.547
 5215WAT     H215888   5.848   1.471   7.652
 5216WAT      O15889   3.102   6.335   8.298
 5216WAT     H115890   3.188   6.296   8.332
 5216WAT     H215891   3.041   6.261   8.270
 5217WAT      O15892   1.728   5.625   5.782
 5217WAT     H115893   1.818   5.608   5.740
 5217WAT     H215894   1.687   5.705   5.740
 5218WAT      O15895   4.273   3.055   8.703
 5218WAT     H115896   4.211   2.982   8.734
 5218WAT     H215897   4.224   3.142   8.703
 5219WAT      O15898   9.690   9.532   3.072
 5219WAT     H115899   9.726   9.481   2.994
 5219WAT     H215900   9.717   9.628   3.064
 5220WAT      O15901   9.623   3.350   7.039
 5220WAT     H115902   9.717   3.374   7.014
 5220WAT     H215903   9.561   3.376   6.965
 5221WAT      O15904   4.134   0.188   9.694
 5221WAT     H115905   4.174   0.265   9.643
 5221WAT     H215906   4.037   0.204   9.708
 5222WAT      O15907   6.762   5.947   2.974
 5222WAT     H115908   6.742   5.849   2.972
 5222WAT     H215909   6.861   5.961   2.972
 5223WAT      O15910   4.137   3.884   4.096
 5223WAT     H115911   4.060   3.948   4.087
 5223WAT     H215912   4.169   3.883   4.191
 5224WAT      O15913   7.230   3.053   9.288
 5224WAT     H115914   7.137   3.022   9.308
 5224WAT     H215915   7.292   3.018   9.358
 5225WAT      O15916   8.906   8.312   9.476
 5225WAT     H115917   8.930   8.266   9.561
 5225WAT     H215918   8.814   8.351   9.484
 5226WAT      O15919   0.611   7.768   3.017
 5226WAT     H115920   0.652   7.828   2.947
 5226WAT     H215921   0.681   7.743   3.084
 5227WAT      O15922   5.296   7.470   2.175
 5227WAT     H115923   5.217   7.481   2.114
 5227WAT     H215924   5.316   7.373   2.186
 5228WAT      O15925   3.573   4.863   0.664
 5228WAT     H115926   3.632   4.788   0.693
 5228WAT     H215927   3.602   4.895   0.574
 5229WAT      O15928   7.505   5.511   5.686
 5229WAT     H115929   7.446   5.457   5.744
 5229WAT     H215930   7.463   5.600   5.668
 5230WAT      O15931   5.053   8.760   9.676
 5230WAT     H115932   5.094   8.670   9.661
 5230WAT     H215933   5.011   8.763   9.767
 5231WAT      O15934   6.284   8.489   4.751
 5231WAT     H115935   6.242   8.460   4.664
 5231WAT     H215936   6.342   8.568   4.734
 5232WAT      O15937   7.303   7.762   9.769
 5232WAT     H115938   7.237   7.711   9.714
 5232WAT     H215939   7.394   7.756   9.727
 5233WAT      O15940   5.450   9.584   4.304
 5233WAT     H115941   5.430   9.621   4.213
 5233WAT     H215942   5.543   9.608   4.330
 5234WAT      O15943   7.544   7.806   4.049
 5234WAT     H115944   7.625   7.747   4.046
 5234WAT     H215945   7.565   7.887   4.103
 5235WAT      O15946   3.926   2.516   7.142
 5235WAT     H115947   3.946   2.491   7.047
 5235WAT     H215948   3.953   2.611   7.158
 5236WAT      O15949   1.037   1.632   6.828
 5236WAT     H115950   1.131   1.626   6.795
 5236WAT     H215951   0.998   1.540   6.836
 5237WAT      O15952   1.211   3.475   0.150
 5237WAT     H115953   1.169   3.411   0.086
 5237WAT     H215954   1.261   3.424   0.220
 5238WAT      O15955   4.449   4.978   8.799
 5238WAT     H115956   4.486   4.894   8.839
 5238WAT     H215957   4.518   5.020   8.741
 5239WAT      O15958   2.184   9.513   6.609
 5239WAT     H115959   2.199   9.603   6.649
 5239WAT     H215960   2.191   9.443   6.680
 5240WAT      O15961   2.102   6.655   4.832
 5240WAT     H115962   2.097   6.570   4.884
 5240WAT     H215963   2.159   6.722   4.880
 5241WAT      O15964   6.946   7.677   3.077
 5241WAT     H115965   7.003   7.752   3.042
 5241WAT     H215966   6.850   7.695   3.055
 5242WAT      O15967   8.287   8.698   7.437
 5242WAT     H115968   8.338   8.686   7.352
 5242WAT     H215969   8.278   8.610   7.484
 5243WAT      O15970   1.388   0.411   5.331
 5243WAT     H115971   1.335   0.371   5.256
 5243WAT     H215972   1.465   0.463   5.293
 5244WAT      O15973   3.693   1.986   5.014
 5244WAT     H115974   3.671   1.896   5.052
 5244WAT     H215975   3.624   2.052   5.045
 5245WAT      O15976   3.174   5.144   9.463
 5245WAT     H115977   3.146   5.228   9.511
 5245WAT     H215978   3.110   5.071   9.484
 5246WAT      O15979   5.199   1.694   7.291
 5246WAT     H115980   5.208   1.621   7.224
 5246WAT     H215981   5.255   1.772   7.263
 5247WAT      O15982   3.639   5.346   4.478
 5247WAT     H115983   3.699   5.412   4.434
 5247WAT     H215984   3.546   5.381   4.479
 5248WAT      O15985   5.090   9.299   5.517
 5248WAT     H115986   5.189   9.310   5.523
 5248WAT     H215987   5.067   9.202   5.524
 5249WAT      O15988   4.774   7.987   1.969
 5249WAT     H115989   4.773   7.892   2.000
 5249WAT     H215990   4.830   7.995   1.886
 5250WAT      O15991   5.402   8.347   6.434
 5250WAT     H115992   5.346   8.265   6.425
 5250WAT     H215993   5.347   8.421   6.474
 5251WAT      O15994   3.751   4.639   8.260
 5251WAT     H115995   3.836   4.595   8.232
 5251WAT     H215996   3.679   4.571   8.267
 5252WAT      O15997   8.683   1.823   2.710
 5252WAT     H115998   8.716   1.763   2.636
 5252WAT     H215999   8.713   1.916   2.692
 5253WAT      O16000   6.921   9.392   2.311
 5253WAT     H116001   6.885   9.434   2.395
 5253WAT     H216002   6.960   9.302   2.333
 5254WAT      O16003   9.205   4.330   5.802
 5254WAT     H116004   9.267   4.256   5.774
 5254WAT     H216005   9.257   4.402   5.848
 5255WAT      O16006   3.775   0.570   3.931
 5255WAT     H116007   3.829   0.505   3.986
 5255WAT     H216008   3.827   0.594   3.849
 5256WAT      O16009   8.967   0.697   6.794
 5256WAT     H116010   8.948   0.648   6.709
 5256WAT     H216011   8.954   0.795   6.780
 5257WAT      O16012   6.640   5.944   2.385
 5257WAT     H116013   6.683   5.870   2.332
 5257WAT     H216014   6.557   5.909   2.427
 5258WAT      O16015   4.882   7.354   6.168
 5258WAT     H116016   4.933   7.326   6.250
 5258WAT     H216017   4.902   7.290   6.094
 5259WAT      O16018   7.668   1.821   2.782
 5259WAT     H116019   7.687   1.871   2.698
 5259WAT     H216020   7.727   1.855   2.855
 5260WAT      O16021   8.083   4.403   1.919
 5260WAT     H116022   8.133   4.317   1.931
 5260WAT     H216023   8.020   4.416   1.995
 5261WAT      O16024   1.084   9.492   0.108
 5261WAT     H116025   1.008   9.450   0.059
 5261WAT     H216026   1.051   9.531   0.194
 5262WAT      O16027   2.884   5.605   6.955
 5262WAT     H116028   2.942   5.600   6.873
 5262WAT     H216029   2.895   5.695   6.997
 5263WAT      O16030   3.454   5.801   2.104
 5263WAT     H116031   3.469   5.816   2.006
 5263WAT     H216032   3.395   5.874   2.140
 5264WAT      O16033   7.884   2.209   2.128
 5264WAT     H116034   7.890   2.222   2.029
 5264WAT     H216035   7.854   2.294   2.171
 5265WAT      O16036   4.358   8.616   4.026
 5265WAT     H116037   4.457   8.622   4.025
 5265WAT     H216038   4.330   8.521   4.017
 5266WAT      O16039   2.996   8.304   1.263
 5266WAT     H116040   3.020   8.385   1.209
 5266WAT     H216041   3.060   8.230   1.241
 5267WAT      O16042   6.595   5.373   8.074
 5267WAT     H116043   6.578   5.356   8.171
 5267WAT     H216044   6.591   5.287   8.023
 5268WAT      O16045   5.938   9.242   5.815
 5268WAT     H116046   5.922   9.197   5.903
 5268WAT     H216047   5.898   9.333   5.816
 5269WAT      O16048   9.667   8.593   8.195
 5269WAT     H116049   9.666   8.692   8.202
 5269WAT     H216050   9.681   8.566   8.099
 5270WAT      O16051   8.470   7.876   7.882
 5270WAT     H116052   8.552   7.886   7.827
 5270WAT     H216053   8.447   7.779   7.893
 5271WAT      O16054   1.709   1.579   9.866
 5271WAT     H116055   1.704   1.537   9.957
 5271WAT     H216056   1.682   1.675   9.871
 5272WAT      O16057   1.682   1.054   5.052
 5272WAT     H116058   1.781   1.042   5.043
 5272WAT     H216059   1.663   1.141   5.097
 5273WAT      O16060   4.357   2.423   0.151
 5273WAT     H116061   4.304   2.339   0.140
 5273WAT     H216062   4.453   2.400   0.167
 5274WAT      O16063   1.429   9.563   2.881
 5274WAT     H116064   1.444   9.471   2.845
 5274WAT     H216065   1.417   9.627   2.805
 5275WAT      O16066   1.539   1.841   7.694
 5275WAT     H116067   1.561   1.832   7.597
 5275WAT     H216068   1.509   1.934   7.713
 5276WAT      O16069   5.724   5.452   9.319
 5276WAT     H116070   5.754   5.414   9.406
 5276WAT     H216071   5.790   5.429   9.247
 5277WAT      O16072   2.084   3.520   8.835
 5277WAT     H116073   2.010   3.453   8.835
 5277WAT     H216074   2.109   3.543   8.929
 5278WAT      O16075   1.133   1.021   7.001
 5278WAT     H116076   1.167   0.959   7.072
 5278WAT     H216077   1.187   1.009   6.918
 5279WAT      O16078   5.591   8.005   5.055
 5279WAT     H116079   5.623   8.039   5.143
 5279WAT     H216080   5.648   8.043   4.982
 5280WAT      O16081   4.965   5.880   5.248
 5280WAT     H116082   5.058   5.843   5.251
 5280WAT     H216083   4.907   5.829   5.312
 5281WAT      O16084   3.784   3.569   7.071
 5281WAT     H116085   3.875   3.607   7.056
 5281WAT     H216086   3.736   3.563   6.983
 5282WAT      O16087   4.815   4.015   6.709
 5282WAT     H116088   4.878   4.001   6.785
 5282WAT     H216089   4.724   4.038   6.743
 5283WAT      O16090   8.149   2.178   5.696
 5283WAT     H116091   8.064   2.126   5.687
 5283WAT     H216092   8.204   2.138   5.770
 5284WAT      O16093   1.177   4.861   0.731
 5284WAT     H116094   1.177   4.943   0.674
 5284WAT     H216095   1.188   4.780   0.674
 5285WAT      O16096   7.319   3.973   7.924
 5285WAT     H116097   7.351   3.974   7.830
 5285WAT     H216098   7.349   4.056   7.971
 5286WAT      O16099   3.613   7.227   2.504
 5286WAT     H116100   3.711   7.212   2.488
 5286WAT     H216101   3.589   7.321   2.478
 5287WAT      O16102   4.991   4.225   3.402
 5287WAT     H116103   5.082   4.256   3.373
 5287WAT     H216104   4.929   4.225   3.323
 5288WAT      O16105   8.541   6.707   1.004
 5288WAT     H116106   8.490   6.622   0.990
 5288WAT     H216107   8.599   6.725   0.925
 5289WAT      O16108   9.436   4.779   4.569
 5289WAT     H116109   9.444   4.813   4.475
 5289WAT     H216110   9.496   4.700   4.581
 5290WAT      O16111   5.713   4.976   6.523
 5290WAT     H116112   5.757   4.934   6.602
 5290WAT     H216113   5.656   5.052   6.554
 5291WAT      O16114   2.136   1.363   3.637
 5291WAT     H116115   2.061   1.393   3.578
 5291WAT     H216116   2.187   1.442   3.670
 5292WAT      O16117   0.807   6.192   0.081
 5292WAT     H116118   0.764   6.192   0.172
 5292WAT     H216119   0.746   6.238   0.016
 5293WAT      O16120   8.752   1.729   1.460
 5293WAT     H116121   8.800   1.806   1.417
 5293WAT     H216122   8.654   1.744   1.455
 5294WAT      O16123   9.379   7.155   0.382
 5294WAT     H116124   9.370   7.105   0.469
 5294WAT     H216125   9.293   7.148   0.331
 5295WAT      O16126   3.968   5.711   4.011
 5295WAT     H116127   3.944   5.781   3.944
 5295WAT     H216128   3.898   5.640   4.011
 5296WAT      O16129   5.617   5.478   8.379
 5296WAT     H116130   5.624   5.455   8.475
 5296WAT     H216131   5.546   5.422   8.336
 5297WAT      O16132   8.555   7.308   4.740
 5297WAT     H116133   8.581   7.400   4.769
 5297WAT     H216134   8.509   7.260   4.815
 5298WAT      O16135   2.711   4.629   9.311
 5298WAT     H116136   2.680   4.600   9.402
 5298WAT     H216137   2.639   4.610   9.244
 5299WAT      O16138   0.394   6.935   1.737
 5299WAT     H116139   0.398   6.837   1.760
 5299WAT     H216140   0.487   6.971   1.729
 5300WAT      O16141   0.956   0.503   7.089
 5300WAT     H116142   0.979   0.529   7.183
 5300WAT     H216143   1.037   0.515   7.031
 5301WAT      O16144   1.526   6.699   1.361
 5301WAT     H116145   1.489   6.626   1.419
 5301WAT     H216146   1.606   6.665   1.311
 5302WAT      O16147   6.137   3.932   3.750
 5302WAT     H116148   6.136   3.880   3.836
 5302WAT     H216149   6.063   3.999   3.751
 5303WAT      O16150   0.061   0.376   0.200
 5303WAT     H116151   0.043   0.335   0.290
 5303WAT     H216152   0.132   0.446   0.210
 5304WAT      O16153   6.099   6.712   4.944
 5304WAT     H116154   6.187   6.733   4.987
 5304WAT     H216155   6.040   6.666   5.011
 5305WAT      O16156   3.272   4.646   6.937
 5305WAT     H116157   3.345   4.709   6.911
 5305WAT     H216158   3.183   4.689   6.917
 5306WAT      O16159   4.846   4.844   5.478
 5306WAT     H116160   4.782   4.798   5.418
 5306WAT     H216161   4.918   4.888   5.424
 5307WAT      O16162   7.341   0.875   9.392
 5307WAT     H116163   7.378   0.965   9.410
 5307WAT     H216164   7.325   0.863   9.294
 5308WAT      O16165   3.799   6.987   8.189
 5308WAT     H116166   3.818   6.943   8.101
 5308WAT     H216167   3.798   6.918   8.261
 5309WAT      O16168   4.756   6.358   9.849
 5309WAT     H116169   4.677   6.301   9.869
 5309WAT     H216170   4.809   6.372   9.933
 5310WAT      O16171   9.774   4.064   8.827
 5310WAT     H116172   9.722   3.988   8.789
 5310WAT     H216173   9.815   4.037   8.914
 5311WAT      O16174   7.958   2.204   6.879
 5311WAT     H116175   7.912   2.157   6.803
 5311WAT     H216176   7.978   2.299   6.852
 5312WAT      O16177   7.096   6.339   4.262
 5312WAT     H116178   7.085   6.417   4.323
 5312WAT     H216179   7.047   6.260   4.299
 5313WAT      O16180   2.884   1.549   1.228
 5313WAT     H116181   2.854   1.466   1.274
 5313WAT     H216182   2.979   1.539   1.200
 5314WAT      O16183   1.384   2.901   4.403
 5314WAT     H116184   1.389   2.950   4.316
 5314WAT     H216185   1.328   2.954   4.467
 5315WAT      O16186   9.153   6.567   9.126
 5315WAT     H116187   9.166   6.664   9.107
 5315WAT     H216188   9.222   6.536   9.190
 5316WAT      O16189   0.082   4.293   2.315
 5316WAT     H116190   0.104   4.258   2.224
 5316WAT     H216191  -0.017   4.311   2.320
 5317WAT      O16192   1.912   9.437   6.395
 5317WAT     H116193   1.901   9.342   6.425
 5317WAT     H216194   1.822   9.475   6.373
 5318WAT      O16195   3.037   7.783   7.228
 5318WAT     H116196   2.979   7.708   7.258
 5318WAT     H216197   3.113   7.793   7.292
 5319WAT      O16198   2.508   1.724   9.389
 5319WAT     H116199   2.510   1.651   9.458
 5319WAT     H216200   2.502   1.682   9.298
 5320WAT      O16201   6.266   6.705   3.136
 5320WAT     H116202   6.330   6.770   3.096
 5320WAT     H216203   6.192   6.687   3.070
 5321WAT      O16204   6.187   6.248   2.698
 5321WAT     H116205   6.251   6.311   2.656
 5321WAT     H216206   6.127   6.209   2.628
 5322WAT      O16207   1.870   0.620   0.169
 5322WAT     H116208   1.892   0.653   0.078
 5322WAT     H216209   1.896   0.689   0.237
 5323WAT      O16210   1.872   7.253   0.820
 5323WAT     H116211   1.800   7.205   0.870
 5323WAT     H216212   1.831   7.311   0.749
 5324WAT      O16213   5.010   7.263   6.379
 5324WAT     H116214   5.045   7.300   6.465
 5324WAT     H216215   5.024   7.164   6.377
 5325WAT      O16216   7.472   1.125   7.227
 5325WAT     H116217   7.396   1.077   7.183
 5325WAT     H216218   7.512   1.066   7.297
 5326WAT      O16219   3.148   7.313   7.698
 5326WAT     H116220   3.198   7.229   7.721
 5326WAT     H216221   3.214   7.387   7.683
 5327WAT      O16222   3.191   6.346   4.364
 5327WAT     H116223   3.219   6.253   4.385
 5327WAT     H216224   3.091   6.352   4.366
 5328WAT      O16225   3.136   5.092   2.058
 5328WAT     H116226   3.232   5.064   2.068
 5328WAT     H216227   3.123   5.180   2.104
 5329WAT      O16228   1.260   1.571   5.048
 5329WAT     H116229   1.246   1.637   5.121
 5329WAT     H216230   1.207   1.599   4.967
 5330WAT      O16231   7.993   5.181   8.031
 5330WAT     H116232   8.034   5.156   8.119
 5330WAT     H216233   7.988   5.281   8.024
 5331WAT      O16234   0.890   5.690   1.768
 5331WAT     H116235   0.855   5.780   1.793
 5331WAT     H216236   0.834   5.653   1.693
 5332WAT      O16237   4.016   8.768   2.825
 5332WAT     H116238   4.064   8.744   2.909
 5332WAT     H216239   3.947   8.698   2.805
 5333WAT      O16240   3.651   5.861   7.748
 5333WAT     H116241   3.644   5.952   7.709
 5333WAT     H216242   3.584   5.850   7.822
 5334WAT      O16243   3.084   5.541   3.736
 5334WAT     H116244   3.028   5.473   3.689
 5334WAT     H216245   3.092   5.622   3.678
 5335WAT      O16246   3.670   1.825   2.508
 5335WAT     H116247   3.619   1.749   2.550
 5335WAT     H216248   3.761   1.831   2.549
 5336WAT      O16249   1.502   1.093   7.985
 5336WAT     H116250   1.491   0.996   7.961
 5336WAT     H216251   1.520   1.146   7.902
 5337WAT      O16252   3.314   0.697   2.327
 5337WAT     H116253   3.276   0.754   2.399
 5337WAT     H216254   3.405   0.731   2.301
 5338WAT      O16255   2.025   6.184   9.709
 5338WAT     H116256   1.929   6.212   9.702
 5338WAT     H216257   2.081   6.244   9.651
 5339WAT      O16258   6.133   9.561   3.948
 5339WAT     H116259   6.110   9.649   3.906
 5339WAT     H216260   6.157   9.575   4.044
 5340WAT      O16261   8.863   2.712   7.352
 5340WAT     H116262   8.871   2.753   7.261
 5340WAT     H216263   8.770   2.727   7.387
 5341WAT      O16264   7.976   3.279   5.070
 5341WAT     H116265   7.900   3.256   5.131
 5341WAT     H216266   7.950   3.356   5.012
 5342WAT      O16267   8.166   3.010   0.394
 5342WAT     H116268   8.154   2.982   0.298
 5342WAT     H216269   8.135   2.936   0.453
 5343WAT      O16270   6.339   5.811   5.211
 5343WAT     H116271   6.380   5.779   5.297
 5343WAT     H216272   6.244   5.778   5.206
 5344WAT      O16273   2.840   1.243   5.429
 5344WAT     H116274   2.792   1.311   5.373
 5344WAT     H216275   2.832   1.153   5.385
 5345WAT      O16276   0.998   5.027   4.806
 5345WAT     H116277   0.953   5.111   4.777
 5345WAT     H216278   0.969   4.952   4.748
 5346WAT      O16279   7.680   2.939   1.713
 5346WAT     H116280   7.754   2.872   1.719
 5346WAT     H216281   7.699   3.003   1.638
 5347WAT      O16282   8.710   4.327   5.646
 5347WAT     H116283   8.788   4.296   5.700
 5347WAT     H216284   8.665   4.403   5.693
 5348WAT      O16285   7.512   9.073   4.393
 5348WAT     H116286   7.578   9.140   4.358
 5348WAT     H216287   7.421   9.115   4.394
 5349WAT      O16288   0.902   7.027   2.075
 5349WAT     H116289   0.946   7.057   1.990
 5349WAT     H216290   0.811   6.991   2.055
 5350WAT      O16291   9.826   5.113   5.521
 5350WAT     H116292   9.799   5.112   5.425
 5350WAT     H216293   9.744   5.117   5.579
 5351WAT      O16294   3.218   4.661   3.623
 5351WAT     H116295   3.187   4.715   3.701
 5351WAT     H216296   3.170   4.573   3.622
 5352WAT      O16297   6.268   4.502   6.709
 5352WAT     H116298   6.267   4.593   6.667
 5352WAT     H216299   6.182   4.486   6.758
 5353WAT      O16300   3.967   3.106   2.542
 5353WAT     H116301   3.894   3.065   2.597
 5353WAT     H216302   3.937   3.196   2.510
 5354WAT      O16303   5.543   8.765   4.735
 5354WAT     H116304   5.567   8.823   4.813
 5354WAT     H216305   5.455   8.795   4.697
 5355WAT      O16306   4.870   8.931   6.357
 5355WAT     H116307   4.833   9.002   6.417
 5355WAT     H216308   4.924   8.867   6.412
 5356WAT      O16309   9.194   5.516   7.009
 5356WAT     H116310   9.126   5.575   7.051
 5356WAT     H216311   9.153   5.467   6.932
 5357WAT      O16312   7.337   3.953   4.085
 5357WAT     H116313   7.288   3.867   4.103
 5357WAT     H216314   7.406   3.938   4.014
 5358WAT      O16315   5.522   3.701   5.572
 5358WAT     H116316   5.543   3.610   5.609
 5358WAT     H216317   5.458   3.691   5.496
 5359WAT      O16318   3.758   2.170   3.889
 5359WAT     H116319   3.811   2.250   3.916
 5359WAT     H216320   3.662   2.196   3.876
 5360WAT      O16321   0.534   7.392   8.882
 5360WAT     H116322   0.568   7.482   8.854
 5360WAT     H216323   0.577   7.366   8.969
 5361WAT      O16324   6.250   7.261   4.005
 5361WAT     H116325   6.170   7.207   3.977
 5361WAT     H216326   6.272   7.327   3.934
 5362WAT      O16327   6.140   8.246   4.701
 5362WAT     H116328   6.161   8.173   4.767
 5362WAT     H216329   6.212   8.250   4.632
 5363WAT      O16330   8.593   8.616   7.195
 5363WAT     H116331   8.518   8.676   7.166
 5363WAT     H216332   8.677   8.670   7.204
 5364WAT      O16333   3.602   2.351   1.641
 5364WAT     H116334   3.535   2.377   1.571
 5364WAT     H216335   3.589   2.408   1.722
 5365WAT      O16336   2.428   5.323   1.290
 5365WAT     H116337   2.501   5.340   1.224
 5365WAT     H216338   2.342   5.361   1.255
 5366WAT      O16339   5.661   4.995   5.829
 5366WAT     H116340   5.612   4.921   5.877
 5366WAT     H216341   5.595   5.051   5.779
 5367WAT      O16342   1.674   7.084   3.075
 5367WAT     H116343   1.645   7.126   2.989
 5367WAT     H216344   1.732   7.148   3.125
 5368WAT      O16345   5.537   7.137   5.106
 5368WAT     H116346   5.486   7.109   5.188
 5368WAT     H216347   5.573   7.055   5.060
 5369WAT      O16348   6.361   6.061   5.936
 5369WAT     H116349   6.268   6.039   5.965
 5369WAT     H216350   6.414   5.977   5.926
 5370WAT      O16351   0.923   7.180   4.256
 5370WAT     H116352   1.015   7.167   4.294
 5370WAT     H216353   0.885   7.092   4.230
 5371WAT      O16354   5.184   2.349   1.281
 5371WAT     H116355   5.246   2.376   1.355
 5371WAT     H216356   5.190   2.416   1.206
 5372WAT      O16357   3.166   8.638   7.872
 5372WAT     H116358   3.155   8.706   7.944
 5372WAT     H216359   3.251   8.656   7.822
 5373WAT      O16360   8.461   3.217   7.832
 5373WAT     H116361   8.405   3.146   7.789
 5373WAT     H216362   8.541   3.236   7.776
 5374WAT      O16363   8.058   1.372   3.183
 5374WAT     H116364   7.981   1.384   3.120
 5374WAT     H216365   8.115   1.455   3.183
 5375WAT      O16366   3.571   7.202   5.562
 5375WAT     H116367   3.498   7.216   5.628
 5375WAT     H216368   3.572   7.276   5.495
 5376WAT      O16369   5.876   4.000   6.047
 5376WAT     H116370   5.886   3.918   6.103
 5376WAT     H216371   5.902   3.980   5.953
 5377WAT      O16372   4.593   5.752   9.587
 5377WAT     H116373   4.519   5.690   9.562
 5377WAT     H216374   4.649   5.771   9.506
 5378WAT      O16375   8.266   8.197   5.994
 5378WAT     H116376   8.295   8.268   5.930
 5378WAT     H216377   8.187   8.149   5.957
 5379WAT      O16378   0.142   3.053   4.237
 5379WAT     H116379   0.092   3.010   4.312
 5379WAT     H216380   0.116   3.010   4.150
 5380WAT      O16381   9.323   1.520   0.939
 5380WAT     H116382   9.236   1.506   0.986
 5380WAT     H216383   9.372   1.596   0.980
 5381WAT      O16384   7.954   7.697   9.853
 5381WAT     H116385   7.978   7.653   9.766
 5381WAT     H216386   7.955   7.796   9.841
 5382WAT      O16387   9.867   2.363   5.375
 5382WAT     H116388   9.828   2.352   5.467
 5382WAT     H216389   9.912   2.278   5.348
 5383WAT      O16390   0.614   9.032   4.868
 5383WAT     H116391   0.641   9.127   4.856
 5383WAT     H216392   0.535   9.027   4.928
 5384WAT      O16393   0.507   5.382   7.514
 5384WAT     H116394   0.538   5.465   7.468
 5384WAT     H216395   0.504   5.306   7.448
 5385WAT      O16396   8.576   8.955   5.009
 5385WAT     H116397   8.629   8.871   4.998
 5385WAT     H216398   8.505   8.959   4.940
 5386WAT      O16399   9.001   3.822   2.155
 5386WAT     H116400   8.924   3.855   2.210
 5386WAT     H216401   9.061   3.766   2.212
 5387WAT      O16402   4.301   3.714   5.617
 5387WAT     H116403   4.387   3.749   5.579
 5387WAT     H216404   4.315   3.620   5.649
 5388WAT      O16405   2.859   0.246   2.505
 5388WAT     H116406   2.919   0.296   2.443
 5388WAT     H216407   2.774   0.222   2.458
 5389WAT      O16408   8.235   0.071   8.088
 5389WAT     H116409   8.259   0.087   7.993
 5389WAT     H216410   8.137   0.088   8.101
 5390WAT      O16411   5.036   8.877   5.801
 5390WAT     H116412   5.107   8.939   5.767
 5390WAT     H216413   4.955   8.885   5.744
 5391WAT      O16414   9.657   5.574   9.504
 5391WAT     H116415   9.755   5.563   9.487
 5391WAT     H216416   9.613   5.614   9.423
 5392WAT      O16417   2.873   7.037   8.363
 5392WAT     H116418   2.817   7.120   8.353
 5392WAT     H216419   2.930   7.026   8.282
 5393WAT      O16420   3.661   2.971   1.026
 5393WAT     H116421   3.644   3.034   0.951
 5393WAT     H216422   3.759   2.963   1.043
 5394WAT      O16423   5.001   9.251   1.330
 5394WAT     H116424   4.936   9.267   1.255
 5394WAT     H216425   5.081   9.204   1.294
 5395WAT      O16426   0.580   4.720   0.051
 5395WAT     H116427   0.525   4.643   0.019
 5395WAT     H216428   0.625   4.763  -0.027
 5396WAT      O16429   6.425   8.480   1.775
 5396WAT     H116430   6.387   8.389   1.789
 5396WAT     H216431   6.472   8.483   1.687
 5397WAT      O16432   2.986   1.195   2.652
 5397WAT     H116433   3.001   1.159   2.744
 5397WAT     H216434   2.890   1.184   2.627
 5398WAT      O16435   7.809   4.984   3.450
 5398WAT     H116436   7.788   4.890   3.477
 5398WAT     H216437   7.885   4.984   3.385
 5399WAT      O16438   0.003   3.111   2.610
 5399WAT     H116439   0.038   3.051   2.683
 5399WAT     H216440   0.071   3.181   2.589
 5400WAT      O16441   3.200   9.468   4.375
 5400WAT     H116442   3.285   9.417   4.358
 5400WAT     H216443   3.150   9.480   4.289
 5401WAT      O16444   1.722   7.332   6.226
 5401WAT     H116445   1.746   7.264   6.295
 5401WAT     H216446   1.797   7.342   6.161
 5402WAT      O16447   3.795   5.621   7.334
 5402WAT     H116448   3.856   5.701   7.331
 5402WAT     H216449   3.757   5.612   7.426
 5403WAT      O16450   8.931   0.804   7.175
 5403WAT     H116451   8.913   0.713   7.137
 5403WAT     H216452   8.889   0.873   7.116
 5404WAT      O16453   4.872   7.722   9.478
 5404WAT     H116454   4.799   7.697   9.414
 5404WAT     H216455   4.842   7.799   9.534
 5405WAT      O16456   8.348   2.419   4.116
 5405WAT     H116457   8.414   2.456   4.051
 5405WAT     H216458   8.373   2.447   4.209
 5406WAT      O16459   5.204   0.158   5.312
 5406WAT     H116460   5.124   0.098   5.309
 5406WAT     H216461   5.177   0.250   5.284
 5407WAT      O16462   4.412   1.571   7.733
 5407WAT     H116463   4.405   1.518   7.648
 5407WAT     H216464   4.321   1.583   7.772
 5408WAT      O16465   7.527   0.437   6.133
 5408WAT     H116466   7.620   0.417   6.101
 5408WAT     H216467   7.463   0.374   6.088
 5409WAT      O16468   9.034   4.660   3.252
 5409WAT     H116469   9.134   4.652   3.258
 5409WAT     H216470   8.992   4.597   3.317
 5410WAT      O16471   8.077   8.690   2.399
 5410WAT     H116472   8.048   8.780   2.431
 5410WAT     H216473   8.153   8.657   2.456
 5411WAT      O16474   1.474   6.681   9.718
 5411WAT     H116475   1.444   6.764   9.764
 5411WAT     H216476   1.496   6.611   9.786
 5412WAT      O16477   1.893   2.157   0.094
 5412WAT     H116478   1.830   2.159   0.172
 5412WAT     H216479   1.859   2.218   0.023
 5413WAT      O16480   1.593   3.574   7.550
 5413WAT     H116481   1.508   3.557   7.500
 5413WAT     H216482   1.624   3.491   7.595
 5414WAT      O16483   5.503   9.575   5.104
 5414WAT     H116484   5.423   9.572   5.163
 5414WAT     H216485   5.572   9.636   5.144
 5415WAT      O16486   8.274   3.827   7.645
 5415WAT     H116487   8.307   3.917   7.676
 5415WAT     H216488   8.349   3.762   7.648
 5416WAT      O16489   7.906   6.119   3.051
 5416WAT     H116490   7.904   6.109   3.151
 5416WAT     H216491   7.997   6.095   3.017
 5417WAT      O16492   1.324   3.855   5.797
 5417WAT     H116493   1.284   3.944   5.821
 5417WAT     H216494   1.423   3.860   5.807
 5418WAT      O16495   5.079   8.899   8.921
 5418WAT     H116496   5.166   8.854   8.903
 5418WAT     H216497   5.047   8.874   9.013
 5419WAT      O16498   3.486   2.038   2.938
 5419WAT     H116499   3.577   2.007   2.910
 5419WAT     H216500   3.485   2.138   2.942
 5420WAT      O16501   1.258   0.436   8.956
 5420WAT     H116502   1.318   0.407   9.030
 5420WAT     H216503   1.307   0.501   8.898
 5421WAT      O16504   0.505   1.256   7.108
 5421WAT     H116505   0.457   1.343   7.098
 5421WAT     H216506   0.480   1.195   7.033
 5422WAT      O16507   2.558   3.608   6.803
 5422WAT     H116508   2.503   3.692   6.809
 5422WAT     H216509   2.554   3.560   6.891
 5423WAT      O16510   9.511   2.552   9.464
 5423WAT     H116511   9.530   2.641   9.423
 5423WAT     H216512   9.557   2.545   9.553
 5424WAT      O16513   0.930   6.198   5.331
 5424WAT     H116514   0.896   6.163   5.418
 5424WAT     H216515   0.927   6.298   5.331
 5425WAT      O16516   5.705   1.085   5.193
 5425WAT     H116517   5.726   1.182   5.181
 5425WAT     H216518   5.632   1.060   5.130
 5426WAT      O16519   1.371   8.420   8.449
 5426WAT     H116520   1.396   8.512   8.419
 5426WAT     H216521   1.334   8.423   8.541
 5427WAT      O16522   7.228   7.586   5.559
 5427WAT     H116523   7.150   7.648   5.563
 5427WAT     H216524   7.242   7.555   5.465
 5428WAT      O16525   3.168   2.849   6.636
 5428WAT     H116526   3.260   2.813   6.617
 5428WAT     H216527   3.141   2.909   6.561
 5429WAT      O16528   6.884   7.815   5.124
 5429WAT     H116529   6.911   7.771   5.209
 5429WAT     H216530   6.833   7.899   5.145
 5430WAT      O16531   6.007   6.243   9.568
 5430WAT     H116532   5.930   6.307   9.560
 5430WAT     H216533   6.068   6.275   9.641
 5431WAT      O16534   9.414   6.438   2.126
 5431WAT     H116535   9.485   6.422   2.057
 5431WAT     H216536   9.421   6.531   2.162
 5432WAT      O16537   0.859   7.162   2.505
 5432WAT     H116538   0.905   7.190   2.590
 5432WAT     H216539   0.780   7.105   2.528
 5433WAT      O16540   7.928   2.398   9.455
 5433WAT     H116541   7.945   2.484   9.503
 5433WAT     H216542   7.983   2.395   9.372
 5434WAT      O16543   9.501   2.074   1.955
 5434WAT     H116544   9.445   2.146   1.996
 5434WAT     H216545   9.593   2.076   1.994
 5435WAT      O16546   3.904   6.804   6.161
 5435WAT     H116547   3.820   6.811   6.215
 5435WAT     H216548   3.961   6.884   6.178
 5436WAT      O16549   3.255   4.947   1.409
 5436WAT     H116550   3.180   5.009   1.384
 5436WAT     H216551   3.266   4.947   1.508
 5437WAT      O16552   2.535   3.867   3.702
 5437WAT     H116553   2.588   3.952   3.691
 5437WAT     H216554   2.589   3.802   3.755
 5438WAT      O16555   7.317   3.732   4.353
 5438WAT     H116556   7.275   3.734   4.263
 5438WAT     H216557   7.408   3.773   4.348
 5439WAT      O16558   1.419   6.930   3.388
 5439WAT     H116559   1.425   6.884   3.299
 5439WAT     H216560   1.327   6.919   3.425
 5440WAT      O16561   3.738   7.606   6.684
 5440WAT     H116562   3.709   7.567   6.772
 5440WAT     H216563   3.665   7.595   6.617
 5441WAT      O16564   6.276   0.663   8.746
 5441WAT     H116565   6.227   0.580   8.719
 5441WAT     H216566   6.236   0.698   8.830
 5442WAT      O16567   2.733   4.949   6.141
 5442WAT     H116568   2.696   4.881   6.205
 5442WAT     H216569   2.669   4.962   6.065
 5443WAT      O16570   6.895   8.131   4.993
 5443WAT     H116571   6.849   8.203   4.940
 5443WAT     H216572   6.826   8.067   5.028
 5444WAT      O16573   7.584   0.177   6.888
 5444WAT     H116574   7.596   0.246   6.959
 5444WAT     H216575   7.673   0.146   6.856
 5445WAT      O16576   9.222   9.470   6.311
 5445WAT     H116577   9.161   9.510   6.242
 5445WAT     H216578   9.209   9.371   6.313
 5446WAT      O16579   6.664   2.541   0.007
 5446WAT     H116580   6.649   2.633  -0.029
 5446WAT     H216581   6.757   2.535   0.044
 5447WAT      O16582   7.144   8.954   5.989
 5447WAT     H116583   7.099   8.872   6.025
 5447WAT     H216584   7.098   9.035   6.025
 5448WAT      O16585   1.607   0.119   8.931
 5448WAT     H116586   1.529   0.116   8.994
 5448WAT     H216587   1.687   0.155   8.979
 5449WAT      O16588   5.464   7.255   3.617
 5449WAT     H116589   5.481   7.276   3.714
 5449WAT     H216590   5.546   7.277   3.564
 5450WAT      O16591   9.404   5.245   0.866
 5450WAT     H116592   9.397   5.345   0.867
 5450WAT     H216593   9.395   5.210   0.960
 5451WAT      O16594   9.221   9.128   2.289
 5451WAT     H116595   9.290   9.191   2.325
 5451WAT     H216596   9.148   9.180   2.245
 5452WAT      O16597   0.900   7.266   4.663
 5452WAT     H116598   0.876   7.169   4.656
 5452WAT     H216599   0.835   7.320   4.609
 5453WAT      O16600   4.539   8.259   7.114
 5453WAT     H116601   4.478   8.180   7.113
 5453WAT     H216602   4.631   8.229   7.141
 5454WAT      O16603   4.620   3.373   7.849
 5454WAT     H116604   4.700   3.314   7.833
 5454WAT     H216605   4.579   3.349   7.937
 5455WAT      O16606   1.055   8.465   7.703
 5455WAT     H116607   1.094   8.375   7.685
 5455WAT     H216608   1.042   8.513   7.616
 5456WAT      O16609   3.184   3.093   9.153
 5456WAT     H116610   3.280   3.103   9.128
 5456WAT     H216611   3.127   3.098   9.071
 5457WAT      O16612   8.172   9.427   9.074
 5457WAT     H116613   8.154   9.466   8.984
 5457WAT     H216614   8.238   9.352   9.065
 5458WAT      O16615   6.076   6.214   6.746
 5458WAT     H116616   6.112   6.152   6.815
 5458WAT     H216617   6.043   6.162   6.667
 5459WAT      O16618   9.066   9.394   8.695
 5459WAT     H116619   9.036   9.308   8.653
 5459WAT     H216620   9.155   9.420   8.657
 5460WAT      O16621   1.349   1.210   1.145
 5460WAT     H116622   1.302   1.137   1.095
 5460WAT     H216623   1.312   1.216   1.237
 5461WAT      O16624   6.186   5.530   1.377
 5461WAT     H116625   6.149   5.476   1.301
 5461WAT     H216626   6.115   5.543   1.446
 5462WAT      O16627   1.334   5.024   0.254
 5462WAT     H116628   1.300   5.015   0.160
 5462WAT     H216629   1.403   5.097   0.258
 5463WAT      O16630   2.100   2.479   2.555
 5463WAT     H116631   2.130   2.545   2.624
 5463WAT     H216632   2.054   2.527   2.481
 5464WAT      O16633   0.131   8.250   7.702
 5464WAT     H116634   0.168   8.309   7.773
 5464WAT     H216635   0.034   8.232   7.720
 5465WAT      O16636   3.474   3.910   1.808
 5465WAT     H116637   3.559   3.911   1.861
 5465WAT     H216638   3.434   4.001   1.808
 5466WAT      O16639   5.429   7.487   9.726
 5466WAT     H116640   5.451   7.438   9.811
 5466WAT     H216641   5.446   7.427   9.648
 5467WAT      O16642   0.322   7.950   6.855
 5467WAT     H116643   0.237   7.910   6.823
 5467WAT     H216644   0.326   7.945   6.955
 5468WAT      O16645   9.642   5.679   5.103
 5468WAT     H116646   9.547   5.681   5.072
 5468WAT     H216647   9.652   5.735   5.185
 5469WAT      O16648   6.477   1.216   1.452
 5469WAT     H116649   6.551   1.149   1.462
 5469WAT     H216650   6.503   1.300   1.499
 5470WAT      O16651   2.583   9.369   2.736
 5470WAT     H116652   2.636   9.285   2.746
 5470WAT     H216653   2.584   9.399   2.641
 5471WAT      O16654   8.928   2.810   4.861
 5471WAT     H116655   8.906   2.804   4.764
 5471WAT     H216656   8.979   2.894   4.879
 5472WAT      O16657   3.556   4.152   0.978
 5472WAT     H116658   3.607   4.134   0.894
 5472WAT     H216659   3.611   4.208   1.039
 5473WAT      O16660   6.762   5.295   4.850
 5473WAT     H116661   6.699   5.369   4.825
 5473WAT     H216662   6.720   5.207   4.829
 5474WAT      O16663   1.473   0.071   8.696
 5474WAT     H116664   1.409   0.138   8.658
 5474WAT     H216665   1.476   0.080   8.795
 5475WAT      O16666   7.439   8.026   8.234
 5475WAT     H116667   7.389   7.968   8.171
 5475WAT     H216668   7.424   8.122   8.210
 5476WAT      O16669   0.316   8.676   7.950
 5476WAT     H116670   0.226   8.718   7.938
 5476WAT     H216671   0.318   8.625   8.036
 5477WAT      O16672   4.384   3.742   3.401
 5477WAT     H116673   4.403   3.659   3.348
 5477WAT     H216674   4.378   3.719   3.498
 5478WAT      O16675   1.818   6.793   2.098
 5478WAT     H116676   1.840   6.863   2.166
 5478WAT     H216677   1.862   6.815   2.011
 5479WAT      O16678   3.780   6.651   5.258
 5479WAT     H116679   3.747   6.617   5.170
 5479WAT     H216680   3.732   6.735   5.282
 5480WAT      O16681   2.257   2.177   8.317
 5480WAT     H116682   2.225   2.220   8.232
 5480WAT     H216683   2.198   2.204   8.393
 5481WAT      O16684   9.048   9.044   7.546
 5481WAT     H116685   8.963   9.007   7.584
 5481WAT     H216686   9.110   8.968   7.524
 5482WAT      O16687   9.208   0.199   6.285
 5482WAT     H116688   9.259   0.149   6.214
 5482WAT     H216689   9.167   0.135   6.349
 5483WAT      O16690   2.633   3.086   5.070
 5483WAT     H116691   2.567   3.030   5.121
 5483WAT     H216692   2.595   3.177   5.057
 5484WAT      O16693   4.449   7.351   1.641
 5484WAT     H116694   4.429   7.282   1.571
 5484WAT     H216695   4.411   7.321   1.728
 5485WAT      O16696   3.007   9.659   7.125
 5485WAT     H116697   3.043   9.595   7.193
 5485WAT     H216698   2.975   9.742   7.171
 5486WAT      O16699   5.207   2.792   6.200
 5486WAT     H116700   5.290   2.847   6.203
 5486WAT     H216701   5.130   2.847   6.233
 5487WAT      O16702   0.188   1.647   0.028
 5487WAT     H116703   0.186   1.739   0.068
 5487WAT     H216704   0.214   1.653  -0.068
 5488WAT      O16705   0.027   1.449   2.157
 5488WAT     H116706  -0.033   1.376   2.189
 5488WAT     H216707  -0.029   1.529   2.132
 5489WAT      O16708   5.506   2.636   3.864
 5489WAT     H116709   5.414   2.615   3.833
 5489WAT     H216710   5.509   2.630   3.964
 5490WAT      O16711   1.518   8.902   7.492
 5490WAT     H116712   1.519   8.803   7.503
 5490WAT     H216713   1.425   8.931   7.469
 5491WAT      O16714   2.261   2.096   3.593
 5491WAT     H116715   2.173   2.074   3.635
 5491WAT     H216716   2.335   2.073   3.657
 5492WAT      O16717   6.035   6.173   8.521
 5492WAT     H116718   5.954   6.211   8.477
 5492WAT     H216719   6.030   6.188   8.619
 5493WAT      O16720   8.233   0.416   2.195
 5493WAT     H116721   8.318   0.411   2.141
 5493WAT     H216722   8.156   0.433   2.133
 5494WAT      O16723   5.427   2.219   4.883
 5494WAT     H116724   5.470   2.226   4.793
 5494WAT     H216725   5.436   2.125   4.917
 5495WAT      O16726   7.055   8.533   4.834
 5495WAT     H116727   6.976   8.548   4.893
 5495WAT     H216728   7.031   8.468   4.762
 5496WAT      O16729   1.407   5.003   6.610
 5496WAT     H116730   1.365   5.081   6.655
 5496WAT     H216731   1.424   4.930   6.677
 5497WAT      O16732   8.603   9.493   1.737
 5497WAT     H116733   8.551   9.444   1.666
 5497WAT     H216734   8.539   9.531   1.804
 5498WAT      O16735   3.025   4.419   3.931
 5498WAT     H116736   2.993   4.495   3.875
 5498WAT     H216737   3.011   4.441   4.028
 5499WAT      O16738   4.810   3.720   9.626
 5499WAT     H116739   4.837   3.625   9.640
 5499WAT     H216740   4.853   3.755   9.542
 5500WAT      O16741   8.306   5.336   5.339
 5500WAT     H116742   8.307   5.338   5.239
 5500WAT     H216743   8.254   5.256   5.370
 5501WAT      O16744   8.990   3.593   3.215
 5501WAT     H116745   8.942   3.640   3.140
 5501WAT     H216746   9.020   3.660   3.283
 5502WAT      O16747   6.873   8.154   3.553
 5502WAT     H116748   6.905   8.111   3.469
 5502WAT     H216749   6.948   8.161   3.619
 5503WAT      O16750   3.583   5.166   4.976
 5503WAT     H116751   3.611   5.172   4.880
 5503WAT     H216752   3.542   5.076   4.993
 5504WAT      O16753   9.869   1.461   3.027
 5504WAT     H116754   9.884   1.466   3.126
 5504WAT     H216755   9.834   1.370   3.003
 5505WAT      O16756   1.641   1.811   0.640
 5505WAT     H116757   1.579   1.888   0.629
 5505WAT     H216758   1.735   1.844   0.642
 5506WAT      O16759   9.151   2.348   0.453
 5506WAT     H116760   9.216   2.312   0.520
 5506WAT     H216761   9.159   2.448   0.451
 5507WAT      O16762   8.739   5.346   1.606
 5507WAT     H116763   8.789   5.421   1.649
 5507WAT     H216764   8.750   5.263   1.660
 5508WAT      O16765   8.610   5.986   5.327
 5508WAT     H116766   8.605   5.902   5.381
 5508WAT     H216767   8.613   6.065   5.389
 5509WAT      O16768   5.455   7.536   0.298
 5509WAT     H116769   5.465   7.608   0.367
 5509WAT     H216770   5.429   7.577   0.211
 5510WAT      O16771   7.719   9.302   4.023
 5510WAT     H116772   7.637   9.295   4.081
 5510WAT     H216773   7.778   9.224   4.040
 5511WAT      O16774   3.793   7.226   3.984
 5511WAT     H116775   3.853   7.150   3.960
 5511WAT     H216776   3.717   7.193   4.040
 5512WAT      O16777   8.545   0.664   7.834
 5512WAT     H116778   8.477   0.661   7.907
 5512WAT     H216779   8.622   0.604   7.858
 5513WAT      O16780   0.923   6.940   9.322
 5513WAT     H116781   0.983   6.896   9.389
 5513WAT     H216782   0.940   6.901   9.232
 5514WAT      O16783   0.461   0.487   8.349
 5514WAT     H116784   0.501   0.427   8.278
 5514WAT     H216785   0.379   0.443   8.386
 5515WAT      O16786   2.284   5.797   2.287
 5515WAT     H116787   2.188   5.805   2.315
 5515WAT     H216788   2.343   5.820   2.365
 5516WAT      O16789   6.904   3.574   7.977
 5516WAT     H116790   6.963   3.646   7.941
 5516WAT     H216791   6.808   3.595   7.956
 5517WAT      O16792   1.099   4.275   2.374
 5517WAT     H116793   1.124   4.254   2.280
 5517WAT     H216794   1.013   4.230   2.397
 5518WAT      O16795   1.918   0.814   9.276
 5518WAT     H116796   1.844   0.828   9.342
 5518WAT     H216797   1.989   0.883   9.291
 5519WAT      O16798   2.651   3.812   7.276
 5519WAT     H116799   2.583   3.819   7.349
 5519WAT     H216800   2.605   3.816   7.187
 5520WAT      O16801   1.850   5.323   9.328
 5520WAT     H116802   1.834   5.419   9.351
 5520WAT     H216803   1.802   5.300   9.243
 5521WAT      O16804   5.368   0.621   3.255
 5521WAT     H116805   5.320   0.709   3.255
 5521WAT     H216806   5.326   0.560   3.187
 5522WAT      O16807   2.858   2.272   8.101
 5522WAT     H116808   2.882   2.268   8.198
 5522WAT     H216809   2.828   2.364   8.077
 5523WAT      O16810   9.073   7.694   5.016
 5523WAT     H116811   9.104   7.605   5.051
 5523WAT     H216812   9.110   7.767   5.074
 5524WAT      O16813   9.529   8.626   9.554
 5524WAT     H116814   9.486   8.712   9.582
 5524WAT     H216815   9.589   8.643   9.476
 5525WAT      O16816   0.308   4.181   9.781
 5525WAT     H116817   0.314   4.160   9.683
 5525WAT     H216818   0.270   4.273   9.793
 5526WAT      O16819   2.594   4.853   3.287
 5526WAT     H116820   2.577   4.759   3.259
 5526WAT     H216821   2.682   4.859   3.335
 5527WAT      O16822   6.752   6.608   9.441
 5527WAT     H116823   6.749   6.575   9.536
 5527WAT     H216824   6.659   6.617   9.406
 5528WAT      O16825   3.275   1.996   6.805
 5528WAT     H116826   3.227   2.050   6.875
 5528WAT     H216827   3.347   2.052   6.764
 5529WAT      O16828   7.464   4.259   0.285
 5529WAT     H116829   7.493   4.230   0.376
 5529WAT     H216830   7.542   4.301   0.237
 5530WAT      O16831   8.324   3.919   3.754
 5530WAT     H116832   8.345   3.905   3.658
 5530WAT     H216833   8.362   3.844   3.808
 5531WAT      O16834   6.512   2.366   5.645
 5531WAT     H116835   6.580   2.419   5.695
 5531WAT     H216836   6.433   2.423   5.623
 5532WAT      O16837   2.085   4.954   8.353
 5532WAT     H116838   2.095   4.934   8.255
 5532WAT     H216839   2.059   5.050   8.364
 5533WAT      O16840   9.272   6.659   0.706
 5533WAT     H116841   9.328   6.671   0.788
 5533WAT     H216842   9.248   6.563   0.696
 5534WAT      O16843   9.859   8.569   9.521
 5534WAT     H116844   9.802   8.547   9.600
 5534WAT     H216845   9.941   8.512   9.521
 5535WAT      O16846   1.674   9.592   2.248
 5535WAT     H116847   1.595   9.613   2.306
 5535WAT     H216848   1.730   9.521   2.292
 5536WAT      O16849   7.289   7.513   5.295
 5536WAT     H116850   7.244   7.573   5.228
 5536WAT     H216851   7.387   7.508   5.275
 5537WAT      O16852   7.261   0.693   7.104
 5537WAT     H116853   7.275   0.792   7.097
 5537WAT     H216854   7.185   0.674   7.166
 5538WAT      O16855   1.820   6.166   7.219
 5538WAT     H116856   1.901   6.195   7.269
 5538WAT     H216857   1.832   6.184   7.121
 5539WAT      O16858   4.131   8.006   3.886
 5539WAT     H116859   4.149   7.912   3.858
 5539WAT     H216860   4.039   8.012   3.926
 5540WAT      O16861   1.367   8.423   1.209
 5540WAT     H116862   1.268   8.411   1.203
 5540WAT     H216863   1.399   8.475   1.130
 5541WAT      O16864   5.335   9.123   9.616
 5541WAT     H116865   5.362   9.109   9.711
 5541WAT     H216866   5.242   9.089   9.603
 5542WAT      O16867   2.262   5.960   9.162
 5542WAT     H116868   2.283   5.899   9.086
 5542WAT     H216869   2.230   6.047   9.126
 5543WAT      O16870   8.668   9.607   0.145
 5543WAT     H116871   8.758   9.577   0.114
 5543WAT     H216872   8.661   9.706   0.135
 5544WAT      O16873   8.823   0.750   8.981
 5544WAT     H116874   8.751   0.709   9.037
 5544WAT     H216875   8.898   0.781   9.039
 5545WAT      O16876   3.541   3.867   9.287
 5545WAT     H116877   3.637   3.841   9.279
 5545WAT     H216878   3.516   3.928   9.211
 5546WAT      O16879   1.552   8.884   1.613
 5546WAT     H116880   1.510   8.856   1.699
 5546WAT     H216881   1.484   8.878   1.540
 5547WAT      O16882   9.551   3.746   5.735
 5547WAT     H116883   9.455   3.719   5.745
 5547WAT     H216884   9.596   3.685   5.670
 5548WAT      O16885   6.062   6.926   3.733
 5548WAT     H116886   6.020   6.877   3.809
 5548WAT     H216887   6.031   6.887   3.646
 5549WAT      O16888   7.036   9.570   7.413
 5549WAT     H116889   7.031   9.665   7.442
 5549WAT     H216890   7.051   9.566   7.314
 5550WAT      O16891   3.024   8.265   0.312
 5550WAT     H116892   2.978   8.177   0.327
 5550WAT     H216893   3.118   8.248   0.282
 5551WAT      O16894   6.272   4.337   6.406
 5551WAT     H116895   6.267   4.409   6.475
 5551WAT     H216896   6.184   4.289   6.402
 5552WAT      O16897   1.730   5.844   2.514
 5552WAT     H116898   1.724   5.911   2.587
 5552WAT     H216899   1.723   5.890   2.425
 5553WAT      O16900   5.693   3.771   8.908
 5553WAT     H116901   5.680   3.673   8.919
 5553WAT     H216902   5.790   3.790   8.894
 5554WAT      O16903   7.651   3.912   7.805
 5554WAT     H116904   7.684   3.974   7.733
 5554WAT     H216905   7.719   3.840   7.820
 5555WAT      O16906   5.969   6.986   8.329
 5555WAT     H116907   5.909   7.060   8.296
 5555WAT     H216908   6.003   6.934   8.251
 5556WAT      O16909   5.380   2.550   6.932
 5556WAT     H116910   5.342   2.484   6.868
 5556WAT     H216911   5.345   2.533   7.024
 5557WAT      O16912   5.547   5.207   5.445
 5557WAT     H116913   5.518   5.180   5.537
 5557WAT     H216914   5.640   5.244   5.449
 5558WAT      O16915   6.472   6.535   3.385
 5558WAT     H116916   6.421   6.449   3.386
 5558WAT     H216917   6.531   6.539   3.466
 5559WAT      O16918   4.843   6.518   7.386
 5559WAT     H116919   4.899   6.566   7.454
 5559WAT     H216920   4.801   6.585   7.325
 5560WAT      O16921   0.359   5.519   1.704
 5560WAT     H116922   0.451   5.497   1.736
 5560WAT     H216923   0.355   5.511   1.604
 5561WAT      O16924   2.768   7.143   2.319
 5561WAT     H116925   2.817   7.059   2.296
 5561WAT     H216926   2.730   7.137   2.411
 5562WAT      O16927   7.161   0.565   1.767
 5562WAT     H116928   7.164   0.561   1.667
 5562WAT     H216929   7.092   0.501   1.801
 5563WAT      O16930   0.242   6.165   0.846
 5563WAT     H116931   0.271   6.156   0.751
 5563WAT     H216932   0.281   6.248   0.886
 5564WAT      O16933   3.074   3.629   1.749
 5564WAT     H116934   3.072   3.701   1.817
 5564WAT     H216935   3.099   3.667   1.660
 5565WAT      O16936   4.923   8.463   9.577
 5565WAT     H116937   5.015   8.460   9.615
 5565WAT     H216938   4.895   8.371   9.550
 5566WAT      O16939   5.315   1.053   9.750
 5566WAT     H116940   5.386   1.021   9.688
 5566WAT     H216941   5.249   1.108   9.700
 5567WAT      O16942   3.758   4.655   1.274
 5567WAT     H116943   3.782   4.715   1.350
 5567WAT     H216944   3.674   4.687   1.231
 5568WAT      O16945   0.322   8.097   4.672
 5568WAT     H116946   0.325   8.196   4.680
 5568WAT     H216947   0.240   8.070   4.621
 5569WAT      O16948   1.682   2.338   9.239
 5569WAT     H116949   1.600   2.345   9.181
 5569WAT     H216950   1.657   2.291   9.324
 5570WAT      O16951   9.061   6.759   5.558
 5570WAT     H116952   9.133   6.820   5.524
 5570WAT     H216953   9.051   6.773   5.657
 5571WAT      O16954   8.289   6.228   5.235
 5571WAT     H116955   8.360   6.229   5.164
 5571WAT     H216956   8.252   6.320   5.246
 5572WAT      O16957   8.521   8.051   9.562
 5572WAT     H116958   8.447   8.070   9.497
 5572WAT     H216959   8.580   7.980   9.524
 5573WAT      O16960   8.582   8.157   7.234
 5573WAT     H116961   8.518   8.180   7.308
 5573WAT     H216962   8.537   8.095   7.169
 5574WAT      O16963   5.769   0.080   7.295
 5574WAT     H116964   5.807   0.150   7.234
 5574WAT     H216965   5.815   0.084   7.384
 5575WAT      O16966   6.592   8.639   7.527
 5575WAT     H116967   6.627   8.593   7.445
 5575WAT     H216968   6.494   8.657   7.515
 5576WAT      O16969   7.145   0.650   9.744
 5576WAT     H116970   7.139   0.686   9.651
 5576WAT     H216971   7.072   0.584   9.759
 5577WAT      O16972   5.257   0.275   8.481
 5577WAT     H116973   5.254   0.372   8.506
 5577WAT     H216974   5.177   0.229   8.519
 5578WAT      O16975   1.995   1.264   1.140
 5578WAT     H116976   1.990   1.190   1.072
 5578WAT     H216977   1.938   1.241   1.218
 5579WAT      O16978   8.578   0.625   5.586
 5579WAT     H116979   8.562   0.536   5.630
 5579WAT     H216980   8.652   0.616   5.520
 5580WAT      O16981   5.990   0.577   4.424
 5580WAT     H116982   6.046   0.517   4.482
 5580WAT     H216983   6.003   0.552   4.328
 5581WAT      O16984   6.071   8.370   1.760
 5581WAT     H116985   6.100   8.346   1.853
 5581WAT     H216986   6.088   8.467   1.744
 5582WAT      O16987   1.355   6.724   9.495
 5582WAT     H116988   1.348   6.641   9.441
 5582WAT     H216989   1.400   6.703   9.582
 5583WAT      O16990   1.021   0.410   9.719
 5583WAT     H116991   0.929   0.427   9.756
 5583WAT     H216992   1.015   0.341   9.647
 5584WAT      O16993   6.774   5.487   6.396
 5584WAT     H116994   6.851   5.442   6.351
 5584WAT     H216995   6.722   5.540   6.329
 5585WAT      O16996   8.250   9.429   2.414
 5585WAT     H116997   8.195   9.377   2.480
 5585WAT     H216998   8.341   9.447   2.454
 5586WAT      O16999   6.661   7.855   7.111
 5586WAT     H117000   6.613   7.777   7.071
 5586WAT     H217001   6.692   7.832   7.203
 5587WAT      O17002   0.542   3.061   8.267
 5587WAT     H117003   0.498   3.070   8.356
 5587WAT     H217004   0.641   3.056   8.279
 5588WAT      O17005   3.413   5.589   2.571
 5588WAT     H117006   3.473   5.582   2.492
 5588WAT     H217007   3.455   5.542   2.649
 5589WAT      O17008   2.843   5.889   3.468
 5589WAT     H117009   2.872   5.974   3.510
 5589WAT     H217010   2.767   5.907   3.405
 5590WAT      O17011   9.568   5.083   4.233
 5590WAT     H117012   9.642   5.065   4.168
 5590WAT     H217013   9.519   4.998   4.253
 5591WAT      O17014   4.944   9.046   7.053
 5591WAT     H117015   5.014   8.994   7.101
 5591WAT     H217016   4.966   9.050   6.955
 5592WAT      O17017   9.670   7.737   5.635
 5592WAT     H117018   9.681   7.776   5.544
 5592WAT     H217019   9.573   7.720   5.653
 5593WAT      O17020   7.108   4.877   7.675
 5593WAT     H117021   7.173   4.931   7.728
 5593WAT     H217022   7.155   4.835   7.598
 5594WAT      O17023   1.586   3.135   7.827
 5594WAT     H117024   1.567   3.090   7.739
 5594WAT     H217025   1.526   3.097   7.897
 5595WAT      O17026   4.912   1.743   0.172
 5595WAT     H117027   4.899   1.761   0.269
 5595WAT     H217028   4.900   1.827   0.120
 5596WAT      O17029   2.187   9.443   4.451
 5596WAT     H117030   2.117   9.423   4.382
 5596WAT     H217031   2.246   9.517   4.419
 5597WAT      O17032   2.242   6.651   8.993
 5597WAT     H117033   2.190   6.600   9.062
 5597WAT     H217034   2.338   6.656   9.020
 5598WAT      O17035   9.415   2.481   7.236
 5598WAT     H117036   9.471   2.427   7.299
 5598WAT     H217037   9.334   2.516   7.284
 5599WAT      O17038   7.924   2.301   3.321
 5599WAT     H117039   7.957   2.208   3.300
 5599WAT     H217040   7.906   2.350   3.236
 5600WAT      O17041   9.857   1.244   6.784
 5600WAT     H117042   9.841   1.174   6.715
 5600WAT     H217043   9.878   1.200   6.872
 5601WAT      O17044   7.315   5.854   9.169
 5601WAT     H117045   7.240   5.884   9.227
 5601WAT     H217046   7.310   5.899   9.081
 5602WAT      O17047   9.469   0.512   6.608
 5602WAT     H117048   9.560   0.470   6.613
 5602WAT     H217049   9.402   0.451   6.651
 5603WAT      O17050   6.344   3.530   5.647
 5603WAT     H117051   6.443   3.517   5.645
 5603WAT     H217052   6.322   3.623   5.619
 5604WAT      O17053   7.215   7.286   0.304
 5604WAT     H117054   7.127   7.317   0.266
 5604WAT     H217055   7.254   7.216   0.245
 5605WAT      O17056   0.522   5.068   9.439
 5605WAT     H117057   0.585   4.991   9.440
 5605WAT     H217058   0.472   5.072   9.526
 5606WAT      O17059   5.416   8.434   9.226
 5606WAT     H117060   5.436   8.355   9.168
 5606WAT     H217061   5.408   8.404   9.321
 5607WAT      O17062   9.712   8.921   0.935
 5607WAT     H117063   9.642   8.993   0.934
 5607WAT     H217064   9.774   8.935   1.012
 5608WAT      O17065   4.944   3.959   9.792
 5608WAT     H117066   4.918   3.869   9.758
 5608WAT     H217067   4.939   3.961   9.892
 5609WAT      O17068   8.002   6.213   6.617
 5609WAT     H117069   8.088   6.207   6.668
 5609WAT     H217070   7.931   6.162   6.665
 5610WAT      O17071   7.143   3.653   1.131
 5610WAT     H117072   7.110   3.585   1.196
 5610WAT     H217073   7.206   3.716   1.177
 5611WAT      O17074   7.852   9.661   3.241
 5611WAT     H117075   7.813   9.732   3.183
 5611WAT     H217076   7.884   9.585   3.184
 5612WAT      O17077   3.924   0.551   6.835
 5612WAT     H117078   3.963   0.465   6.801
 5612WAT     H217079   3.992   0.624   6.827
 5613WAT      O17080   4.789   3.116   4.841
 5613WAT     H117081   4.693   3.142   4.836
 5613WAT     H217082   4.796   3.016   4.834
 5614WAT      O17083   7.945   1.777   4.631
 5614WAT     H117084   8.018   1.782   4.562
 5614WAT     H217085   7.975   1.718   4.706
 5615WAT      O17086   9.301   5.613   0.344
 5615WAT     H117087   9.389   5.658   0.335
 5615WAT     H217088   9.243   5.636   0.266
 5616WAT      O17089   3.120   6.172   1.319
 5616WAT     H117090   3.033   6.126   1.334
 5616WAT     H217091   3.179   6.159   1.398
 5617WAT      O17092   1.196   1.505   2.810
 5617WAT     H117093   1.187   1.492   2.909
 5617WAT     H217094   1.293   1.502   2.786
 5618WAT      O17095   0.934   6.306   6.656
 5618WAT     H117096   0.900   6.399   6.671
 5618WAT     H217097   1.033   6.304   6.666
 5619WAT      O17098   8.848   6.144   8.794
 5619WAT     H117099   8.936   6.191   8.797
 5619WAT     H217100   8.779   6.197   8.844
 5620WAT      O17101   7.878   1.917   9.242
 5620WAT     H117102   7.969   1.906   9.202
 5620WAT     H217103   7.809   1.877   9.181
 5621WAT      O17104   6.912   3.356   7.193
 5621WAT     H117105   6.938   3.331   7.099
 5621WAT     H217106   6.842   3.293   7.226
 5622WAT      O17107   2.966   0.413   7.476
 5622WAT     H117108   2.874   0.410   7.515
 5622WAT     H217109   2.962   0.453   7.385
 5623WAT      O17110   5.174   4.810   2.070
 5623WAT     H117111   5.178   4.896   2.020
 5623WAT     H217112   5.187   4.734   2.006
 5624WAT      O17113   7.464   3.473   4.648
 5624WAT     H117114   7.364   3.472   4.653
 5624WAT     H217115   7.502   3.472   4.740
 5625WAT      O17116   1.862   5.181   6.682
 5625WAT     H117117   1.942   5.210   6.629
 5625WAT     H217118   1.847   5.245   6.757
 5626WAT      O17119   5.330   0.884   0.911
 5626WAT     H117120   5.406   0.889   0.846
 5626WAT     H217121   5.282   0.797   0.899
 5627WAT      O17122   7.534   4.727   0.159
 5627WAT     H117123   7.614   4.680   0.123
 5627WAT     H217124   7.452   4.674   0.139
 5628WAT      O17125   8.582   5.039   3.356
 5628WAT     H117126   8.527   5.018   3.275
 5628WAT     H217127   8.663   5.091   3.328
 5629WAT      O17128   8.256   5.089   3.749
 5629WAT     H117129   8.187   5.161   3.753
 5629WAT     H217130   8.215   5.002   3.776
 5630WAT      O17131   0.130   9.650   4.092
 5630WAT     H117132   0.222   9.613   4.100
 5630WAT     H217133   0.074   9.615   4.167
 5631WAT      O17134   1.941   6.725   0.210
 5631WAT     H117135   1.965   6.687   0.121
 5631WAT     H217136   2.000   6.685   0.281
 5632WAT      O17137   1.358   4.021   0.599
 5632WAT     H117138   1.340   4.114   0.631
 5632WAT     H217139   1.412   4.024   0.515
 5633WAT      O17140   5.169   9.429   7.903
 5633WAT     H117141   5.085   9.469   7.939
 5633WAT     H217142   5.173   9.332   7.927
 5634WAT      O17143   7.084   7.434   7.720
 5634WAT     H117144   7.125   7.394   7.638
 5634WAT     H217145   6.991   7.399   7.731
 5635WAT      O17146   9.777   5.951   2.718
 5635WAT     H117147   9.729   6.004   2.648
 5635WAT     H217148   9.851   6.006   2.757
 5636WAT      O17149   5.558   7.477   1.541
 5636WAT     H117150   5.572   7.503   1.636
 5636WAT     H217151   5.638   7.428   1.507
 5637WAT      O17152   1.702   0.297   7.828
 5637WAT     H117153   1.765   0.326   7.900
 5637WAT     H217154   1.608   0.307   7.860
 5638WAT      O17155   0.173   1.123   1.741
 5638WAT     H117156   0.228   1.100   1.821
 5638WAT     H217157   0.181   1.221   1.723
 5639WAT      O17158   1.607   5.481   0.162
 5639WAT     H117159   1.612   5.444   0.069
 5639WAT     H217160   1.678   5.551   0.174
 5640WAT      O17161   6.189   1.764   6.423
 5640WAT     H117162   6.138   1.774   6.508
 5640WAT     H217163   6.186   1.850   6.372
 5641WAT      O17164   2.850   4.883   9.329
 5641WAT     H117165   2.796   4.799   9.335
 5641WAT     H217166   2.788   4.961   9.320
 5642WAT      O17167   8.657   8.322   1.738
 5642WAT     H117168   8.676   8.239   1.790
 5642WAT     H217169   8.621   8.392   1.799
 5643WAT      O17170   5.898   1.720   3.773
 5643WAT     H117171   5.952   1.784   3.828
 5643WAT     H217172   5.958   1.677   3.705
 5644WAT      O17173   5.014   5.919   0.479
 5644WAT     H117174   4.934   5.861   0.464
 5644WAT     H217175   5.082   5.869   0.533
 5645WAT      O17176   8.921   2.613   4.312
 5645WAT     H117177   8.827   2.583   4.327
 5645WAT     H217178   8.942   2.610   4.214
 5646WAT      O17179   6.594   1.344   9.451
 5646WAT     H117180   6.614   1.433   9.491
 5646WAT     H217181   6.670   1.316   9.392
 5647WAT      O17182   9.234   4.016   1.826
 5647WAT     H117183   9.202   4.109   1.845
 5647WAT     H217184   9.315   4.021   1.768
 5648WAT      O17185   1.228   8.552   4.885
 5648WAT     H117186   1.271   8.632   4.928
 5648WAT     H217187   1.143   8.581   4.841
 5649WAT      O17188   8.634   8.666   2.670
 5649WAT     H117189   8.563   8.608   2.709
 5649WAT     H217190   8.592   8.744   2.622
 5650WAT      O17191   5.243   9.066   6.506
 5650WAT     H117192   5.227   8.999   6.578
 5650WAT     H217193   5.259   9.019   6.420
 5651WAT      O17194   4.276   6.067   6.259
 5651WAT     H117195   4.189   6.114   6.244
 5651WAT     H217196   4.331   6.119   6.325
 5652WAT      O17197   5.754   2.441   0.850
 5652WAT     H117198   5.830   2.452   0.786
 5652WAT     H217199   5.668   2.461   0.803
 5653WAT      O17200   6.646   2.271   5.152
 5653WAT     H117201   6.612   2.190   5.104
 5653WAT     H217202   6.627   2.262   5.250
 5654WAT      O17203   8.749   3.230   3.121
 5654WAT     H117204   8.725   3.321   3.088
 5654WAT     H217205   8.847   3.228   3.143
 5655WAT      O17206   4.031   4.428   0.544
 5655WAT     H117207   4.000   4.413   0.450
 5655WAT     H217208   4.017   4.345   0.597
 5656WAT      O17209   8.340   8.973   8.647
 5656WAT     H117210   8.406   8.908   8.685
 5656WAT     H217211   8.387   9.057   8.621
 5657WAT      O17212   7.141   4.417   8.635
 5657WAT     H117213   7.106   4.504   8.668
 5657WAT     H217214   7.184   4.368   8.711
 5658WAT      O17215   4.581   1.304   2.606
 5658WAT     H117216   4.643   1.373   2.568
 5658WAT     H217217   4.595   1.296   2.704
 5659WAT      O17218   8.138   7.733   9.227
 5659WAT     H117219   8.224   7.687   9.208
 5659WAT     H217220   8.129   7.813   9.168
 5660WAT      O17221   5.218   9.080   1.228
 5660WAT     H117222   5.291   9.093   1.161
 5660WAT     H217223   5.163   9.001   1.203
 5661WAT      O17224   5.358   7.528   8.611
 5661WAT     H117225   5.364   7.600   8.541
 5661WAT     H217226   5.437   7.467   8.603
 5662WAT      O17227   2.445   2.465   8.078
 5662WAT     H117228   2.345   2.473   8.081
 5662WAT     H217229   2.482   2.477   8.170
 5663WAT      O17230   1.635   8.116   6.799
 5663WAT     H117231   1.590   8.159   6.721
 5663WAT     H217232   1.698   8.181   6.841
 5664WAT      O17233   5.685   2.307   8.056
 5664WAT     H117234   5.755   2.258   8.004
 5664WAT     H217235   5.712   2.311   8.152
 5665WAT      O17236   2.527   9.009   2.405
 5665WAT     H117237   2.464   9.003   2.327
 5665WAT     H217238   2.513   9.096   2.452
 5666WAT      O17239   4.071   4.942   9.769
 5666WAT     H117240   4.151   5.001   9.759
 5666WAT     H217241   4.096   4.861   9.821
 5667WAT      O17242   1.568   4.239   8.916
 5667WAT     H117243   1.526   4.224   8.826
 5667WAT     H217244   1.556   4.335   8.942
 5668WAT      O17245   4.425   8.017   7.147
 5668WAT     H117246   4.465   7.980   7.231
 5668WAT     H217247   4.418   7.944   7.079
 5669WAT      O17248   7.045   5.208   3.517
 5669WAT     H117249   7.072   5.274   3.587
 5669WAT     H217250   6.998   5.131   3.561
 5670WAT      O17251   5.917   7.134   6.487
 5670WAT     H117252   5.849   7.061   6.491
 5670WAT     H217253   5.871   7.222   6.496
 5671WAT      O17254   4.958   4.659   4.410
 5671WAT     H117255   5.026   4.688   4.343
 5671WAT     H217256   4.875   4.714   4.400
 5672WAT      O17257   7.144   6.994   2.560
 5672WAT     H117258   7.178   6.917   2.507
 5672WAT     H217259   7.186   6.993   2.651
 5673WAT      O17260   1.221   8.796   0.967
 5673WAT     H117261   1.148   8.863   0.977
 5673WAT     H217262   1.272   8.814   0.882
 5674WAT      O17263   9.624   4.019   0.637
 5674WAT     H117264   9.642   3.945   0.703
 5674WAT     H217265   9.672   4.102   0.667
 5675WAT      O17266   4.103   1.798   9.488
 5675WAT     H117267   4.190   1.748   9.497
 5675WAT     H217268   4.061   1.807   9.578
 5676WAT      O17269   0.503   6.933   5.062
 5676WAT     H117270   0.471   6.976   4.978
 5676WAT     H217271   0.602   6.924   5.059
 5677WAT      O17272   1.069   1.191   9.063
 5677WAT     H117273   1.047   1.094   9.071
 5677WAT     H217274   1.158   1.209   9.103
 5678WAT      O17275   3.959   6.985   5.400
 5678WAT     H117276   4.053   6.971   5.367
 5678WAT     H217277   3.959   6.982   5.500
 5679WAT      O17278   3.590   0.911   0.485
 5679WAT     H117279   3.627   0.893   0.576
 5679WAT     H217280   3.493   0.935   0.492
 5680WAT      O17281   0.651   8.744   4.871
 5680WAT     H117282   0.663   8.843   4.864
 5680WAT     H217283   0.569   8.717   4.822
 5681WAT      O17284   6.862   0.108   4.967
 5681WAT     H117285   6.901   0.131   4.878
 5681WAT     H217286   6.793   0.176   4.992
 5682WAT      O17287   5.934   0.488   0.748
 5682WAT     H117288   6.026   0.502   0.713
 5682WAT     H217289   5.910   0.564   0.809
 5683WAT      O17290   8.091   2.632   5.187
 5683WAT     H117291   8.151   2.573   5.242
 5683WAT     H217292   7.997   2.624   5.222
 5684WAT      O17293   4.872   4.693   1.099
 5684WAT     H117294   4.790   4.641   1.074
 5684WAT     H217295   4.927   4.639   1.163
 5685WAT      O17296   7.125   2.051   9.423
 5685WAT     H117297   7.064   1.987   9.378
 5685WAT     H217298   7.157   2.119   9.357
 5686WAT      O17299   7.712   0.348   4.688
 5686WAT     H117300   7.737   0.286   4.762
 5686WAT     H217301   7.786   0.351   4.621
 5687WAT      O17302   5.130   3.128   4.651
 5687WAT     H117303   5.110   3.163   4.743
 5687WAT     H217304   5.060   3.161   4.588
 5688WAT      O17305   1.997   0.630   5.569
 5688WAT     H117306   1.986   0.568   5.646
 5688WAT     H217307   1.908   0.664   5.540
 5689WAT      O17308   4.480   8.859   9.659
 5689WAT     H117309   4.439   8.948   9.679
 5689WAT     H217310   4.575   8.872   9.631
 5690WAT      O17311   6.028   6.624   2.436
 5690WAT     H117312   6.120   6.586   2.433
 5690WAT     H217313   5.974   6.586   2.361
 5691WAT      O17314   2.179   5.303   2.729
 5691WAT     H117315   2.206   5.377   2.668
 5691WAT     H217316   2.189   5.215   2.682
 5692WAT      O17317   6.103   8.450   7.161
 5692WAT     H117318   6.043   8.513   7.112
 5692WAT     H217319   6.198   8.476   7.146
 5693WAT      O17320   4.792   8.813   1.279
 5693WAT     H117321   4.724   8.800   1.351
 5693WAT     H217322   4.783   8.740   1.212
 5694WAT      O17323   1.014   3.460   5.885
 5694WAT     H117324   1.045   3.538   5.829
 5694WAT     H217325   1.083   3.438   5.953
 5695WAT      O17326   5.930   8.560   4.932
 5695WAT     H117327   5.981   8.543   5.016
 5695WAT     H217328   5.851   8.618   4.951
 5696WAT      O17329   0.427   8.742   6.256
 5696WAT     H117330   0.485   8.679   6.309
 5696WAT     H217331   0.354   8.690   6.211
 5697WAT      O17332   3.335   5.510   8.374
 5697WAT     H117333   3.356   5.570   8.452
 5697WAT     H217334   3.344   5.414   8.403
 5698WAT      O17335   3.824   8.218   1.539
 5698WAT     H117336   3.753   8.205   1.608
 5698WAT     H217337   3.881   8.296   1.564
 5699WAT      O17338   7.854   0.339   9.674
 5699WAT     H117339   7.814   0.420   9.631
 5699WAT     H217340   7.825   0.257   9.623
 5700WAT      O17341   5.708   0.591   9.089
 5700WAT     H117342   5.703   0.572   9.187
 5700WAT     H217343   5.648   0.528   9.039
 5701WAT      O17344   8.202   6.247   5.733
 5701WAT     H117345   8.240   6.333   5.767
 5701WAT     H217346   8.256   6.215   5.655
 5702WAT      O17347   0.868   2.292   8.765
 5702WAT     H117348   0.940   2.323   8.827
 5702WAT     H217349   0.833   2.370   8.713
 5703WAT      O17350   6.597   2.746   1.972
 5703WAT     H117351   6.606   2.781   1.879
 5703WAT     H217352   6.600   2.823   2.036
 5704WAT      O17353   6.426   0.415   7.429
 5704WAT     H117354   6.496   0.350   7.458
 5704WAT     H217355   6.350   0.366   7.387
 5705WAT      O17356   0.759   4.989   1.159
 5705WAT     H117357   0.817   5.069   1.175
 5705WAT     H217358   0.818   4.908   1.150
 5706WAT      O17359   6.218   7.397   7.272
 5706WAT     H117360   6.197   7.494   7.289
 5706WAT     H217361   6.182   7.341   7.346
 5707WAT      O17362   4.152   5.520   3.124
 5707WAT     H117363   4.197   5.528   3.036
 5707WAT     H217364   4.137   5.424   3.146
 5708WAT      O17365   7.493   4.258   8.347
 5708WAT     H117366   7.489   4.346   8.299
 5708WAT     H217367   7.552   4.196   8.296
 5709WAT      O17368   8.448   5.417   9.626
 5709WAT     H117369   8.518   5.465   9.575
 5709WAT     H217370   8.428   5.467   9.710
 5710WAT      O17371   1.422   4.913   1.287
 5710WAT     H117372   1.366   4.834   1.265
 5710WAT     H217373   1.512   4.903   1.245
 5711WAT      O17374   1.721   7.193   8.210
 5711WAT     H117375   1.716   7.112   8.152
 5711WAT     H217376   1.629   7.216   8.241
 5712WAT      O17377   9.502   7.349   8.489
 5712WAT     H117378   9.447   7.430   8.510
 5712WAT     H217379   9.481   7.317   8.397
 5713WAT      O17380   9.353   8.533   6.571
 5713WAT     H117381   9.279   8.467   6.584
 5713WAT     H217382   9.392   8.522   6.480
 5714WAT      O17383   3.662   0.370   9.684
 5714WAT     H117384   3.604   0.290   9.692
 5714WAT     H217385   3.608   0.453   9.699
 5715WAT      O17386   4.032   7.902   7.462
 5715WAT     H117387   4.062   7.996   7.476
 5715WAT     H217388   4.017   7.858   7.550
 5716WAT      O17389   2.986   3.428   2.814
 5716WAT     H117390   3.047   3.356   2.782
 5716WAT     H217391   2.898   3.420   2.767
 5717WAT      O17392   5.741   4.189   6.150
 5717WAT     H117393   5.803   4.130   6.098
 5717WAT     H217394   5.649   4.151   6.148
 5718WAT      O17395   0.801   0.753   7.998
 5718WAT     H117396   0.874   0.705   7.950
 5718WAT     H217397   0.836   0.840   8.033
 5719WAT      O17398   7.370   8.985   3.261
 5719WAT     H117399   7.439   9.007   3.330
 5719WAT     H217400   7.357   9.064   3.201
 5720WAT      O17401   8.390   9.499   0.332
 5720WAT     H117402   8.483   9.469   0.309
 5720WAT     H217403   8.331   9.419   0.343
 5721WAT      O17404   0.699   5.282   4.320
 5721WAT     H117405   0.660   5.194   4.349
 5721WAT     H217406   0.785   5.266   4.272
 5722WAT      O17407   7.661   0.988   1.072
 5722WAT     H117408   7.677   1.039   1.157
 5722WAT     H217409   7.658   1.051   0.995
 5723WAT      O17410   3.520   1.314   9.613
 5723WAT     H117411   3.515   1.309   9.713
 5723WAT     H217412   3.557   1.228   9.577
 5724WAT      O17413   7.843   9.678   3.506
 5724WAT     H117414   7.829   9.675   3.407
 5724WAT     H217415   7.778   9.743   3.547
 5725WAT      O17416   6.166   7.199   5.687
 5725WAT     H117417   6.238   7.140   5.649
 5725WAT     H217418   6.174   7.291   5.648
 5726WAT      O17419   8.021   7.734   8.311
 5726WAT     H117420   7.974   7.802   8.367
 5726WAT     H217421   7.969   7.717   8.227
 5727WAT      O17422   9.383   2.306   0.619
 5727WAT     H117423   9.449   2.329   0.547
 5727WAT     H217424   9.399   2.212   0.649
 5728WAT      O17425   4.237   2.642   7.701
 5728WAT     H117426   4.200   2.666   7.611
 5728WAT     H217427   4.168   2.590   7.752
 5729WAT      O17428   3.261   9.663   1.112
 5729WAT     H117429   3.253   9.618   1.022
 5729WAT     H217430   3.349   9.638   1.152
 5730WAT      O17431   0.773   0.296   7.148
 5730WAT     H117432   0.819   0.377   7.111
 5730WAT     H217433   0.684   0.323   7.186
 5731WAT      O17434   7.927   8.529   6.409
 5731WAT     H117435   8.018   8.527   6.367
 5731WAT     H217436   7.888   8.437   6.409
 5732WAT      O17437   9.366   8.214   2.270
 5732WAT     H117438   9.397   8.131   2.223
 5732WAT     H217439   9.342   8.284   2.202
 5733WAT      O17440   4.380   6.578   7.128
 5733WAT     H117441   4.388   6.534   7.038
 5733WAT     H217442   4.292   6.625   7.134
 5734WAT      O17443   5.059   0.724   6.658
 5734WAT     H117444   5.065   0.661   6.735
 5734WAT     H217445   4.980   0.701   6.602
 5735WAT      O17446   9.002   1.818   9.764
 5735WAT     H117447   9.016   1.739   9.704
 5735WAT     H217448   8.938   1.795   9.837
 5736WAT      O17449   5.302   5.047   9.595
 5736WAT     H117450   5.205   5.061   9.612
 5736WAT     H217451   5.353   5.127   9.624
 5737WAT      O17452   8.978   3.347   6.389
 5737WAT     H117453   8.939   3.439   6.394
 5737WAT     H217454   8.962   3.299   6.475
 5738WAT      O17455   5.665   3.746   4.092
 5738WAT     H117456   5.598   3.769   4.163
 5738WAT     H217457   5.622   3.690   4.022
 5739WAT      O17458   0.872   0.122   8.361
 5739WAT     H117459   0.943   0.060   8.394
 5739WAT     H217460   0.820   0.158   8.439
 5740WAT      O17461   0.804   9.333   3.567
 5740WAT     H117462   0.783   9.325   3.664
 5740WAT     H217463   0.786   9.427   3.537
 5741WAT      O17464   2.818   4.353   8.587
 5741WAT     H117465   2.732   4.356   8.537
 5741WAT     H217466   2.885   4.413   8.542
 5742WAT      O17467   3.577   3.832   7.760
 5742WAT     H117468   3.508   3.763   7.781
 5742WAT     H217469   3.587   3.839   7.660
 5743WAT      O17470   2.502   0.286   9.229
 5743WAT     H117471   2.428   0.281   9.162
 5743WAT     H217472   2.474   0.344   9.305
 5744WAT      O17473   4.653   0.149   9.631
 5744WAT     H117474   4.577   0.102   9.587
 5744WAT     H217475   4.618   0.205   9.706
 5745WAT      O17476   7.841   0.795   9.444
 5745WAT     H117477   7.933   0.826   9.417
 5745WAT     H217478   7.784   0.875   9.461
 5746WAT      O17479   9.800   9.255   6.529
 5746WAT     H117480   9.887   9.300   6.507
 5746WAT     H217481   9.817   9.183   6.597
 5747WAT      O17482   9.721   8.421   7.210
 5747WAT     H117483   9.737   8.366   7.128
 5747WAT     H217484   9.734   8.518   7.189
 5748WAT      O17485   6.612   4.202   2.046
 5748WAT     H117486   6.542   4.207   1.975
 5748WAT     H217487   6.579   4.147   2.123
 5749WAT      O17488   2.679   5.896   5.620
 5749WAT     H117489   2.680   5.798   5.602
 5749WAT     H217490   2.771   5.933   5.612
 5750WAT      O17491   2.688   3.338   8.867
 5750WAT     H117492   2.634   3.254   8.874
 5750WAT     H217493   2.737   3.353   8.953
 5751WAT      O17494   6.441   8.965   8.879
 5751WAT     H117495   6.395   8.882   8.910
 5751WAT     H217496   6.392   9.004   8.801
 5752WAT      O17497   3.635   4.914   6.239
 5752WAT     H117498   3.636   4.837   6.304
 5752WAT     H217499   3.725   4.958   6.239
 5753WAT      O17500   5.531   9.795   5.958
 5753WAT     H117501   5.589   9.862   6.004
 5753WAT     H217502   5.523   9.821   5.861
 5754WAT      O17503   0.729   2.461   9.543
 5754WAT     H117504   0.731   2.548   9.493
 5754WAT     H217505   0.650   2.408   9.512
 5755WAT      O17506   1.303   8.281   9.187
 5755WAT     H117507   1.222   8.224   9.170
 5755WAT     H217508   1.374   8.226   9.231
 5756WAT      O17509   7.583   4.316   1.445
 5756WAT     H117510   7.575   4.416   1.442
 5756WAT     H217511   7.499   4.277   1.481
 5757WAT      O17512   4.475   4.425   0.074
 5757WAT     H117513   4.509   4.331   0.065
 5757WAT     H217514   4.429   4.451  -0.011
 5758WAT      O17515   3.412   2.707   6.125
 5758WAT     H117516   3.386   2.623   6.076
 5758WAT     H217517   3.370   2.706   6.216
 5759WAT      O17518   1.379   6.581   5.368
 5759WAT     H117519   1.379   6.495   5.317
 5759WAT     H217520   1.415   6.566   5.460
 5760WAT      O17521   5.260   4.251   1.844
 5760WAT     H117522   5.287   4.295   1.930
 5760WAT     H217523   5.338   4.249   1.782
 5761WAT      O17524   7.375   7.659   2.620
 5761WAT     H117525   7.320   7.728   2.572
 5761WAT     H217526   7.464   7.650   2.574
 5762WAT      O17527   6.608   1.498   0.637
 5762WAT     H117528   6.694   1.541   0.610
 5762WAT     H217529   6.619   1.398   0.635
 5763WAT      O17530   7.488   6.395   9.140
 5763WAT     H117531   7.465   6.298   9.155
 5763WAT     H217532   7.447   6.450   9.213
 5764WAT      O17533   8.584   1.383   2.041
 5764WAT     H117534   8.486   1.372   2.025
 5764WAT     H217535   8.634   1.347   1.962
 5765WAT      O17536   7.081   5.377   3.737
 5765WAT     H117537   7.172   5.380   3.779
 5765WAT     H217538   7.025   5.310   3.784
 5766WAT      O17539   2.575   5.975   4.889
 5766WAT     H117540   2.675   5.968   4.892
 5766WAT     H217541   2.549   6.072   4.883
 5767WAT      O17542   7.987   2.123   2.441
 5767WAT     H117543   7.972   2.083   2.351
 5767WAT     H217544   8.082   2.107   2.469
 5768WAT      O17545   1.481   0.197   7.243
 5768WAT     H117546   1.399   0.139   7.240
 5768WAT     H217547   1.531   0.188   7.157
 5769WAT      O17548   9.475   3.364   2.916
 5769WAT     H117549   9.422   3.402   2.840
 5769WAT     H217550   9.545   3.429   2.943
 5770WAT      O17551   4.770   2.652   8.696
 5770WAT     H117552   4.681   2.680   8.733
 5770WAT     H217553   4.759   2.569   8.641
 5771WAT      O17554   2.189   2.923   5.980
 5771WAT     H117555   2.251   2.873   6.041
 5771WAT     H217556   2.165   2.865   5.902
 5772WAT      O17557   1.788   7.409   2.620
 5772WAT     H117558   1.834   7.478   2.676
 5772WAT     H217559   1.689   7.423   2.625
 5773WAT      O17560   2.448   4.572   5.386
 5773WAT     H117561   2.386   4.500   5.417
 5773WAT     H217562   2.461   4.565   5.287
 5774WAT      O17563   2.646   3.779   4.989
 5774WAT     H117564   2.648   3.750   4.894
 5774WAT     H217565   2.569   3.842   5.003
 5775WAT      O17566   7.709   3.281   5.765
 5775WAT     H117567   7.716   3.244   5.673
 5775WAT     H217568   7.686   3.378   5.761
 5776WAT      O17569   5.730   7.092   7.396
 5776WAT     H117570   5.739   7.159   7.322
 5776WAT     H217571   5.728   7.000   7.358
 5777WAT      O17572   4.681   4.643   6.464
 5777WAT     H117573   4.709   4.561   6.515
 5777WAT     H217574   4.615   4.695   6.519
 5778WAT      O17575   5.288   0.159   7.985
 5778WAT     H117576   5.293   0.067   7.946
 5778WAT     H217577   5.294   0.154   8.084
 5779WAT      O17578   5.421   8.806   1.996
 5779WAT     H117579   5.464   8.831   1.909
 5779WAT     H217580   5.322   8.816   1.989
 5780WAT      O17581   9.404   3.808   8.970
 5780WAT     H117582   9.471   3.806   9.044
 5780WAT     H217583   9.417   3.729   8.911
 5781WAT      O17584   5.581   1.357   5.762
 5781WAT     H117585   5.489   1.393   5.751
 5781WAT     H217586   5.597   1.333   5.858
 5782WAT      O17587   9.413   8.093   8.780
 5782WAT     H117588   9.512   8.091   8.796
 5782WAT     H217589   9.365   8.103   8.868
 5783WAT      O17590   1.174   6.840   4.727
 5783WAT     H117591   1.149   6.775   4.655
 5783WAT     H217592   1.244   6.903   4.692
 5784WAT      O17593   7.593   0.641   1.646
 5784WAT     H117594   7.676   0.688   1.676
 5784WAT     H217595   7.616   0.550   1.611
 5785WAT      O17596   6.301   2.072   9.447
 5785WAT     H117597   6.358   1.992   9.464
 5785WAT     H217598   6.351   2.138   9.391
 5786WAT      O17599   5.176   7.848   1.786
 5786WAT     H117600   5.098   7.806   1.741
 5786WAT     H217601   5.213   7.785   1.855
 5787WAT      O17602   8.688   9.277   5.322
 5787WAT     H117603   8.606   9.219   5.326
 5787WAT     H217604   8.756   9.234   5.261
 5788WAT      O17605   0.616   7.085   4.445
 5788WAT     H117606   0.575   7.023   4.378
 5788WAT     H217607   0.610   7.179   4.411
 5789WAT      O17608   2.298   0.449   5.216
 5789WAT     H117609   2.275   0.445   5.118
 5789WAT     H217610   2.333   0.540   5.238
 5790WAT      O17611   5.120   1.451   3.294
 5790WAT     H117612   5.089   1.357   3.281
 5790WAT     H217613   5.185   1.455   3.371
 5791WAT      O17614   0.551   5.466   0.313
 5791WAT     H117615   0.603   5.532   0.259
 5791WAT     H217616   0.542   5.381   0.261
 5792WAT      O17617   2.010   6.368   7.117
 5792WAT     H117618   2.033   6.327   7.029
 5792WAT     H217619   1.923   6.416   7.109
 5793WAT      O17620   0.861   2.672   7.494
 5793WAT     H117621   0.894   2.671   7.400
 5793WAT     H217622   0.874   2.582   7.535
 5794WAT      O17623   0.691   3.594   5.037
 5794WAT     H117624   0.763   3.647   4.994
 5794WAT     H217625   0.613   3.584   4.975
 5795WAT      O17626   8.402   0.038   4.964
 5795WAT     H117627   8.321   0.092   4.987
 5795WAT     H217628   8.464   0.093   4.908
 5796WAT      O17629   3.014   9.426   4.128
 5796WAT     H117630   2.954   9.495   4.169
 5796WAT     H217631   2.966   9.339   4.122
 5797WAT      O17632   5.219   3.861   9.054
 5797WAT     H117633   5.216   3.896   9.148
 5797WAT     H217634   5.231   3.936   8.990
 5798WAT      O17635   1.621   3.888   5.742
 5798WAT     H117636   1.594   3.981   5.717
 5798WAT     H217637   1.644   3.837   5.659
 5799WAT      O17638   7.018   0.681   1.471
 5799WAT     H117639   7.112   0.681   1.439
 5799WAT     H217640   6.967   0.755   1.426
 5800WAT      O17641   0.225   1.894   3.126
 5800WAT     H117642   0.258   1.963   3.192
 5800WAT     H217643   0.290   1.886   3.051
 5801WAT      O17644   6.564   7.525   9.641
 5801WAT     H117645   6.554   7.431   9.610
 5801WAT     H217646   6.538   7.588   9.567
 5802WAT      O17647   3.002   0.291   6.834
 5802WAT     H117648   3.021   0.265   6.739
 5802WAT     H217649   2.941   0.224   6.876
 5803WAT      O17650   4.939   8.663   7.879
 5803WAT     H117651   4.927   8.565   7.891
 5803WAT     H217652   5.027   8.692   7.916
 5804WAT      O17653   1.231   1.013   0.990
 5804WAT     H117654   1.314   0.958   0.999
 5804WAT     H217655   1.157   0.956   0.953
 5805WAT      O17656   0.022   3.328   7.229
 5805WAT     H117657  -0.023   3.241   7.248
 5805WAT     H217658   0.010   3.352   7.132
 5806WAT      O17659   3.003   8.555   3.690
 5806WAT     H117660   3.025   8.579   3.596
 5806WAT     H217661   3.010   8.637   3.748
 5807WAT      O17662   4.941   3.137   0.623
 5807WAT     H117663   4.944   3.237   0.616
 5807WAT     H217664   5.034   3.103   0.636
 5808WAT      O17665   3.329   0.930   3.435
 5808WAT     H117666   3.379   0.879   3.364
 5808WAT     H217667   3.265   0.993   3.392
 5809WAT      O17668   2.662   1.698   3.990
 5809WAT     H117669   2.617   1.660   4.070
 5809WAT     H217670   2.736   1.758   4.018
 5810WAT      O17671   0.204   6.853   6.273
 5810WAT     H117672   0.121   6.856   6.218
 5810WAT     H217673   0.183   6.822   6.365
 5811WAT      O17674   8.159   5.969   7.246
 5811WAT     H117675   8.253   5.958   7.277
 5811WAT     H217676   8.151   5.939   7.151
 5812WAT      O17677   7.530   1.606   6.004
 5812WAT     H117678   7.522   1.638   6.098
 5812WAT     H217679   7.439   1.579   5.970
 5813WAT      O17680   8.995   5.027   4.141
 5813WAT     H117681   8.933   5.023   4.062
 5813WAT     H217682   9.086   5.053   4.110
 5814WAT      O17683   2.195   4.263   4.816
 5814WAT     H117684   2.123   4.289   4.880
 5814WAT     H217685   2.284   4.288   4.855
 5815WAT      O17686   7.263   2.568   0.931
 5815WAT     H117687   7.350   2.594   0.888
 5815WAT     H217688   7.267   2.588   1.028
 5816WAT      O17689   3.302   9.716   8.832
 5816WAT     H117690   3.209   9.752   8.841
 5816WAT     H217691   3.312   9.637   8.892
 5817WAT      O17692   5.309   8.825   9.328
 5817WAT     H117693   5.282   8.768   9.250
 5817WAT     H217694   5.233   8.831   9.392
 5818WAT      O17695   2.768   3.474   0.704
 5818WAT     H117696   2.672   3.455   0.721
 5818WAT     H217697   2.811   3.507   0.788
 5819WAT      O17698   0.319   5.266   6.365
 5819WAT     H117699   0.410   5.237   6.396
 5819WAT     H217700   0.260   5.186   6.354
 5820WAT      O17701   0.389   5.806   7.791
 5820WAT     H117702   0.326   5.851   7.728
 5820WAT     H217703   0.408   5.866   7.869
 5821WAT      O17704   8.284   9.318   9.530
 5821WAT     H117705   8.233   9.365   9.458
 5821WAT     H217706   8.226   9.245   9.568
 5822WAT      O17707   6.996   8.671   2.732
 5822WAT     H117708   6.904   8.678   2.695
 5822WAT     H217709   7.054   8.619   2.669
 5823WAT      O17710   4.991   2.216   7.261
 5823WAT     H117711   4.932   2.274   7.205
 5823WAT     H217712   5.027   2.141   7.205
 5824WAT      O17713   6.900   3.099   6.659
 5824WAT     H117714   6.861   3.066   6.745
 5824WAT     H217715   6.893   3.199   6.655
 5825WAT      O17716   7.774   1.195   6.936
 5825WAT     H117717   7.713   1.252   6.992
 5825WAT     H217718   7.721   1.126   6.888
 5826WAT      O17719   9.066   9.562   4.397
 5826WAT     H117720   9.097   9.656   4.383
 5826WAT     H217721   8.969   9.561   4.419
 5827WAT      O17722   6.219   3.309   7.893
 5827WAT     H117723   6.129   3.319   7.935
 5827WAT     H217724   6.284   3.272   7.959
 5828WAT      O17725   0.730   8.295   5.049
 5828WAT     H117726   0.713   8.393   5.039
 5828WAT     H217727   0.664   8.257   5.114
 5829WAT      O17728   6.029   4.255   8.083
 5829WAT     H117729   5.934   4.284   8.073
 5829WAT     H217730   6.089   4.326   8.048
 5830WAT      O17731   5.754   8.777   2.773
 5830WAT     H117732   5.655   8.764   2.761
 5830WAT     H217733   5.770   8.839   2.850
 5831WAT      O17734   0.346   6.697   7.573
 5831WAT     H117735   0.264   6.754   7.581
 5831WAT     H217736   0.357   6.667   7.478
 5832WAT      O17737   8.052   6.675   5.772
 5832WAT     H117738   8.012   6.598   5.722
 5832WAT     H217739   8.152   6.668   5.770
 5833WAT      O17740   1.101   0.024   1.416
 5833WAT     H117741   1.062   0.009   1.325
 5833WAT     H217742   1.027   0.022   1.484
 5834WAT      O17743   9.613   8.308   2.807
 5834WAT     H117744   9.578   8.252   2.882
 5834WAT     H217745   9.587   8.404   2.821
 5835WAT      O17746   7.719   9.114   0.416
 5835WAT     H117747   7.653   9.171   0.367
 5835WAT     H217748   7.680   9.023   0.430
 5836WAT      O17749   0.756   1.839   6.242
 5836WAT     H117750   0.720   1.920   6.194
 5836WAT     H217751   0.793   1.775   6.174
 5837WAT      O17752   7.832   6.118   4.321
 5837WAT     H117753   7.911   6.091   4.376
 5837WAT     H217754   7.791   6.201   4.359
 5838WAT      O17755   2.875   8.688   4.787
 5838WAT     H117756   2.859   8.706   4.690
 5838WAT     H217757   2.970   8.658   4.799
 5839WAT      O17758   5.937   3.934   9.499
 5839WAT     H117759   5.871   3.934   9.424
 5839WAT     H217760   5.993   3.852   9.493
 5840WAT      O17761   0.613   7.903   6.769
 5840WAT     H117762   0.539   7.939   6.825
 5840WAT     H217763   0.654   7.824   6.814
 5841WAT      O17764   9.229   5.584   5.970
 5841WAT     H117765   9.266   5.519   5.904
 5841WAT     H217766   9.235   5.546   6.062
 5842WAT      O17767   4.740   6.553   3.546
 5842WAT     H117768   4.727   6.545   3.447
 5842WAT     H217769   4.822   6.607   3.565
 5843WAT      O17770   7.751   4.054   8.671
 5843WAT     H117771   7.782   4.118   8.601
 5843WAT     H217772   7.815   4.056   8.748
 5844WAT      O17773   0.394   9.126   6.802
 5844WAT     H117774   0.489   9.129   6.772
 5844WAT     H217775   0.336   9.094   6.727
 5845WAT      O17776   0.152   8.764   3.301
 5845WAT     H117777   0.128   8.761   3.398
 5845WAT     H217778   0.145   8.671   3.263
 5846WAT      O17779   1.694   2.256   1.258
 5846WAT     H117780   1.671   2.174   1.205
 5846WAT     H217781   1.625   2.326   1.243
 5847WAT      O17782   7.250   2.172   7.531
 5847WAT     H117783   7.265   2.141   7.437
 5847WAT     H217784   7.337   2.175   7.580
 5848WAT      O17785   8.052   7.468   6.992
 5848WAT     H117786   8.080   7.372   6.979
 5848WAT     H217787   8.021   7.505   6.904
 5849WAT      O17788   5.478   6.797   7.499
 5849WAT     H117789   5.459   6.895   7.507
 5849WAT     H217790   5.468   6.754   7.588
 5850WAT      O17791   9.569   7.625   6.514
 5850WAT     H117792   9.622   7.609   6.597
 5850WAT     H217793   9.472   7.614   6.533
 5851WAT      O17794   4.872   1.321   3.899
 5851WAT     H117795   4.774   1.331   3.879
 5851WAT     H217796   4.924   1.388   3.848
 5852WAT      O17797   8.483   5.154   8.421
 5852WAT     H117798   8.534   5.185   8.502
 5852WAT     H217799   8.547   5.135   8.347
 5853WAT      O17800   5.997   8.908   9.156
 5853WAT     H117801   6.060   8.982   9.130
 5853WAT     H217802   5.934   8.891   9.081
 5854WAT      O17803   4.748   8.200   0.191
 5854WAT     H117804   4.737   8.117   0.246
 5854WAT     H217805   4.700   8.188   0.103
 5855WAT      O17806   0.079   1.206   4.614
 5855WAT     H117807   0.162   1.216   4.668
 5855WAT     H217808   0.010   1.271   4.646
 5856WAT      O17809   5.738   1.690   4.060
 5856WAT     H117810   5.646   1.672   4.096
 5856WAT     H217811   5.779   1.766   4.110
 5857WAT      O17812   9.500   5.449   7.765
 5857WAT     H117813   9.465   5.426   7.675
 5857WAT     H217814   9.425   5.461   7.829
 5858WAT      O17815   0.175   4.663   4.032
 5858WAT     H117816   0.161   4.718   3.950
 5858WAT     H217817   0.087   4.646   4.077
 5859WAT      O17818   3.865   8.211   5.586
 5859WAT     H117819   3.800   8.262   5.529
 5859WAT     H217820   3.944   8.269   5.606
 5860WAT      O17821   2.647   0.265   6.472
 5860WAT     H117822   2.724   0.207   6.446
 5860WAT     H217823   2.561   0.219   6.450
 5861WAT      O17824   2.843   0.700   4.141
 5861WAT     H117825   2.823   0.775   4.078
 5861WAT     H217826   2.839   0.613   4.091
 5862WAT      O17827   6.455   4.916   8.219
 5862WAT     H117828   6.407   4.940   8.304
 5862WAT     H217829   6.549   4.948   8.224
 5863WAT      O17830   3.027   1.771   1.392
 5863WAT     H117831   3.094   1.815   1.331
 5863WAT     H217832   2.960   1.721   1.337
 5864WAT      O17833   6.766   3.963   4.940
 5864WAT     H117834   6.865   3.971   4.926
 5864WAT     H217835   6.746   3.873   4.980
 5865WAT      O17836   3.308   1.276   0.818
 5865WAT     H117837   3.240   1.334   0.862
 5865WAT     H217838   3.351   1.217   0.886
 5866WAT      O17839   4.265   1.581   0.385
 5866WAT     H117840   4.282   1.663   0.441
 5866WAT     H217841   4.314   1.590   0.299
 5867WAT      O17842   0.395   2.036   5.601
 5867WAT     H117843   0.493   2.041   5.581
 5867WAT     H217844   0.350   1.979   5.532
 5868WAT      O17845   6.682   0.129   8.890
 5868WAT     H117846   6.707   0.044   8.937
 5868WAT     H217847   6.685   0.205   8.955
 5869WAT      O17848   1.180   9.573   2.158
 5869WAT     H117849   1.123   9.547   2.080
 5869WAT     H217850   1.273   9.590   2.127
 5870WAT      O17851   4.906   7.821   9.078
 5870WAT     H117852   4.934   7.763   9.001
 5870WAT     H217853   4.810   7.845   9.069
 5871WAT      O17854   6.390   9.179   0.642
 5871WAT     H117855   6.356   9.238   0.569
 5871WAT     H217856   6.486   9.156   0.625
 5872WAT      O17857   3.822   0.694   7.743
 5872WAT     H117858   3.724   0.688   7.722
 5872WAT     H217859   3.875   0.684   7.659
 5873WAT      O17860   5.923   1.926   4.310
 5873WAT     H117861   5.964   1.838   4.333
 5873WAT     H217862   5.990   1.983   4.263
 5874WAT      O17863   6.761   2.257   7.028
 5874WAT     H117864   6.847   2.289   6.988
 5874WAT     H217865   6.736   2.315   7.105
 5875WAT      O17866   9.541   3.957   1.143
 5875WAT     H117867   9.578   4.024   1.079
 5875WAT     H217868   9.560   3.987   1.237
 5876WAT      O17869   8.665   9.365   0.263
 5876WAT     H117870   8.665   9.457   0.223
 5876WAT     H217871   8.759   9.333   0.272
 5877WAT      O17872   6.460   5.698   8.894
 5877WAT     H117873   6.404   5.733   8.969
 5877WAT     H217874   6.445   5.599   8.884
 5878WAT      O17875   3.129  -0.003   9.302
 5878WAT     H117876   3.048   0.046   9.334
 5878WAT     H217877   3.172   0.049   9.228
 5879WAT      O17878   3.478   8.933   0.910
 5879WAT     H117879   3.414   9.005   0.934
 5879WAT     H217880   3.476   8.861   0.980
 5880WAT      O17881   2.740   3.579   7.393
 5880WAT     H117882   2.830   3.555   7.356
 5880WAT     H217883   2.708   3.664   7.351
 5881WAT      O17884   1.231   7.953   7.616
 5881WAT     H117885   1.320   7.908   7.609
 5881WAT     H217886   1.171   7.922   7.542
 5882WAT      O17887   2.038   8.124   1.448
 5882WAT     H117888   2.108   8.136   1.519
 5882WAT     H217889   1.949   8.107   1.491
 5883WAT      O17890   3.855   9.482   0.806
 5883WAT     H117891   3.786   9.484   0.878
 5883WAT     H217892   3.811   9.496   0.717
 5884WAT      O17893   2.976   8.422   8.065
 5884WAT     H117894   2.893   8.376   8.097
 5884WAT     H217895   3.001   8.385   7.976
 5885WAT      O17896   0.793   5.490   6.284
 5885WAT     H117897   0.781   5.588   6.269
 5885WAT     H217898   0.711   5.441   6.256
 5886WAT      O17899   0.846   6.220   7.921
 5886WAT     H117900   0.868   6.308   7.963
 5886WAT     H217901   0.829   6.233   7.824
 5887WAT      O17902   9.691   6.816   0.487
 5887WAT     H117903   9.604   6.811   0.438
 5887WAT     H217904   9.764   6.837   0.423
 5888WAT      O17905   3.364   4.391   9.065
 5888WAT     H117906   3.308   4.317   9.101
 5888WAT     H217907   3.444   4.404   9.124
 5889WAT      O17908   5.094   5.492   6.997
 5889WAT     H117909   5.157   5.415   6.991
 5889WAT     H217910   5.083   5.534   6.908
 5890WAT      O17911   7.214   0.209   3.838
 5890WAT     H117912   7.180   0.141   3.774
 5890WAT     H217913   7.312   0.223   3.824
 5891WAT      O17914   2.597   9.380   1.375
 5891WAT     H117915   2.534   9.444   1.331
 5891WAT     H217916   2.663   9.346   1.307
 5892WAT      O17917   4.748   4.538   5.489
 5892WAT     H117918   4.791   4.457   5.449
 5892WAT     H217919   4.746   4.611   5.421
 5893WAT      O17920   7.674   8.810   7.158
 5893WAT     H117921   7.748   8.815   7.225
 5893WAT     H217922   7.676   8.892   7.100
 5894WAT      O17923   9.079   4.502   2.367
 5894WAT     H117924   9.136   4.545   2.438
 5894WAT     H217925   9.070   4.405   2.386
 5895WAT      O17926   6.697   3.868   8.865
 5895WAT     H117927   6.756   3.900   8.791
 5895WAT     H217928   6.656   3.780   8.839
 5896WAT      O17929   5.288   4.774   6.812
 5896WAT     H117930   5.285   4.689   6.760
 5896WAT     H217931   5.234   4.763   6.896
 5897WAT      O17932   4.269   8.408   9.497
 5897WAT     H117933   4.324   8.487   9.470
 5897WAT     H217934   4.329   8.335   9.529
 5898WAT      O17935   3.277   0.992   3.971
 5898WAT     H117936   3.289   0.906   3.921
 5898WAT     H217937   3.322   0.985   4.060
 5899WAT      O17938   5.596   9.566   3.000
 5899WAT     H117939   5.628   9.562   2.905
 5899WAT     H217940   5.650   9.634   3.050
 5900WAT      O17941   6.723   9.484   0.586
 5900WAT     H117942   6.759   9.551   0.522
 5900WAT     H217943   6.793   9.462   0.655
 5901WAT      O17944   8.446   3.603   2.366
 5901WAT     H117945   8.415   3.698   2.352
 5901WAT     H217946   8.389   3.542   2.311
 5902WAT      O17947   2.051   2.090   7.948
 5902WAT     H117948   1.982   2.106   7.877
 5902WAT     H217949   2.138   2.067   7.906
 5903WAT      O17950   9.658   2.523   9.701
 5903WAT     H117951   9.617   2.475   9.778
 5903WAT     H217952   9.727   2.464   9.658
 5904WAT      O17953   9.033   9.291   0.829
 5904WAT     H117954   8.939   9.325   0.836
 5904WAT     H217955   9.043   9.210   0.886
 5905WAT      O17956   5.637   2.842   3.706
 5905WAT     H117957   5.626   2.763   3.767
 5905WAT     H217958   5.721   2.891   3.731
 5906WAT      O17959   1.447   6.063   6.878
 5906WAT     H117960   1.400   6.120   6.944
 5906WAT     H217961   1.488   5.984   6.924
 5907WAT      O17962   4.530   3.201   4.784
 5907WAT     H117963   4.495   3.232   4.873
 5907WAT     H217964   4.481   3.248   4.711
 5908WAT      O17965   3.028   9.729   5.179
 5908WAT     H117966   2.985   9.708   5.091
 5908WAT     H217967   3.126   9.744   5.165
 5909WAT      O17968   9.270   2.374   0.854
 5909WAT     H117969   9.301   2.344   0.764
 5909WAT     H217970   9.176   2.345   0.869
 5910WAT      O17971   8.516   5.636   5.777
 5910WAT     H117972   8.612   5.607   5.773
 5910WAT     H217973   8.457   5.556   5.784
 5911WAT      O17974   2.381   1.198   1.431
 5911WAT     H117975   2.310   1.263   1.404
 5911WAT     H217976   2.470   1.245   1.434
 5912WAT      O17977   3.571   3.601   9.108
 5912WAT     H117978   3.524   3.615   9.196
 5912WAT     H217979   3.587   3.504   9.094
 5913WAT      O17980   1.900   8.696   7.887
 5913WAT     H117981   1.944   8.608   7.868
 5913WAT     H217982   1.839   8.685   7.966
 5914WAT      O17983   5.372   3.931   7.349
 5914WAT     H117984   5.436   3.861   7.316
 5914WAT     H217985   5.283   3.917   7.305
 5915WAT      O17986   2.169   5.107   3.135
 5915WAT     H117987   2.253   5.053   3.127
 5915WAT     H217988   2.187   5.202   3.111
 5916WAT      O17989   2.822   6.771   3.613
 5916WAT     H117990   2.775   6.683   3.628
 5916WAT     H217991   2.828   6.820   3.700
 5917WAT      O17992   1.163   1.030   5.731
 5917WAT     H117993   1.164   1.040   5.632
 5917WAT     H217994   1.071   1.050   5.765
 5918WAT      O17995   5.905   4.669   1.224
 5918WAT     H117996   5.830   4.694   1.286
 5918WAT     H217997   5.972   4.743   1.223
 5919WAT      O17998   1.654   1.548   0.572
 5919WAT     H117999   1.706   1.542   0.486
 5919WAT     H218000   1.657   1.643   0.605
 5920WAT      O18001   9.194   2.187   7.558
 5920WAT     H118002   9.143   2.137   7.628
 5920WAT     H218003   9.173   2.148   7.468
 5921WAT      O18004   3.308   6.889   5.719
 5921WAT     H118005   3.260   6.831   5.653
 5921WAT     H218006   3.339   6.833   5.796
 5922WAT      O18007   4.143   0.625   1.907
 5922WAT     H118008   4.150   0.594   2.002
 5922WAT     H218009   4.184   0.557   1.846
 5923WAT      O18010   3.022   2.727   4.524
 5923WAT     H118011   3.115   2.692   4.518
 5923WAT     H218012   2.969   2.670   4.588
 5924WAT      O18013   1.470   4.652   7.144
 5924WAT     H118014   1.449   4.662   7.241
 5924WAT     H218015   1.559   4.608   7.133
 5925WAT      O18016   5.229   9.029   3.202
 5925WAT     H118017   5.315   9.018   3.154
 5925WAT     H218018   5.171   8.949   3.186
 5926WAT      O18019   4.792   5.957   1.461
 5926WAT     H118020   4.746   5.905   1.533
 5926WAT     H218021   4.860   5.898   1.416
 5927WAT      O18022   4.633   2.319   0.193
 5927WAT     H118023   4.672   2.403   0.155
 5927WAT     H218024   4.627   2.250   0.122
 5928WAT      O18025   1.084   7.601   2.030
 5928WAT     H118026   1.097   7.673   2.099
 5928WAT     H218027   1.080   7.643   1.939
 5929WAT      O18028   8.515   3.833   3.014
 5929WAT     H118029   8.526   3.892   2.934
 5929WAT     H218030   8.421   3.799   3.017
 5930WAT      O18031   8.788   6.998   7.821
 5930WAT     H118032   8.694   6.977   7.848
 5930WAT     H218033   8.832   6.916   7.785
 5931WAT      O18034   1.234   9.523   7.005
 5931WAT     H118035   1.140   9.527   6.973
 5931WAT     H218036   1.287   9.463   6.945
 5932WAT      O18037   3.549   8.744   9.307
 5932WAT     H118038   3.497   8.719   9.226
 5932WAT     H218039   3.522   8.835   9.337
 5933WAT      O18040   5.010   0.637   2.817
 5933WAT     H118041   4.940   0.705   2.795
 5933WAT     H218042   5.082   0.640   2.748
 5934WAT      O18043   9.342   3.195   0.651
 5934WAT     H118044   9.333   3.178   0.749
 5934WAT     H218045   9.428   3.155   0.618
 5935WAT      O18046   3.413   2.720  -0.002
 5935WAT     H118047   3.349   2.705   0.073
 5935WAT     H218048   3.471   2.639  -0.013
 5936WAT      O18049   9.488   2.015   4.898
 5936WAT     H118050   9.438   1.960   4.831
 5936WAT     H218051   9.519   1.955   4.972
 5937WAT      O18052   4.917   5.882   9.689
 5937WAT     H118053   4.872   5.804   9.646
 5937WAT     H218054   4.897   5.881   9.787
 5938WAT      O18055   4.385   8.315   0.991
 5938WAT     H118056   4.418   8.276   1.077
 5938WAT     H218057   4.360   8.411   1.005
 5939WAT      O18058   8.177   0.097   0.527
 5939WAT     H118059   8.210   0.108   0.621
 5939WAT     H218060   8.147   0.003   0.514
 5940WAT      O18061   4.177   3.928   9.799
 5940WAT     H118062   4.219   4.019   9.803
 5940WAT     H218063   4.189   3.891   9.707
 5941WAT      O18064   6.447   8.994   6.371
 5941WAT     H118065   6.490   9.083   6.379
 5941WAT     H218066   6.352   9.000   6.402
 5942WAT      O18067   7.379   1.972   1.216
 5942WAT     H118068   7.419   1.997   1.128
 5942WAT     H218069   7.279   1.975   1.209
 5943WAT      O18070   2.091   7.225   4.381
 5943WAT     H118071   2.048   7.263   4.463
 5943WAT     H218072   2.099   7.126   4.390
 5944WAT      O18073   1.122   4.735   0.117
 5944WAT     H118074   1.073   4.665   0.170
 5944WAT     H218075   1.217   4.740   0.149
 5945WAT      O18076   1.870   1.060   0.745
 5945WAT     H118077   1.813   1.141   0.757
 5945WAT     H218078   1.925   1.045   0.827
 5946WAT      O18079   8.363   7.502   9.781
 5946WAT     H118080   8.430   7.430   9.762
 5946WAT     H218081   8.291   7.501   9.711
 5947WAT      O18082   1.517   2.449   1.661
 5947WAT     H118083   1.588   2.438   1.591
 5947WAT     H218084   1.428   2.461   1.617
 5948WAT      O18085   4.665   0.861   7.087
 5948WAT     H118086   4.708   0.796   7.149
 5948WAT     H218087   4.571   0.834   7.070
 5949WAT      O18088   5.227   6.643   2.776
 5949WAT     H118089   5.170   6.599   2.706
 5949WAT     H218090   5.200   6.738   2.786
 5950WAT      O18091   3.392   6.962   2.084
 5950WAT     H118092   3.295   6.961   2.060
 5950WAT     H218093   3.404   6.923   2.175
 5951WAT      O18094   1.243   8.047   2.072
 5951WAT     H118095   1.274   8.142   2.067
 5951WAT     H218096   1.322   7.986   2.064
 5952WAT      O18097   3.035   2.934   3.228
 5952WAT     H118098   3.080   2.863   3.282
 5952WAT     H218099   3.101   3.007   3.208
 5953WAT      O18100   1.874   8.811   6.011
 5953WAT     H118101   1.789   8.762   5.996
 5953WAT     H218102   1.864   8.906   5.981
 5954WAT      O18103   4.190   9.244   4.892
 5954WAT     H118104   4.262   9.313   4.898
 5954WAT     H218105   4.169   9.226   4.796
 5955WAT      O18106   4.763   8.865   1.808
 5955WAT     H118107   4.780   8.862   1.907
 5955WAT     H218108   4.714   8.949   1.786
 5956WAT      O18109   1.951   3.719   2.165
 5956WAT     H118110   1.905   3.630   2.161
 5956WAT     H218111   1.891   3.784   2.213
 5957WAT      O18112   0.917   6.473   1.057
 5957WAT     H118113   0.850   6.538   1.019
 5957WAT     H218114   0.998   6.523   1.086
 5958WAT      O18115   9.746   3.822   5.028
 5958WAT     H118116   9.760   3.902   4.971
 5958WAT     H218117   9.790   3.836   5.117
 5959WAT      O18118   3.478   3.511   8.574
 5959WAT     H118119   3.386   3.481   8.597
 5959WAT     H218120   3.473   3.588   8.510
 5960WAT      O18121   7.205   7.869   7.166
 5960WAT     H118122   7.120   7.897   7.121
 5960WAT     H218123   7.205   7.902   7.261
 5961WAT      O18124   1.406   6.180   0.260
 5961WAT     H118125   1.369   6.106   0.203
 5961WAT     H218126   1.471   6.234   0.206
 5962WAT      O18127   5.692   9.749   4.846
 5962WAT     H118128   5.667   9.679   4.778
 5962WAT     H218129   5.689   9.839   4.803
 5963WAT      O18130   0.189   6.190   7.488
 5963WAT     H118131   0.134   6.132   7.427
 5963WAT     H218132   0.203   6.279   7.445
 5964WAT      O18133   4.091   0.283   5.016
 5964WAT     H118134   4.156   0.312   5.087
 5964WAT     H218135   4.001   0.318   5.039
 5965WAT      O18136   9.421   7.256   3.102
 5965WAT     H118137   9.465   7.217   3.182
 5965WAT     H218138   9.322   7.255   3.114
 5966WAT      O18139   4.791   3.847   0.516
 5966WAT     H118140   4.860   3.842   0.587
 5966WAT     H218141   4.758   3.941   0.508
 5967WAT      O18142   1.826   2.417   1.838
 5967WAT     H118143   1.800   2.382   1.928
 5967WAT     H218144   1.869   2.507   1.849
 5968WAT      O18145   4.029   6.067   1.771
 5968WAT     H118146   3.976   5.988   1.739
 5968WAT     H218147   4.016   6.143   1.707
 5969WAT      O18148   2.864   6.899   2.483
 5969WAT     H118149   2.914   6.819   2.451
 5969WAT     H218150   2.926   6.978   2.487
 5970WAT      O18151   1.404   4.110   4.430
 5970WAT     H118152   1.375   4.116   4.525
 5970WAT     H218153   1.478   4.043   4.422
 5971WAT      O18154   5.248   1.762   4.723
 5971WAT     H118155   5.155   1.729   4.704
 5971WAT     H218156   5.314   1.703   4.677
 5972WAT      O18157   0.999   2.290   5.535
 5972WAT     H118158   0.942   2.291   5.453
 5972WAT     H218159   1.094   2.306   5.511
 5973WAT      O18160   8.373   3.868   2.304
 5973WAT     H118161   8.303   3.899   2.239
 5973WAT     H218162   8.397   3.943   2.366
 5974WAT      O18163   8.778   3.980   4.626
 5974WAT     H118164   8.861   3.924   4.632
 5974WAT     H218165   8.762   4.025   4.714
 5975WAT      O18166   0.425   5.118   6.647
 5975WAT     H118167   0.404   5.029   6.607
 5975WAT     H218168   0.344   5.154   6.692
 5976WAT      O18169   9.388   8.812   9.215
 5976WAT     H118170   9.369   8.734   9.274
 5976WAT     H218171   9.445   8.781   9.138
 5977WAT      O18172   9.680   7.056   8.420
 5977WAT     H118173   9.634   7.063   8.508
 5977WAT     H218174   9.659   6.966   8.379
 5978WAT      O18175   1.074   9.762   0.496
 5978WAT     H118176   1.122   9.680   0.527
 5978WAT     H218177   1.131   9.842   0.513
 5979WAT      O18178   0.992   6.477   1.395
 5979WAT     H118179   1.067   6.448   1.335
 5979WAT     H218180   0.922   6.406   1.396
 5980WAT      O18181   8.595   8.444   4.184
 5980WAT     H118182   8.646   8.432   4.099
 5980WAT     H218183   8.608   8.365   4.243
 5981WAT      O18184   6.491   8.641   6.987
 5981WAT     H118185   6.439   8.591   7.055
 5981WAT     H218186   6.532   8.577   6.922
 5982WAT      O18187   3.984   3.291   7.890
 5982WAT     H118188   4.033   3.367   7.846
 5982WAT     H218189   3.938   3.324   7.972
 5983WAT      O18190   0.144   2.964   4.873
 5983WAT     H118191   0.097   2.970   4.786
 5983WAT     H218192   0.203   2.884   4.873
 5984WAT      O18193   5.960   7.449   4.782
 5984WAT     H118194   5.991   7.367   4.734
 5984WAT     H218195   6.037   7.489   4.832
 5985WAT      O18196   3.535   0.399   1.033
 5985WAT     H118197   3.588   0.480   1.006
 5985WAT     H218198   3.598   0.325   1.058
 5986WAT      O18199   0.902   1.072   6.579
 5986WAT     H118200   0.869   1.121   6.498
 5986WAT     H218201   0.894   0.974   6.564
 5987WAT      O18202   5.845   3.700   1.949
 5987WAT     H118203   5.833   3.601   1.948
 5987WAT     H218204   5.829   3.736   1.857
 5988WAT      O18205   1.119   7.249   6.330
 5988WAT     H118206   1.153   7.332   6.373
 5988WAT     H218207   1.190   7.178   6.337
 5989WAT      O18208   3.850   9.428   4.032
 5989WAT     H118209   3.943   9.391   4.036
 5989WAT     H218210   3.821   9.435   3.936
 5990WAT      O18211   0.954   4.241   5.611
 5990WAT     H118212   0.980   4.146   5.594
 5990WAT     H218213   0.859   4.244   5.642
 5991WAT      O18214   1.072   4.429   0.841
 5991WAT     H118215   0.976   4.402   0.852
 5991WAT     H218216   1.109   4.455   0.930
 5992WAT      O18217   0.274   9.065   5.002
 5992WAT     H118218   0.244   9.029   4.913
 5992WAT     H218219   0.236   9.008   5.075
 5993WAT      O18220   9.171   6.268   4.316
 5993WAT     H118221   9.249   6.209   4.336
 5993WAT     H218222   9.089   6.232   4.361
 5994WAT      O18223   7.024   3.829   5.747
 5994WAT     H118224   7.006   3.796   5.655
 5994WAT     H218225   7.062   3.754   5.803
 5995WAT      O18226   4.054   8.789   6.668
 5995WAT     H118227   4.145   8.768   6.633
 5995WAT     H218228   4.053   8.778   6.768
 5996WAT      O18229   8.077   8.514   5.951
 5996WAT     H118230   8.171   8.483   5.934
 5996WAT     H218231   8.048   8.572   5.875
 5997WAT      O18232   6.520   8.521   6.133
 5997WAT     H118233   6.602   8.574   6.154
 5997WAT     H218234   6.482   8.483   6.217
 5998WAT      O18235   3.514   8.179   6.588
 5998WAT     H118236   3.426   8.131   6.593
 5998WAT     H218237   3.582   8.129   6.640
 5999WAT      O18238   3.170   3.557   3.716
 5999WAT     H118239   3.081   3.548   3.673
 5999WAT     H218240   3.242   3.542   3.648
 6000WAT      O18241   2.913   6.024   7.372
 6000WAT     H118242   2.971   5.949   7.341
 6000WAT     H218243   2.954   6.067   7.452
 6001WAT      O18244   8.287   7.452   7.707
 6001WAT     H118245   8.193   7.419   7.705
 6001WAT     H218246   8.348   7.378   7.679
 6002WAT      O18247   4.391   9.519   0.575
 6002WAT     H118248   4.360   9.432   0.613
 6002WAT     H218249   4.490   9.519   0.567
 6003WAT      O18250   8.935   7.056   3.987
 6003WAT     H118251   9.024   7.051   4.032
 6003WAT     H218252   8.863   7.037   4.052
 6004WAT      O18253   8.264   4.776   5.278
 6004WAT     H118254   8.258   4.695   5.336
 6004WAT     H218255   8.213   4.760   5.194
 6005WAT      O18256   5.780   3.245   0.565
 6005WAT     H118257   5.719   3.206   0.633
 6005WAT     H218258   5.842   3.310   0.610
 6006WAT      O18259   3.801   8.664   0.370
 6006WAT     H118260   3.806   8.714   0.284
 6006WAT     H218261   3.830   8.725   0.445
 6007WAT      O18262   1.687   9.795   8.564
 6007WAT     H118263   1.617   9.865   8.552
 6007WAT     H218264   1.705   9.783   8.662
 6008WAT      O18265   6.680   7.558   8.645
 6008WAT     H118266   6.591   7.584   8.682
 6008WAT     H218267   6.710   7.626   8.578
 6009WAT      O18268   7.205   4.251   3.848
 6009WAT     H118269   7.280   4.304   3.889
 6009WAT     H218270   7.171   4.185   3.914
 6010WAT      O18271   6.060   3.110   2.210
 6010WAT     H118272   6.007   3.037   2.165
 6010WAT     H218273   6.004   3.192   2.217
 6011WAT      O18274   8.637   5.178   6.798
 6011WAT     H118275   8.597   5.086   6.800
 6011WAT     H218276   8.564   5.245   6.789
 6012WAT      O18277   5.075   2.401   1.958
 6012WAT     H118278   5.167   2.437   1.974
 6012WAT     H218279   5.010   2.448   2.017
 6013WAT      O18280   9.540   3.983   9.358
 6013WAT     H118281   9.513   3.939   9.443
 6013WAT     H218282   9.600   4.060   9.378
 6014WAT      O18283   6.280   5.927   6.556
 6014WAT     H118284   6.287   6.025   6.539
 6014WAT     H218285   6.342   5.902   6.631
 6015WAT      O18286   6.251   1.098   4.244
 6015WAT     H118287   6.242   1.057   4.335
 6015WAT     H218288   6.303   1.037   4.185
 6016WAT      O18289   5.024   2.362   0.087
 6016WAT     H118290   5.095   2.293   0.102
 6016WAT     H218291   4.980   2.346  -0.002
 6017WAT      O18292   8.254   1.889   9.556
 6017WAT     H118293   8.317   1.826   9.510
 6017WAT     H218294   8.265   1.980   9.517
 6018WAT      O18295   1.010   8.148   1.859
 6018WAT     H118296   1.081   8.095   1.905
 6018WAT     H218297   0.921   8.127   1.900
 6019WAT      O18298   6.868   5.676   1.450
 6019WAT     H118299   6.919   5.697   1.367
 6019WAT     H218300   6.928   5.632   1.517
 6020WAT      O18301   9.646   4.442   0.234
 6020WAT     H118302   9.744   4.442   0.211
 6020WAT     H218303   9.614   4.348   0.248
 6021WAT      O18304   6.018   6.521   8.842
 6021WAT     H118305   6.007   6.423   8.853
 6021WAT     H218306   6.115   6.543   8.830
 6022WAT      O18307   0.439   1.889   2.256
 6022WAT     H118308   0.513   1.887   2.323
 6022WAT     H218309   0.441   1.975   2.205
 6023WAT      O18310   2.957   2.048   8.685
 6023WAT     H118311   2.928   2.130   8.635
 6023WAT     H218312   2.879   1.988   8.700
 6024WAT      O18313   4.268   7.732   3.392
 6024WAT     H118314   4.321   7.659   3.435
 6024WAT     H218315   4.322   7.816   3.392
 6025WAT      O18316   0.387   9.150   4.310
 6025WAT     H118317   0.455   9.190   4.248
 6025WAT     H218318   0.402   9.051   4.316
 6026WAT      O18319   3.719   4.210   9.462
 6026WAT     H118320   3.738   4.166   9.549
 6026WAT     H218321   3.633   4.261   9.468
 6027WAT      O18322   6.013   6.545   4.742
 6027WAT     H118323   6.079   6.504   4.679
 6027WAT     H218324   6.060   6.599   4.811
 6028WAT      O18325   4.069   6.005   6.760
 6028WAT     H118326   3.981   6.015   6.713
 6028WAT     H218327   4.141   6.044   6.704
 6029WAT      O18328   6.428   8.298   3.314
 6029WAT     H118329   6.464   8.388   3.291
 6029WAT     H218330   6.458   8.273   3.407
 6030WAT      O18331   3.951   5.687   5.509
 6030WAT     H118332   4.033   5.744   5.503
 6030WAT     H218333   3.870   5.743   5.493
 6031WAT      O18334   0.763   6.572   5.956
 6031WAT     H118335   0.686   6.508   5.956
 6031WAT     H218336   0.807   6.572   6.046
 6032WAT      O18337   7.824   9.624   9.248
 6032WAT     H118338   7.783   9.695   9.305
 6032WAT     H218339   7.923   9.640   9.240
 6033WAT      O18340   4.026   4.449   3.619
 6033WAT     H118341   4.017   4.500   3.534
 6033WAT     H218342   4.105   4.483   3.670
 6034WAT      O18343   2.474   2.218   2.480
 6034WAT     H118344   2.427   2.239   2.393
 6034WAT     H218345   2.548   2.153   2.463
 6035WAT      O18346   3.545   0.236   8.144
 6035WAT     H118347   3.480   0.310   8.154
 6035WAT     H218348   3.637   0.273   8.132
 6036WAT      O18349   6.057   9.033   1.197
 6036WAT     H118350   5.995   9.110   1.187
 6036WAT     H218351   6.014   8.950   1.159
 6037WAT      O18352   5.388   2.472   4.726
 6037WAT     H118353   5.380   2.568   4.754
 6037WAT     H218354   5.389   2.414   4.807
 6038WAT      O18355   8.730   1.525   3.049
 6038WAT     H118356   8.658   1.530   2.980
 6038WAT     H218357   8.690   1.536   3.140
 6039WAT      O18358   5.054   7.505   2.043
 6039WAT     H118359   5.046   7.425   2.103
 6039WAT     H218360   4.977   7.507   1.980
 6040WAT      O18361   7.672   2.907   4.409
 6040WAT     H118362   7.602   2.923   4.479
 6040WAT     H218363   7.746   2.973   4.421
 6041WAT      O18364   9.417   6.991   6.632
 6041WAT     H118365   9.498   7.049   6.647
 6041WAT     H218366   9.422   6.951   6.540
 6042WAT      O18367   0.629   4.198   7.637
 6042WAT     H118368   0.556   4.131   7.641
 6042WAT     H218369   0.609   4.273   7.700
 6043WAT      O18370   0.011   3.743   2.512
 6043WAT     H118371   0.090   3.804   2.518
 6043WAT     H218372   0.004   3.707   2.419
 6044WAT      O18373   5.689   5.637   2.663
 6044WAT     H118374   5.638   5.721   2.681
 6044WAT     H218375   5.786   5.658   2.654
 6045WAT      O18376   2.912   4.343   5.616
 6045WAT     H118377   2.925   4.358   5.714
 6045WAT     H218378   2.829   4.289   5.601
 6046WAT      O18379   3.678   3.383   7.511
 6046WAT     H118380   3.592   3.384   7.564
 6046WAT     H218381   3.682   3.299   7.457
 6047WAT      O18382   8.378   4.489   4.623
 6047WAT     H118383   8.401   4.404   4.670
 6047WAT     H218384   8.417   4.487   4.530
 6048WAT      O18385   5.158   3.955   5.836
 6048WAT     H118386   5.091   3.886   5.806
 6048WAT     H218387   5.250   3.920   5.821
 6049WAT      O18388   5.729   4.432   8.278
 6049WAT     H118389   5.639   4.476   8.270
 6049WAT     H218390   5.790   4.468   8.208
 6050WAT      O18391   7.690   3.081   7.702
 6050WAT     H118392   7.607   3.113   7.656
 6050WAT     H218393   7.666   3.041   7.790
 6051WAT      O18394   7.313   5.119   5.153
 6051WAT     H118395   7.251   5.190   5.186
 6051WAT     H218396   7.391   5.162   5.107
 6052WAT      O18397   2.728   2.990   4.829
 6052WAT     H118398   2.773   3.071   4.792
 6052WAT     H218399   2.664   3.017   4.900
 6053WAT      O18400   3.555   4.610   5.807
 6053WAT     H118401   3.545   4.584   5.711
 6053WAT     H218402   3.469   4.593   5.855
 6054WAT      O18403   1.325   1.294   4.269
 6054WAT     H118404   1.262   1.232   4.221
 6054WAT     H218405   1.361   1.361   4.204
 6055WAT      O18406   4.662   1.286   1.986
 6055WAT     H118407   4.712   1.208   2.023
 6055WAT     H218408   4.675   1.365   2.046
 6056WAT      O18409   4.027   2.294   0.204
 6056WAT     H118410   4.047   2.299   0.302
 6056WAT     H218411   3.949   2.233   0.188
 6057WAT      O18412   6.400   6.974   0.259
 6057WAT     H118413   6.380   7.007   0.167
 6057WAT     H218414   6.458   6.893   0.253
 6058WAT      O18415   5.262   1.682   7.872
 6058WAT     H118416   5.282   1.603   7.813
 6058WAT     H218417   5.246   1.651   7.965
 6059WAT      O18418   0.300   9.495   7.800
 6059WAT     H118419   0.280   9.509   7.703
 6059WAT     H218420   0.359   9.569   7.833
 6060WAT      O18421   2.944   5.487   6.107
 6060WAT     H118422   3.032   5.461   6.147
 6060WAT     H218423   2.916   5.576   6.143
 6061WAT      O18424   8.527   4.679   2.131
 6061WAT     H118425   8.513   4.777   2.114
 6061WAT     H218426   8.512   4.659   2.228
 6062WAT      O18427   8.713   4.750   4.288
 6062WAT     H118428   8.666   4.749   4.200
 6062WAT     H218429   8.673   4.821   4.346
 6063WAT      O18430   8.874   4.738   6.046
 6063WAT     H118431   8.798   4.741   5.982
 6063WAT     H218432   8.859   4.802   6.121
 6064WAT      O18433   9.673   7.416   3.808
 6064WAT     H118434   9.593   7.368   3.773
 6064WAT     H218435   9.724   7.456   3.731
 6065WAT      O18436   2.184   9.534   2.864
 6065WAT     H118437   2.170   9.564   2.769
 6065WAT     H218438   2.282   9.532   2.883
 6066WAT      O18439   2.171   4.697   7.533
 6066WAT     H118440   2.222   4.613   7.548
 6066WAT     H218441   2.232   4.767   7.497
 6067WAT      O18442   3.627   6.379   5.773
 6067WAT     H118443   3.707   6.322   5.758
 6067WAT     H218444   3.571   6.380   5.690
 6068WAT      O18445   9.879   0.275   5.056
 6068WAT     H118446   9.858   0.297   4.961
 6068WAT     H218447   9.849   0.183   5.078
 6069WAT      O18448   7.650   7.715   0.829
 6069WAT     H118449   7.712   7.726   0.752
 6069WAT     H218450   7.647   7.800   0.882
 6070WAT      O18451   0.307   6.949   1.323
 6070WAT     H118452   0.352   6.875   1.373
 6070WAT     H218453   0.208   6.940   1.331
 6071WAT      O18454   2.182   5.465   5.373
 6071WAT     H118455   2.116   5.478   5.447
 6071WAT     H218456   2.191   5.550   5.321
 6072WAT      O18457   8.208   5.109   2.010
 6072WAT     H118458   8.172   5.149   2.095
 6072WAT     H218459   8.157   5.144   1.932
 6073WAT      O18460   4.374   7.429   3.291
 6073WAT     H118461   4.359   7.342   3.338
 6073WAT     H218462   4.390   7.412   3.194
 6074WAT      O18463   5.941   6.068   4.212
 6074WAT     H118464   5.935   5.993   4.146
 6074WAT     H218465   5.911   6.036   4.302
 6075WAT      O18466   2.586   2.346   3.108
 6075WAT     H118467   2.496   2.343   3.064
 6075WAT     H218468   2.575   2.361   3.206
 6076WAT      O18469   4.259   3.354   7.491
 6076WAT     H118470   4.336   3.330   7.550
 6076WAT     H218471   4.180   3.298   7.516
 6077WAT      O18472   3.569   7.859   5.295
 6077WAT     H118473   3.560   7.957   5.273
 6077WAT     H218474   3.634   7.847   5.369
 6078WAT      O18475   8.043   1.423   8.651
 6078WAT     H118476   8.106   1.358   8.694
 6078WAT     H218477   8.032   1.503   8.710
 6079WAT      O18478   5.171   6.696   6.351
 6079WAT     H118479   5.112   6.738   6.419
 6079WAT     H218480   5.119   6.630   6.297
 6080WAT      O18481   4.185   8.645   9.233
 6080WAT     H118482   4.166   8.714   9.303
 6080WAT     H218483   4.226   8.689   9.153
 6081WAT      O18484   6.435   5.834   2.073
 6081WAT     H118485   6.422   5.918   2.127
 6081WAT     H218486   6.427   5.855   1.976
 6082WAT      O18487   8.010   7.046   5.733
 6082WAT     H118488   8.003   7.108   5.654
 6082WAT     H218489   7.955   6.964   5.714
 6083WAT      O18490   4.451   0.660   5.350
 6083WAT     H118491   4.487   0.582   5.401
 6083WAT     H218492   4.413   0.629   5.263
 6084WAT      O18493   2.216   4.667   2.425
 6084WAT     H118494   2.186   4.691   2.333
 6084WAT     H218495   2.283   4.734   2.457
 6085WAT      O18496   7.380   7.124   0.639
 6085WAT     H118497   7.388   7.109   0.738
 6085WAT     H218498   7.372   7.035   0.593
 6086WAT      O18499   1.823   9.108   7.142
 6086WAT     H118500   1.864   9.025   7.104
 6086WAT     H218501   1.895   9.173   7.164
 6087WAT      O18502   9.295   5.049   2.915
 6087WAT     H118503   9.240   5.002   2.846
 6087WAT     H218504   9.332   5.133   2.876
 6088WAT      O18505   0.416   7.283   0.568
 6088WAT     H118506   0.503   7.233   0.570
 6088WAT     H218507   0.397   7.313   0.474
 6089WAT      O18508   0.659   5.645   5.477
 6089WAT     H118509   0.731   5.639   5.546
 6089WAT     H218510   0.686   5.596   5.395
 6090WAT      O18511   5.591   9.472   9.503
 6090WAT     H118512   5.503   9.488   9.457
 6090WAT     H218513   5.596   9.376   9.532
 6091WAT      O18514   6.904   2.051   9.234
 6091WAT     H118515   6.880   1.957   9.261
 6091WAT     H218516   6.820   2.105   9.224
 6092WAT      O18517   9.096   8.958   6.163
 6092WAT     H118518   9.096   9.056   6.182
 6092WAT     H218519   9.185   8.919   6.189
 6093WAT      O18520   9.559   6.439   4.649
 6093WAT     H118521   9.507   6.498   4.710
 6093WAT     H218522   9.641   6.487   4.617
 6094WAT      O18523   7.008   9.271   9.090
 6094WAT     H118524   6.925   9.221   9.114
 6094WAT     H218525   7.087   9.211   9.101
 6095WAT      O18526   8.721   6.974   8.205
 6095WAT     H118527   8.668   6.898   8.169
 6095WAT     H218528   8.802   6.988   8.148
 6096WAT      O18529   5.149   1.425   5.981
 6096WAT     H118530   5.188   1.340   5.944
 6096WAT     H218531   5.067   1.449   5.930
 6097WAT      O18532   4.844   4.920   6.630
 6097WAT     H118533   4.899   4.849   6.673
 6097WAT     H218534   4.748   4.891   6.627
 6098WAT      O18535   7.802   6.182   9.187
 6098WAT     H118536   7.900   6.168   9.198
 6098WAT     H218537   7.774   6.263   9.239
 6099WAT      O18538   2.931   7.253   7.482
 6099WAT     H118539   3.022   7.287   7.506
 6099WAT     H218540   2.863   7.322   7.505
 6100WAT      O18541   6.820   6.248   6.870
 6100WAT     H118542   6.780   6.194   6.796
 6100WAT     H218543   6.824   6.344   6.842
 6101WAT      O18544   4.912   4.167   0.992
 6101WAT     H118545   4.916   4.181   1.091
 6101WAT     H218546   5.003   4.182   0.953
 6102WAT      O18547   1.727   3.147   7.179
 6102WAT     H118548   1.727   3.211   7.256
 6102WAT     H218549   1.660   3.176   7.111
 6103WAT      O18550   4.307   8.876   1.115
 6103WAT     H118551   4.394   8.898   1.073
 6103WAT     H218552   4.281   8.782   1.091
 6104WAT      O18553   8.596   5.012   9.332
 6104WAT     H118554   8.610   5.019   9.431
 6104WAT     H218555   8.581   5.104   9.294
 6105WAT      O18556   3.369   1.599   2.400
 6105WAT     H118557   3.397   1.625   2.307
 6105WAT     H218558   3.428   1.525   2.433
 6106WAT      O18559   7.121   0.472   0.274
 6106WAT     H118560   7.162   0.411   0.206
 6106WAT     H218561   7.190   0.537   0.307
 6107WAT      O18562   1.253   1.072   5.996
 6107WAT     H118563   1.296   1.156   6.029
 6107WAT     H218564   1.204   1.091   5.911
 6108WAT      O18565   2.190   1.213   9.278
 6108WAT     H118566   2.176   1.311   9.270
 6108WAT     H218567   2.275   1.195   9.328
 6109WAT      O18568   1.752   7.163   5.368
 6109WAT     H118569   1.772   7.260   5.377
 6109WAT     H218570   1.674   7.151   5.306
 6110WAT      O18571   5.988   1.624   2.944
 6110WAT     H118572   5.979   1.630   2.845
 6110WAT     H218573   6.064   1.682   2.974
 6111WAT      O18574   6.231   1.686   9.369
 6111WAT     H118575   6.137   1.656   9.385
 6111WAT     H218576   6.245   1.697   9.270
 6112WAT      O18577   0.250   2.033   1.353
 6112WAT     H118578   0.335   1.985   1.374
 6112WAT     H218579   0.174   1.986   1.398
 6113WAT      O18580   8.528   7.415   4.375
 6113WAT     H118581   8.601   7.362   4.331
 6113WAT     H218582   8.560   7.448   4.464
 6114WAT      O18583   6.146   5.056   9.186
 6114WAT     H118584   6.172   5.024   9.277
 6114WAT     H218585   6.102   4.982   9.136
 6115WAT      O18586   2.101   3.766   3.718
 6115WAT     H118587   2.035   3.697   3.687
 6115WAT     H218588   2.053   3.836   3.770
 6116WAT      O18589   4.272   6.394   5.527
 6116WAT     H118590   4.300   6.433   5.439
 6116WAT     H218591   4.183   6.431   5.552
 6117WAT      O18592   2.916   2.675   5.659
 6117WAT     H118593   2.954   2.600   5.714
 6117WAT     H218594   2.981   2.699   5.587
 6118WAT      O18595   5.489   1.701   5.901
 6118WAT     H118596   5.480   1.611   5.945
 6118WAT     H218597   5.465   1.772   5.968
 6119WAT      O18598   0.667   3.515   7.259
 6119WAT     H118599   0.735   3.497   7.331
 6119WAT     H218600   0.634   3.609   7.267
 6120WAT      O18601   2.957   5.193   9.811
 6120WAT     H118602   2.955   5.231   9.719
 6120WAT     H218603   3.043   5.217   9.856
 6121WAT      O18604   4.697   2.733   9.611
 6121WAT     H118605   4.633   2.806   9.591
 6121WAT     H218606   4.706   2.723   9.710
 6122WAT      O18607   5.593   1.566   0.374
 6122WAT     H118608   5.538   1.510   0.312
 6122WAT     H218609   5.668   1.511   0.410
 6123WAT      O18610   4.610   7.670   9.366
 6123WAT     H118611   4.596   7.755   9.415
 6123WAT     H218612   4.569   7.677   9.275
 6124WAT      O18613   6.631   1.242   0.629
 6124WAT     H118614   6.585   1.213   0.545
 6124WAT     H218615   6.707   1.181   0.648
 6125WAT      O18616   9.700   3.533   2.986
 6125WAT     H118617   9.755   3.450   2.990
 6125WAT     H218618   9.732   3.598   3.055
 6126WAT      O18619   4.780   7.941   9.590
 6126WAT     H118620   4.814   8.027   9.551
 6126WAT     H218621   4.682   7.932   9.572
 6127WAT      O18622   2.806   2.520   8.478
 6127WAT     H118623   2.857   2.557   8.400
 6127WAT     H218624   2.862   2.452   8.525
 6128WAT      O18625   0.360   3.757   8.908
 6128WAT     H118626   0.446   3.808   8.912
 6128WAT     H218627   0.358   3.691   8.983
 6129WAT      O18628   8.949   1.184   9.240
 6129WAT     H118629   8.982   1.129   9.163
 6129WAT     H218630   9.018   1.183   9.313
 6130WAT      O18631   6.655   9.160   0.605
 6130WAT     H118632   6.700   9.149   0.694
 6130WAT     H218633   6.722   9.150   0.532
 6131WAT      O18634   4.685   2.793   0.391
 6131WAT     H118635   4.730   2.711   0.425
 6131WAT     H218636   4.591   2.772   0.364
 6132WAT      O18637   8.848   0.812   5.823
 6132WAT     H118638   8.805   0.895   5.858
 6132WAT     H218639   8.938   0.800   5.865
 6133WAT      O18640   4.225   9.027   7.451
 6133WAT     H118641   4.230   8.988   7.542
 6133WAT     H218642   4.309   9.077   7.431
 6134WAT      O18643   8.248   6.426   7.608
 6134WAT     H118644   8.206   6.339   7.583
 6134WAT     H218645   8.281   6.422   7.702
 6135WAT      O18646   7.728   2.264   9.854
 6135WAT     H118647   7.737   2.356   9.815
 6135WAT     H218648   7.740   2.196   9.782
 6136WAT      O18649   7.997   3.417   2.943
 6136WAT     H118650   7.900   3.427   2.965
 6136WAT     H218651   8.042   3.366   3.016
 6137WAT      O18652   6.271   4.711   7.843
 6137WAT     H118653   6.246   4.765   7.923
 6137WAT     H218654   6.366   4.726   7.820
 6138WAT      O18655   6.120   3.363   3.006
 6138WAT     H118656   6.107   3.378   3.104
 6138WAT     H218657   6.203   3.411   2.976
 6139WAT      O18658   7.579   9.420   7.647
 6139WAT     H118659   7.513   9.489   7.616
 6139WAT     H218660   7.537   9.330   7.643
 6140WAT      O18661   1.082   2.816   3.067
 6140WAT     H118662   1.108   2.912   3.074
 6140WAT     H218663   1.065   2.779   3.158
 6141WAT      O18664   0.434   4.659   8.092
 6141WAT     H118665   0.404   4.644   7.998
 6141WAT     H218666   0.359   4.638   8.154
 6142WAT      O18667   5.995   0.021   0.103
 6142WAT     H118668   5.918   0.028   0.040
 6142WAT     H218669   6.077   0.057   0.059
 6143WAT      O18670   7.594   7.688   2.453
 6143WAT     H118671   7.587   7.757   2.381
 6143WAT     H218672   7.596   7.597   2.411
 6144WAT      O18673   7.694   3.573   5.827
 6144WAT     H118674   7.714   3.537   5.918
 6144WAT     H218675   7.634   3.652   5.834
 6145WAT      O18676   1.253   9.217   3.344
 6145WAT     H118677   1.269   9.124   3.378
 6145WAT     H218678   1.323   9.240   3.277
 6146WAT      O18679   4.396   0.644   4.643
 6146WAT     H118680   4.463   0.576   4.674
 6146WAT     H218681   4.306   0.601   4.636
 6147WAT      O18682   7.207   5.831   4.576
 6147WAT     H118683   7.225   5.745   4.625
 6147WAT     H218684   7.112   5.858   4.591
 6148WAT      O18685   1.260   4.165   5.032
 6148WAT     H118686   1.288   4.260   5.023
 6148WAT     H218687   1.246   4.143   5.129
 6149WAT      O18688   5.527   1.334   8.722
 6149WAT     H118689   5.466   1.358   8.647
 6149WAT     H218690   5.538   1.413   8.782
 6150WAT      O18691   0.905   7.473   9.002
 6150WAT     H118692   0.861   7.560   8.982
 6150WAT     H218693   0.837   7.400   9.003
 6151WAT      O18694   2.814   3.170   1.050
 6151WAT     H118695   2.765   3.164   1.137
 6151WAT     H218696   2.793   3.258   1.006
 6152WAT      O18697   5.233   5.193   7.935
 6152WAT     H118698   5.326   5.216   7.906
 6152WAT     H218699   5.235   5.114   7.997
 6153WAT      O18700   3.167   3.043   2.515
 6153WAT     H118701   3.097   3.004   2.454
 6153WAT     H218702   3.250   2.987   2.509
 6154WAT      O18703   3.393   9.653   4.481
 6154WAT     H118704   3.324   9.593   4.442
 6154WAT     H218705   3.389   9.649   4.581
 6155WAT      O18706   4.076   6.194   2.437
 6155WAT     H118707   4.159   6.249   2.453
 6155WAT     H218708   4.101   6.110   2.389
 6156WAT      O18709   3.865   8.992   5.764
 6156WAT     H118710   3.877   9.079   5.716
 6156WAT     H218711   3.894   9.003   5.860
 6157WAT      O18712   2.716   5.121   1.486
 6157WAT     H118713   2.815   5.121   1.470
 6157WAT     H218714   2.675   5.043   1.438
 6158WAT      O18715   7.882   6.179   7.453
 6158WAT     H118716   7.806   6.143   7.399
 6158WAT     H218717   7.877   6.278   7.457
 6159WAT      O18718   5.995   8.540   4.648
 6159WAT     H118719   5.977   8.525   4.746
 6159WAT     H218720   5.909   8.535   4.597
 6160WAT      O18721   5.308   1.754   6.886
 6160WAT     H118722   5.223   1.766   6.835
 6160WAT     H218723   5.386   1.784   6.830
 6161WAT      O18724   2.465   6.130   7.458
 6161WAT     H118725   2.555   6.088   7.451
 6161WAT     H218726   2.396   6.058   7.465
 6162WAT      O18727   6.765   2.010   0.896
 6162WAT     H118728   6.810   2.030   0.809
 6162WAT     H218729   6.740   1.913   0.899
 6163WAT      O18730   0.323   2.140   1.008
 6163WAT     H118731   0.385   2.073   1.049
 6163WAT     H218732   0.325   2.225   1.061
 6164WAT      O18733   0.590   4.356   5.524
 6164WAT     H118734   0.645   4.336   5.605
 6164WAT     H218735   0.645   4.409   5.459
 6165WAT      O18736   2.159   9.354   2.083
 6165WAT     H118737   2.244   9.370   2.132
 6165WAT     H218738   2.168   9.272   2.026
 6166WAT      O18739   1.302   5.271   5.899
 6166WAT     H118740   1.223   5.299   5.844
 6166WAT     H218741   1.343   5.351   5.942
 6167WAT      O18742   2.072   5.304   2.316
 6167WAT     H118743   1.987   5.355   2.326
 6167WAT     H218744   2.113   5.324   2.227
 6168WAT      O18745   9.284   8.215   0.513
 6168WAT     H118746   9.318   8.239   0.422
 6168WAT     H218747   9.225   8.287   0.548
 6169WAT      O18748   6.680   1.722   6.989
 6169WAT     H118749   6.683   1.652   6.918
 6169WAT     H218750   6.586   1.730   7.023
 6170WAT      O18751   6.285   1.572   9.882
 6170WAT     H118752   6.249   1.578   9.975
 6170WAT     H218753   6.374   1.618   9.878
 6171WAT      O18754   5.763   2.894   6.594
 6171WAT     H118755   5.832   2.884   6.667
 6171WAT     H218756   5.794   2.846   6.512
 6172WAT      O18757   9.520   0.787   1.070
 6172WAT     H118758   9.424   0.808   1.084
 6172WAT     H218759   9.533   0.688   1.077
 6173WAT      O18760   9.487   0.476   3.964
 6173WAT     H118761   9.583   0.454   3.952
 6173WAT     H218762   9.433   0.431   3.894
 6174WAT      O18763   4.139   5.100   5.826
 6174WAT     H118764   4.064   5.165   5.840
 6174WAT     H218765   4.132   5.061   5.734
 6175WAT      O18766   1.618   8.778   6.704
 6175WAT     H118767   1.615   8.687   6.745
 6175WAT     H218768   1.528   8.802   6.670
 6176WAT      O18769   8.760   6.375   3.971
 6176WAT     H118770   8.780   6.286   4.012
 6176WAT     H218771   8.842   6.431   3.971
 6177WAT      O18772   7.606   3.350   4.305
 6177WAT     H118773   7.515   3.392   4.302
 6177WAT     H218774   7.676   3.422   4.313
 6178WAT      O18775   1.926   5.884   3.425
 6178WAT     H118776   2.023   5.897   3.407
 6178WAT     H218777   1.912   5.875   3.524
 6179WAT      O18778   7.585   1.022   7.476
 6179WAT     H118779   7.622   0.981   7.393
 6179WAT     H218780   7.649   1.009   7.552
 6180WAT      O18781   3.229   7.247   2.199
 6180WAT     H118782   3.168   7.296   2.261
 6180WAT     H218783   3.286   7.184   2.251
 6181WAT      O18784   6.675   3.782   9.245
 6181WAT     H118785   6.733   3.758   9.167
 6181WAT     H218786   6.664   3.882   9.249
 6182WAT      O18787   5.453   3.598   5.967
 6182WAT     H118788   5.421   3.579   5.875
 6182WAT     H218789   5.553   3.603   5.968
 6183WAT      O18790   1.625   8.700   4.316
 6183WAT     H118791   1.663   8.747   4.237
 6183WAT     H218792   1.588   8.611   4.288
 6184WAT      O18793   7.059   7.923   3.043
 6184WAT     H118794   7.056   7.954   3.138
 6184WAT     H218795   7.153   7.922   3.010
 6185WAT      O18796   4.202   6.986   8.816
 6185WAT     H118797   4.254   6.991   8.731
 6185WAT     H218798   4.133   7.058   8.817
 6186WAT      O18799   6.962   3.740   0.265
 6186WAT     H118800   7.062   3.739   0.258
 6186WAT     H218801   6.936   3.735   0.362
 6187WAT      O18802   7.992   9.412   3.569
 6187WAT     H118803   7.921   9.482   3.573
 6187WAT     H218804   8.079   9.451   3.601
 6188WAT      O18805   0.800   9.375   1.905
 6188WAT     H118806   0.895   9.355   1.929
 6188WAT     H218807   0.760   9.437   1.972
 6189WAT      O18808   1.103   8.741   1.461
 6189WAT     H118809   1.069   8.815   1.517
 6189WAT     H218810   1.199   8.759   1.436
 6190WAT      O18811   9.772   4.298   2.004
 6190WAT     H118812   9.733   4.306   2.095
 6190WAT     H218813   9.868   4.268   2.011
 6191WAT      O18814   7.131   3.572   6.266
 6191WAT     H118815   7.149   3.482   6.306
 6191WAT     H218816   7.215   3.607   6.225
 6192WAT      O18817   3.341   5.364   1.904
 6192WAT     H118818   3.337   5.463   1.899
 6192WAT     H218819   3.258   5.329   1.948
 6193WAT      O18820   8.804   4.092   1.415
 6193WAT     H118821   8.837   4.035   1.490
 6193WAT     H218822   8.704   4.088   1.412
 6194WAT      O18823   3.779   0.501   5.622
 6194WAT     H118824   3.752   0.443   5.544
 6194WAT     H218825   3.763   0.597   5.599
 6195WAT      O18826   4.849   6.766   4.511
 6195WAT     H118827   4.928   6.705   4.498
 6195WAT     H218828   4.836   6.820   4.428
 6196WAT      O18829   1.901   5.432   4.653
 6196WAT     H118830   1.870   5.527   4.640
 6196WAT     H218831   1.823   5.376   4.681
 6197WAT      O18832   9.701   2.821   2.589
 6197WAT     H118833   9.775   2.791   2.529
 6197WAT     H218834   9.678   2.746   2.652
 6198WAT      O18835   2.107   8.519   0.885
 6198WAT     H118836   2.083   8.428   0.853
 6198WAT     H218837   2.124   8.517   0.984
 6199WAT      O18838   9.738   8.264   0.292
 6199WAT     H118839   9.794   8.283   0.211
 6199WAT     H218840   9.786   8.199   0.351
 6200WAT      O18841   8.813   0.487   4.914
 6200WAT     H118842   8.869   0.565   4.887
 6200WAT     H218843   8.818   0.416   4.843
 6201WAT      O18844   8.247   9.283   0.371
 6201WAT     H118845   8.168   9.251   0.319
 6201WAT     H218846   8.261   9.224   0.450
 6202WAT      O18847   2.909   4.554   7.628
 6202WAT     H118848   2.903   4.651   7.604
 6202WAT     H218849   3.004   4.524   7.624
 6203WAT      O18850   2.498   0.576   5.507
 6203WAT     H118851   2.443   0.576   5.424
 6203WAT     H218852   2.443   0.543   5.584
 6204WAT      O18853   2.734   8.570   7.856
 6204WAT     H118854   2.696   8.506   7.923
 6204WAT     H218855   2.795   8.521   7.794
 6205WAT      O18856   5.285   8.537   0.840
 6205WAT     H118857   5.351   8.544   0.915
 6205WAT     H218858   5.212   8.474   0.865
 6206WAT      O18859   5.859   4.218   8.371
 6206WAT     H118860   5.803   4.299   8.355
 6206WAT     H218861   5.837   4.148   8.304
 6207WAT      O18862   0.569   0.821   7.353
 6207WAT     H118863   0.587   0.907   7.401
 6207WAT     H218864   0.655   0.781   7.322
 6208WAT      O18865   9.179   4.367   4.791
 6208WAT     H118866   9.100   4.428   4.793
 6208WAT     H218867   9.150   4.275   4.767
 6209WAT      O18868   5.121   8.680   7.534
 6209WAT     H118869   5.136   8.595   7.584
 6209WAT     H218870   5.208   8.718   7.504
 6210WAT      O18871   5.504   0.114   1.253
 6210WAT     H118872   5.534   0.209   1.261
 6210WAT     H218873   5.581   0.053   1.273
 6211WAT      O18874   6.569   5.752   7.054
 6211WAT     H118875   6.583   5.705   6.967
 6211WAT     H218876   6.605   5.845   7.047
 6212WAT      O18877   8.950   9.831   6.161
 6212WAT     H118878   8.931   9.906   6.097
 6212WAT     H218879   9.028   9.856   6.219
 6213WAT      O18880   3.179   3.367   0.588
 6213WAT     H118881   3.188   3.325   0.497
 6213WAT     H218882   3.259   3.424   0.606
 6214WAT      O18883   4.468   7.845   0.737
 6214WAT     H118884   4.562   7.865   0.763
 6214WAT     H218885   4.455   7.866   0.640
 6215WAT      O18886   1.265   5.619   8.451
 6215WAT     H118887   1.217   5.543   8.407
 6215WAT     H218888   1.288   5.688   8.383
 6216WAT      O18889   5.176   2.664   1.550
 6216WAT     H118890   5.175   2.565   1.537
 6216WAT     H218891   5.101   2.705   1.498
 6217WAT      O18892   0.318   7.568   6.282
 6217WAT     H118893   0.336   7.473   6.257
 6217WAT     H218894   0.247   7.605   6.223
 6218WAT      O18895   1.268   5.025   2.871
 6218WAT     H118896   1.333   5.081   2.820
 6218WAT     H218897   1.243   4.945   2.816
 6219WAT      O18898   1.661   8.271   2.815
 6219WAT     H118899   1.586   8.327   2.851
 6219WAT     H218900   1.732   8.262   2.885
 6220WAT      O18901   6.852   5.586   8.683
 6220WAT     H118902   6.907   5.517   8.729
 6220WAT     H218903   6.881   5.677   8.713
 6221WAT      O18904   3.555   8.247   3.928
 6221WAT     H118905   3.494   8.322   3.904
 6221WAT     H218906   3.512   8.189   3.998
 6222WAT      O18907   4.825   4.263   5.466
 6222WAT     H118908   4.865   4.183   5.511
 6222WAT     H218909   4.772   4.234   5.387
 6223WAT      O18910   2.037   3.939   2.970
 6223WAT     H118911   1.989   3.942   3.058
 6223WAT     H218912   2.127   3.897   2.983
 6224WAT      O18913   2.618   1.925   6.234
 6224WAT     H118914   2.542   1.925   6.300
 6224WAT     H218915   2.704   1.916   6.283
 6225WAT      O18916   2.939   7.350   2.599
 6225WAT     H118917   2.901   7.434   2.560
 6225WAT     H218918   3.006   7.373   2.669
 6226WAT      O18919   0.126   1.027   1.372
 6226WAT     H118920   0.136   0.973   1.456
 6226WAT     H218921   0.173   0.981   1.297
 6227WAT      O18922   2.568   2.866   4.070
 6227WAT     H118923   2.555   2.777   4.028
 6227WAT     H218924   2.663   2.875   4.101
 6228WAT      O18925   3.158   4.663   0.729
 6228WAT     H118926   3.248   4.621   0.742
 6228WAT     H218927   3.144   4.734   0.797
 6229WAT      O18928   7.385   3.575   3.261
 6229WAT     H118929   7.369   3.661   3.310
 6229WAT     H218930   7.477   3.542   3.282
 6230WAT      O18931   1.909   0.780   8.868
 6230WAT     H118932   1.986   0.741   8.919
 6230WAT     H218933   1.916   0.752   8.772
 6231WAT      O18934   7.341   8.255   5.118
 6231WAT     H118935   7.314   8.336   5.066
 6231WAT     H218936   7.283   8.178   5.093
 6232WAT      O18937   7.036   4.654   8.742
 6232WAT     H118938   6.969   4.726   8.723
 6232WAT     H218939   7.128   4.691   8.731
 6233WAT      O18940   4.243   8.657   0.832
 6233WAT     H118941   4.150   8.695   0.827
 6233WAT     H218942   4.281   8.649   0.740
 6234WAT      O18943   8.104   3.744   2.755
 6234WAT     H118944   8.008   3.766   2.775
 6234WAT     H218945   8.129   3.785   2.668
 6235WAT      O18946   2.440   2.372   6.368
 6235WAT     H118947   2.494   2.294   6.397
 6235WAT     H218948   2.397   2.352   6.280
 6236WAT      O18949   5.483   7.370   1.005
 6236WAT     H118950   5.400   7.315   1.005
 6236WAT     H218951   5.462   7.462   0.973
 6237WAT      O18952   5.977   9.600   7.310
 6237WAT     H118953   5.903   9.538   7.286
 6237WAT     H218954   5.952   9.652   7.392
 6238WAT      O18955   5.507   6.262   7.767
 6238WAT     H118956   5.515   6.302   7.858
 6238WAT     H218957   5.590   6.279   7.715
 6239WAT      O18958   9.147   8.013   6.028
 6239WAT     H118959   9.194   7.938   5.981
 6239WAT     H218960   9.184   8.023   6.121
 6240WAT      O18961   0.643   1.589   7.699
 6240WAT     H118962   0.726   1.540   7.725
 6240WAT     H218963   0.608   1.641   7.777
 6241WAT      O18964   9.365   3.728   3.309
 6241WAT     H118965   9.350   3.645   3.254
 6241WAT     H218966   9.461   3.734   3.335
 6242WAT      O18967   1.727   5.513   3.319
 6242WAT     H118968   1.733   5.469   3.230
 6242WAT     H218969   1.633   5.544   3.335
 6243WAT      O18970   1.869   0.722   8.343
 6243WAT     H118971   1.832   0.775   8.267
 6243WAT     H218972   1.793   0.689   8.400
 6244WAT      O18973   4.473   4.525   6.674
 6244WAT     H118974   4.400   4.486   6.730
 6244WAT     H218975   4.501   4.613   6.714
 6245WAT      O18976   0.261   5.145   7.528
 6245WAT     H118977   0.222   5.180   7.613
 6245WAT     H218978   0.192   5.091   7.479
 6246WAT      O18979   4.881   3.921   5.349
 6246WAT     H118980   4.922   3.924   5.440
 6246WAT     H218981   4.822   3.841   5.341
 6247WAT      O18982   2.266   4.457   1.828
 6247WAT     H118983   2.185   4.508   1.858
 6247WAT     H218984   2.344   4.483   1.883
 6248WAT      O18985   1.280   4.417   4.633
 6248WAT     H118986   1.208   4.461   4.687
 6248WAT     H218987   1.359   4.478   4.626
 6249WAT      O18988   8.220   1.653   0.583
 6249WAT     H118989   8.230   1.596   0.665
 6249WAT     H218990   8.141   1.623   0.530
 6250WAT      O18991   3.735   4.155   0.774
 6250WAT     H118992   3.734   4.058   0.750
 6250WAT     H218993   3.820   4.177   0.822
 6251WAT      O18994   8.076   0.784   4.933
 6251WAT     H118995   8.052   0.769   5.028
 6251WAT     H218996   8.119   0.702   4.895
 6252WAT      O18997   3.069   8.789   5.344
 6252WAT     H118998   3.152   8.745   5.308
 6252WAT     H218999   3.068   8.885   5.316
 6253WAT      O19000   0.421   1.215   8.277
 6253WAT     H119001   0.488   1.160   8.228
 6253WAT     H219002   0.355   1.155   8.323
 6254WAT      O19003   6.295   8.643   6.033
 6254WAT     H119004   6.370   8.608   6.089
 6254WAT     H219005   6.228   8.688   6.092
 6255WAT      O19006   3.021   3.870   3.980
 6255WAT     H119007   3.025   3.772   3.999
 6255WAT     H219008   3.088   3.893   3.910
 6256WAT      O19009   6.988   0.748   6.301
 6256WAT     H119010   7.002   0.665   6.354
 6256WAT     H219011   6.969   0.725   6.205
 6257WAT      O19012   2.670   5.947   7.430
 6257WAT     H119013   2.759   5.979   7.397
 6257WAT     H219014   2.636   5.874   7.370
 6258WAT      O19015   6.440   3.980   5.120
 6258WAT     H119016   6.398   3.937   5.040
 6258WAT     H219017   6.434   3.918   5.198
 6259WAT      O19018   5.476   9.677   6.754
 6259WAT     H119019   5.491   9.608   6.824
 6259WAT     H219020   5.518   9.763   6.782
 6260WAT      O19021   5.352   6.362   6.687
 6260WAT     H119022   5.302   6.360   6.600
 6260WAT     H219023   5.439   6.409   6.674
 6261WAT      O19024   2.393   3.749   7.350
 6261WAT     H119025   2.301   3.719   7.373
 6261WAT     H219026   2.394   3.848   7.336
 6262WAT      O19027   2.476   0.438   7.146
 6262WAT     H119028   2.464   0.448   7.047
 6262WAT     H219029   2.389   0.453   7.191
 6263WAT      O19030   2.194   5.042   4.756
 6263WAT     H119031   2.175   5.103   4.679
 6263WAT     H219032   2.206   5.097   4.839
 6264WAT      O19033   1.838   2.671   2.825
 6264WAT     H119034   1.739   2.672   2.842
 6264WAT     H219035   1.881   2.748   2.873
 6265WAT      O19036   8.026   2.771   1.076
 6265WAT     H119037   7.959   2.703   1.105
 6265WAT     H219038   8.092   2.786   1.149
 6266WAT      O19039   5.628   3.418   8.404
 6266WAT     H119040   5.529   3.412   8.391
 6266WAT     H219041   5.671   3.334   8.372
 6267WAT      O19042   2.127   3.711   6.627
 6267WAT     H119043   2.187   3.632   6.634
 6267WAT     H219044   2.113   3.735   6.531
 6268WAT      O19045   2.255   4.747   5.345
 6268WAT     H119046   2.342   4.701   5.360
 6268WAT     H219047   2.268   4.823   5.281
 6269WAT      O19048   1.638   0.769   8.874
 6269WAT     H119049   1.604   0.846   8.929
 6269WAT     H219050   1.738   0.765   8.881
 6270WAT      O19051   9.708   0.863   4.721
 6270WAT     H119052   9.784   0.915   4.761
 6270WAT     H219053   9.655   0.821   4.795
 6271WAT      O19054   0.802   8.841   2.314
 6271WAT     H119055   0.728   8.825   2.249
 6271WAT     H219056   0.870   8.769   2.305
 6272WAT      O19057   9.338   0.381   2.894
 6272WAT     H119058   9.377   0.356   2.805
 6272WAT     H219059   9.314   0.478   2.893
 6273WAT      O19060   1.498   1.011   2.785
 6273WAT     H119061   1.527   0.976   2.696
 6273WAT     H219062   1.563   0.981   2.855
 6274WAT      O19063   5.708   5.156   0.661
 6274WAT     H119064   5.797   5.127   0.696
 6274WAT     H219065   5.716   5.174   0.563
 6275WAT      O19066   9.322   3.184   2.564
 6275WAT     H119067   9.374   3.099   2.556
 6275WAT     H219068   9.386   3.261   2.570
 6276WAT      O19069   5.276   0.416   7.298
 6276WAT     H119070   5.297   0.486   7.367
 6276WAT     H219071   5.243   0.333   7.343
 6277WAT      O19072   4.509   3.063   6.300
 6277WAT     H119073   4.546   3.136   6.357
 6277WAT     H219074   4.412   3.051   6.320
 6278WAT      O19075   3.737   8.011   6.701
 6278WAT     H119076   3.710   7.971   6.613
 6278WAT     H219077   3.727   7.942   6.773
 6279WAT      O19078   6.711   3.193   7.273
 6279WAT     H119079   6.797   3.160   7.312
 6279WAT     H219080   6.672   3.262   7.333
 6280WAT      O19081   5.457   0.956   4.157
 6280WAT     H119082   5.423   0.896   4.085
 6280WAT     H219083   5.430   0.921   4.246
 6281WAT      O19084   1.458   9.618   0.948
 6281WAT     H119085   1.531   9.640   0.883
 6281WAT     H219086   1.497   9.592   1.036
 6282WAT      O19087   8.198   0.315   4.002
 6282WAT     H119088   8.136   0.391   4.020
 6282WAT     H219089   8.146   0.234   3.975
 6283WAT      O19090   1.615   1.045   1.178
 6283WAT     H119091   1.554   1.108   1.130
 6283WAT     H219092   1.648   1.087   1.262
 6284WAT      O19093   4.230   8.404   7.741
 6284WAT     H119094   4.215   8.378   7.646
 6284WAT     H219095   4.145   8.439   7.780
 6285WAT      O19096   9.255   7.172   3.547
 6285WAT     H119097   9.249   7.101   3.617
 6285WAT     H219098   9.317   7.142   3.475
 6286WAT      O19099   2.194   0.284   7.011
 6286WAT     H119100   2.276   0.336   6.985
 6286WAT     H219101   2.134   0.342   7.066
 6287WAT      O19102   6.406   3.477   1.083
 6287WAT     H119103   6.431   3.388   1.044
 6287WAT     H219104   6.383   3.465   1.180
 6288WAT      O19105   8.976   6.381   1.646
 6288WAT     H119106   9.035   6.437   1.705
 6288WAT     H219107   8.915   6.326   1.702
 6289WAT      O19108   5.200   3.627   6.038
 6289WAT     H119109   5.177   3.614   6.134
 6289WAT     H219110   5.299   3.622   6.026
 6290WAT      O19111   0.900   0.571   6.137
 6290WAT     H119112   0.812   0.598   6.098
 6290WAT     H219113   0.965   0.554   6.064
 6291WAT      O19114   9.055   2.465   9.659
 6291WAT     H119115   9.150   2.494   9.672
 6291WAT     H219116   9.006   2.472   9.746
 6292WAT      O19117   5.183   1.940   6.336
 6292WAT     H119118   5.167   1.997   6.256
 6292WAT     H219119   5.146   1.849   6.320
 6293WAT      O19120   6.122   0.691   9.190
 6293WAT     H119121   6.040   0.647   9.153
 6293WAT     H219122   6.100   0.734   9.278
 6294WAT      O19123   3.590   9.148   7.986
 6294WAT     H119124   3.634   9.232   8.016
 6294WAT     H219125   3.596   9.141   7.886
 6295WAT      O19126   4.610   1.360   8.805
 6295WAT     H119127   4.543   1.397   8.740
 6295WAT     H219128   4.699   1.401   8.787
 6296WAT      O19129   3.248   2.919   8.468
 6296WAT     H119130   3.257   2.909   8.567
 6296WAT     H219131   3.324   2.872   8.423
 6297WAT      O19132   1.729   7.804   3.661
 6297WAT     H119133   1.671   7.760   3.593
 6297WAT     H219134   1.800   7.858   3.614
 6298WAT      O19135   5.635   1.836   9.209
 6298WAT     H119136   5.623   1.933   9.190
 6298WAT     H219137   5.710   1.824   9.274
 6299WAT      O19138   2.159   3.831   1.838
 6299WAT     H119139   2.197   3.865   1.924
 6299WAT     H219140   2.070   3.872   1.822
 6300WAT      O19141   8.187   9.671   0.313
 6300WAT     H119142   8.152   9.673   0.407
 6300WAT     H219143   8.275   9.624   0.312
 6301WAT      O19144   8.642   5.897   2.648
 6301WAT     H119145   8.635   5.857   2.557
 6301WAT     H219146   8.570   5.859   2.706
 6302WAT      O19147   3.107   3.310   4.555
 6302WAT     H119148   3.157   3.397   4.551
 6302WAT     H219149   3.022   3.318   4.504
 6303WAT      O19150   7.421   4.940   2.309
 6303WAT     H119151   7.405   4.969   2.214
 6303WAT     H219152   7.346   4.972   2.366
 6304WAT      O19153   8.309   5.401   2.057
 6304WAT     H119154   8.398   5.388   2.100
 6304WAT     H219155   8.241   5.344   2.104
 6305WAT      O19156   8.428   5.794   4.396
 6305WAT     H119157   8.465   5.867   4.454
 6305WAT     H219158   8.503   5.740   4.359
 6306WAT      O19159   0.476   1.453   2.051
 6306WAT     H119160   0.528   1.515   1.992
 6306WAT     H219161   0.479   1.487   2.145
 6307WAT      O19162   2.456   4.201   8.789
 6307WAT     H119163   2.530   4.146   8.752
 6307WAT     H219164   2.382   4.141   8.819
 6308WAT      O19165   6.008   2.987   4.475
 6308WAT     H119166   5.969   2.903   4.512
 6308WAT     H219167   5.958   3.014   4.393
 6309WAT      O19168   9.152   1.273   7.958
 6309WAT     H119169   9.079   1.260   7.891
 6309WAT     H219170   9.196   1.362   7.941
 6310WAT      O19171   1.111   1.648   1.292
 6310WAT     H119172   1.187   1.668   1.231
 6310WAT     H219173   1.070   1.733   1.325
 6311WAT      O19174   4.784   5.262   2.350
 6311WAT     H119175   4.694   5.278   2.391
 6311WAT     H219176   4.847   5.334   2.378
 6312WAT      O19177   8.815   8.232   5.807
 6312WAT     H119178   8.877   8.305   5.837
 6312WAT     H219179   8.823   8.154   5.869
 6313WAT      O19180   4.675   1.487   8.067
 6313WAT     H119181   4.695   1.397   8.105
 6313WAT     H219182   4.758   1.527   8.028
 6314WAT      O19183   4.470   3.423   6.519
 6314WAT     H119184   4.507   3.359   6.586
 6314WAT     H219185   4.378   3.452   6.547
 6315WAT      O19186   4.335   1.034   5.110
 6315WAT     H119187   4.247   1.031   5.157
 6315WAT     H219188   4.408   1.011   5.174
 6316WAT      O19189   6.583   8.379   5.245
 6316WAT     H119190   6.625   8.467   5.225
 6316WAT     H219191   6.653   8.308   5.248
 6317WAT      O19192   7.907   8.086   6.609
 6317WAT     H119193   7.980   8.090   6.677
 6317WAT     H219194   7.918   8.160   6.544
 6318WAT      O19195   9.347   6.858   3.287
 6318WAT     H119196   9.399   6.773   3.281
 6318WAT     H219197   9.410   6.934   3.306
 6319WAT      O19198   1.348   0.937   6.478
 6319WAT     H119199   1.314   0.891   6.560
 6319WAT     H219200   1.445   0.956   6.488
 6320WAT      O19201   5.558   5.780   3.701
 6320WAT     H119202   5.577   5.861   3.757
 6320WAT     H219203   5.463   5.751   3.715
 6321WAT      O19204   4.244   4.782   8.821
 6321WAT     H119205   4.339   4.798   8.845
 6321WAT     H219206   4.236   4.770   8.722
 6322WAT      O19207   8.070   6.660   1.621
 6322WAT     H119208   8.026   6.571   1.629
 6322WAT     H219209   8.095   6.694   1.712
 6323WAT      O19210   0.340   5.615   4.189
 6323WAT     H119211   0.393   5.699   4.181
 6323WAT     H219212   0.402   5.536   4.185
 6324WAT      O19213   9.698   5.255   7.762
 6324WAT     H119214   9.657   5.346   7.759
 6324WAT     H219215   9.633   5.188   7.724
 6325WAT      O19216   6.049   7.197   4.718
 6325WAT     H119217   6.006   7.111   4.745
 6325WAT     H219218   6.118   7.179   4.648
 6326WAT      O19219   1.781   0.103   3.873
 6326WAT     H119220   1.710   0.034   3.882
 6326WAT     H219221   1.754   0.170   3.804
 6327WAT      O19222   7.392   8.779   5.046
 6327WAT     H119223   7.439   8.802   4.961
 6327WAT     H219224   7.416   8.846   5.117
 6328WAT      O19225   5.752   6.531   0.336
 6328WAT     H119226   5.741   6.630   0.331
 6328WAT     H219227   5.669   6.490   0.374
 6329WAT      O19228   4.066   4.209   8.186
 6329WAT     H119229   3.985   4.150   8.187
 6329WAT     H219230   4.105   4.211   8.094
 6330WAT      O19231   6.947   2.112   6.689
 6330WAT     H119232   6.907   2.046   6.626
 6330WAT     H219233   6.997   2.182   6.638
 6331WAT      O19234   9.336   3.274   3.912
 6331WAT     H119235   9.310   3.345   3.847
 6331WAT     H219236   9.394   3.207   3.865
 6332WAT      O19237   2.020   2.502   1.057
 6332WAT     H119238   1.930   2.513   1.015
 6332WAT     H219239   2.013   2.442   1.137
 6333WAT      O19240   6.943   4.371   8.119
 6333WAT     H119241   7.041   4.368   8.136
 6333WAT     H219242   6.924   4.430   8.040
 6334WAT      O19243   4.954   8.244   8.792
 6334WAT     H119244   4.866   8.289   8.778
 6334WAT     H219245   4.996   8.279   8.876
 6335WAT      O19246   5.284   0.170   5.048
 6335WAT     H119247   5.275   0.269   5.039
 6335WAT     H219248   5.253   0.142   5.139
 6336WAT      O19249   1.413   6.979   3.097
 6336WAT     H119250   1.501   7.023   3.078
 6336WAT     H219251   1.430   6.886   3.132
 6337WAT      O19252   9.734   0.913   4.003
 6337WAT     H119253   9.728   0.974   4.082
 6337WAT     H219254   9.807   0.846   4.018
 6338WAT      O19255   0.249   0.624   3.221
 6338WAT     H119256   0.149   0.614   3.221
 6338WAT     H219257   0.290   0.543   3.262
 6339WAT      O19258   6.997   0.342   5.764
 6339WAT     H119259   6.915   0.316   5.814
 6339WAT     H219260   7.068   0.273   5.777
 6340WAT      O19261   0.324   3.265   7.271
 6340WAT     H119262   0.350   3.360   7.252
 6340WAT     H219263   0.225   3.260   7.285
 6341WAT      O19264   6.081   7.771   1.518
 6341WAT     H119265   6.123   7.777   1.609
 6341WAT     H219266   6.003   7.834   1.512
 6342WAT      O19267   4.140   3.073   2.285
 6342WAT     H119268   4.219   3.105   2.339
 6342WAT     H219269   4.059   3.070   2.344
 6343WAT      O19270   7.028   6.219   2.813
 6343WAT     H119271   6.993   6.312   2.826
 6343WAT     H219272   7.008   6.165   2.894
 6344WAT      O19273   3.692   0.114   4.560
 6344WAT     H119274   3.693   0.120   4.660
 6344WAT     H219275   3.667   0.021   4.532
 6345WAT      O19276   1.813   8.902   1.917
 6345WAT     H119277   1.881   8.830   1.900
 6345WAT     H219278   1.848   8.990   1.884
 6346WAT      O19279   1.979   1.574   6.874
 6346WAT     H119280   2.050   1.577   6.944
 6346WAT     H219281   1.896   1.619   6.908
 6347WAT      O19282   1.589   7.815   5.669
 6347WAT     H119283   1.601   7.715   5.670
 6347WAT     H219284   1.518   7.841   5.735
 6348WAT      O19285   3.588   2.914   3.796
 6348WAT     H119286   3.528   2.989   3.824
 6348WAT     H219287   3.590   2.844   3.867
 6349WAT      O19288   8.272   9.096   3.321
 6349WAT     H119289   8.317   9.020   3.369
 6349WAT     H219290   8.335   9.135   3.255
 6350WAT      O19291   1.617   6.227   1.433
 6350WAT     H119292   1.594   6.146   1.378
 6350WAT     H219293   1.675   6.199   1.509
 6351WAT      O19294   9.355   6.913   8.550
 6351WAT     H119295   9.284   6.867   8.603
 6351WAT     H219296   9.325   6.922   8.455
 6352WAT      O19297   3.323   4.983   0.751
 6352WAT     H119298   3.409   4.964   0.703
 6352WAT     H219299   3.261   5.030   0.689
 6353WAT      O19300   9.183   2.612   7.339
 6353WAT     H119301   9.172   2.703   7.380
 6353WAT     H219302   9.161   2.542   7.407
 6354WAT      O19303   3.894   2.565   8.285
 6354WAT     H119304   3.912   2.506   8.363
 6354WAT     H219305   3.924   2.520   8.201
 6355WAT      O19306   0.976   8.837   0.087
 6355WAT     H119307   0.952   8.751   0.041
 6355WAT     H219308   1.071   8.860   0.067
 6356WAT      O19309   1.525   5.011   9.437
 6356WAT     H119310   1.472   5.070   9.376
 6356WAT     H219311   1.621   5.016   9.413
 6357WAT      O19312   8.219   4.869   6.552
 6357WAT     H119313   8.192   4.960   6.521
 6357WAT     H219314   8.192   4.858   6.648
 6358WAT      O19315   7.568   2.443   1.006
 6358WAT     H119316   7.489   2.404   1.054
 6358WAT     H219317   7.548   2.539   0.983
 6359WAT      O19318   2.083   1.954   8.314
 6359WAT     H119319   2.106   1.857   8.302
 6359WAT     H219320   2.165   2.009   8.303
 6360WAT      O19321   0.434   1.977   4.773
 6360WAT     H119322   0.336   1.969   4.758
 6360WAT     H219323   0.467   1.899   4.826
 6361WAT      O19324   9.689   7.639   6.831
 6361WAT     H119325   9.601   7.604   6.799
 6361WAT     H219326   9.696   7.626   6.930
 6362WAT      O19327   1.657   7.743   4.440
 6362WAT     H119328   1.630   7.838   4.456
 6362WAT     H219329   1.578   7.692   4.405
 6363WAT      O19330   4.669   8.829   5.556
 6363WAT     H119331   4.727   8.809   5.478
 6363WAT     H219332   4.722   8.877   5.626
 6364WAT      O19333   9.757   6.461   4.035
 6364WAT     H119334   9.746   6.558   4.017
 6364WAT     H219335   9.819   6.448   4.113
 6365WAT      O19336   7.238   1.811   6.620
 6365WAT     H119337   7.234   1.792   6.719
 6365WAT     H219338   7.182   1.744   6.572
 6366WAT      O19339   3.605   3.075   8.609
 6366WAT     H119340   3.526   3.124   8.646
 6366WAT     H219341   3.597   3.069   8.509
 6367WAT      O19342   1.671   5.039   0.210
 6367WAT     H119343   1.700   5.088   0.293
 6367WAT     H219344   1.697   5.092   0.129
 6368WAT      O19345   9.446   0.912   3.977
 6368WAT     H119346   9.427   0.923   4.075
 6368WAT     H219347   9.544   0.918   3.962
 6369WAT      O19348   2.924   6.762   8.277
 6369WAT     H119349   2.936   6.728   8.184
 6369WAT     H219350   2.833   6.803   8.287
 6370WAT      O19351   4.276   3.278   3.817
 6370WAT     H119352   4.361   3.330   3.827
 6370WAT     H219353   4.289   3.185   3.852
 6371WAT      O19354   8.603   5.988   3.912
 6371WAT     H119355   8.535   6.052   3.948
 6371WAT     H219356   8.556   5.915   3.863
 6372WAT      O19357   9.750   2.133   7.649
 6372WAT     H119358   9.685   2.090   7.587
 6372WAT     H219359   9.780   2.220   7.611
 6373WAT      O19360   7.184   5.539   9.433
 6373WAT     H119361   7.194   5.443   9.459
 6373WAT     H219362   7.087   5.559   9.421
 6374WAT      O19363   3.928   3.583   0.795
 6374WAT     H119364   3.960   3.633   0.715
 6374WAT     H219365   3.832   3.559   0.783
 6375WAT      O19366   7.360   4.572   6.006
 6375WAT     H119367   7.346   4.496   6.070
 6375WAT     H219368   7.433   4.548   5.942
 6376WAT      O19369   8.348   1.160   0.414
 6376WAT     H119370   8.261   1.153   0.365
 6376WAT     H219371   8.333   1.142   0.511
 6377WAT      O19372   0.984   7.810   9.672
 6377WAT     H119373   0.959   7.737   9.736
 6377WAT     H219374   1.070   7.786   9.627
 6378WAT      O19375   0.572   6.584   8.998
 6378WAT     H119376   0.666   6.550   9.009
 6378WAT     H219377   0.524   6.528   8.931
 6379WAT      O19378   9.417   6.360   6.437
 6379WAT     H119379   9.345   6.426   6.414
 6379WAT     H219380   9.491   6.407   6.485
 6380WAT      O19381   9.034   5.225   1.543
 6380WAT     H119382   8.973   5.247   1.467
 6380WAT     H219383   9.045   5.126   1.549
 6381WAT      O19384   2.045   1.012   0.171
 6381WAT     H119385   1.985   1.014   0.091
 6381WAT     H219386   2.127   0.959   0.150
 6382WAT      O19387   7.188   7.231   4.387
 6382WAT     H119388   7.131   7.198   4.462
 6382WAT     H219389   7.131   7.277   4.320
 6383WAT      O19390   8.701   0.938   0.436
 6383WAT     H119391   8.622   0.902   0.387
 6383WAT     H219392   8.778   0.874   0.426
 6384WAT      O19393   5.987   4.573   8.202
 6384WAT     H119394   6.032   4.505   8.261
 6384WAT     H219395   5.986   4.662   8.248
 6385WAT      O19396   5.190   3.876   3.919
 6385WAT     H119397   5.172   3.794   3.865
 6385WAT     H219398   5.199   3.852   4.015
 6386WAT      O19399   2.708   8.485   9.804
 6386WAT     H119400   2.687   8.433   9.721
 6386WAT     H219401   2.706   8.423   9.883
 6387WAT      O19402   9.548   2.758   3.143
 6387WAT     H119403   9.521   2.762   3.239
 6387WAT     H219404   9.593   2.843   3.117
 6388WAT      O19405   5.735   9.693   1.780
 6388WAT     H119406   5.699   9.746   1.857
 6388WAT     H219407   5.705   9.733   1.694
 6389WAT      O19408   0.858   0.661   3.855
 6389WAT     H119409   0.874   0.570   3.894
 6389WAT     H219410   0.946   0.705   3.837
 6390WAT      O19411   1.548   5.311   6.358
 6390WAT     H119412   1.603   5.319   6.275
 6390WAT     H219413   1.575   5.230   6.409
 6391WAT      O19414   3.732   0.321   2.733
 6391WAT     H119415   3.761   0.248   2.671
 6391WAT     H219416   3.701   0.281   2.819
 6392WAT      O19417   1.670   3.483   4.499
 6392WAT     H119418   1.582   3.437   4.510
 6392WAT     H219419   1.730   3.427   4.441
 6393WAT      O19420   8.799   6.578   1.583
 6393WAT     H119421   8.868   6.507   1.599
 6393WAT     H219422   8.844   6.668   1.581
 6394WAT      O19423   7.496   7.120   8.482
 6394WAT     H119424   7.546   7.058   8.543
 6394WAT     H219425   7.497   7.212   8.522
 6395WAT      O19426   5.732   1.350   2.967
 6395WAT     H119427   5.668   1.280   3.000
 6395WAT     H219428   5.755   1.332   2.872
 6396WAT      O19429   3.563   5.210   6.563
 6396WAT     H119430   3.499   5.161   6.503
 6396WAT     H219431   3.513   5.250   6.640
 6397WAT      O19432   7.615   1.911   0.776
 6397WAT     H119433   7.617   1.974   0.699
 6397WAT     H219434   7.520   1.901   0.808
 6398WAT      O19435   6.929   8.874   9.376
 6398WAT     H119436   6.848   8.840   9.424
 6398WAT     H219437   6.947   8.817   9.295
 6399WAT      O19438   8.544   0.223   0.293
 6399WAT     H119439   8.612   0.192   0.227
 6399WAT     H219440   8.576   0.306   0.338
 6400WAT      O19441   8.270   2.472   5.356
 6400WAT     H119442   8.204   2.403   5.326
 6400WAT     H219443   8.270   2.475   5.456
 6401WAT      O19444   1.437   5.607   5.854
 6401WAT     H119445   1.520   5.561   5.823
 6401WAT     H219446   1.461   5.693   5.899
 6402WAT      O19447   5.426   2.772   1.572
 6402WAT     H119448   5.504   2.720   1.609
 6402WAT     H219449   5.341   2.722   1.591
 6403WAT      O19450   9.842   2.757   2.013
 6403WAT     H119451   9.799   2.677   2.056
 6403WAT     H219452   9.872   2.732   1.921
 6404WAT      O19453   8.540   8.389   1.274
 6404WAT     H119454   8.606   8.376   1.348
 6404WAT     H219455   8.552   8.317   1.206
 6405WAT      O19456   8.922   9.510   0.087
 6405WAT     H119457   9.003   9.483   0.139
 6405WAT     H219458   8.950   9.566   0.009
 6406WAT      O19459   4.417   1.484   5.584
 6406WAT     H119460   4.476   1.438   5.651
 6406WAT     H219461   4.453   1.575   5.565
 6407WAT      O19462   3.720   1.076   0.206
 6407WAT     H119463   3.638   1.087   0.263
 6407WAT     H219464   3.703   1.116   0.116
 6408WAT      O19465   7.704   2.097   4.438
 6408WAT     H119466   7.676   2.173   4.380
 6408WAT     H219467   7.638   2.085   4.512
 6409WAT      O19468   8.098   5.340   3.788
 6409WAT     H119469   8.160   5.416   3.807
 6409WAT     H219470   8.007   5.376   3.765
 6410WAT      O19471   6.345   2.394   7.304
 6410WAT     H119472   6.379   2.378   7.212
 6410WAT     H219473   6.404   2.459   7.351
 6411WAT      O19474   4.735   3.210   6.408
 6411WAT     H119475   4.709   3.200   6.504
 6411WAT     H219476   4.776   3.300   6.393
 6412WAT      O19477   7.760   6.877   6.651
 6412WAT     H119478   7.797   6.941   6.584
 6412WAT     H219479   7.810   6.790   6.646
 6413WAT      O19480   8.038   2.824   0.552
 6413WAT     H119481   8.041   2.733   0.511
 6413WAT     H219482   7.960   2.830   0.614
 6414WAT      O19483   2.135   3.313   8.454
 6414WAT     H119484   2.037   3.297   8.465
 6414WAT     H219485   2.162   3.394   8.506
 6415WAT      O19486   2.868   3.766   0.947
 6415WAT     H119487   2.904   3.745   1.037
 6415WAT     H219488   2.931   3.733   0.876
 6416WAT      O19489   5.755   7.135   0.502
 6416WAT     H119490   5.843   7.097   0.531
 6416WAT     H219491   5.737   7.219   0.552
 6417WAT      O19492   4.074   2.857   5.979
 6417WAT     H119493   4.159   2.900   5.949
 6417WAT     H219494   4.091   2.799   6.058
 6418WAT      O19495   0.895   5.899   9.666
 6418WAT     H119496   0.812   5.916   9.719
 6418WAT     H219497   0.905   5.969   9.596
 6419WAT      O19498   8.611   7.561   9.893
 6419WAT     H119499   8.529   7.618   9.905
 6419WAT     H219500   8.590   7.485   9.832
 6420WAT      O19501   0.459   7.059   3.613
 6420WAT     H119502   0.434   7.035   3.519
 6420WAT     H219503   0.505   7.148   3.613
 6421WAT      O19504   7.223   7.480   1.564
 6421WAT     H119505   7.262   7.509   1.651
 6421WAT     H219506   7.284   7.413   1.520
 6422WAT      O19507   3.356   4.922   9.600
 6422WAT     H119508   3.318   4.852   9.660
 6422WAT     H219509   3.282   4.960   9.543
 6423WAT      O19510   1.832   9.752   5.026
 6423WAT     H119511   1.928   9.725   5.015
 6423WAT     H219512   1.798   9.790   4.940
 6424WAT      O19513   0.789   5.232   2.412
 6424WAT     H119514   0.854   5.302   2.382
 6424WAT     H219515   0.711   5.275   2.457
 6425WAT      O19516   5.692   4.653   0.872
 6425WAT     H119517   5.783   4.645   0.832
 6425WAT     H219518   5.672   4.750   0.890
 6426WAT      O19519   3.055   5.897   8.127
 6426WAT     H119520   3.085   5.804   8.148
 6426WAT     H219521   2.982   5.894   8.058
 6427WAT      O19522   7.560   3.306   3.617
 6427WAT     H119523   7.480   3.344   3.569
 6427WAT     H219524   7.533   3.225   3.668
 6428WAT      O19525   1.598   0.943   2.546
 6428WAT     H119526   1.550   0.882   2.482
 6428WAT     H219527   1.691   0.909   2.559
 6429WAT      O19528   5.499   8.228   0.533
 6429WAT     H119529   5.476   8.203   0.627
 6429WAT     H219530   5.591   8.195   0.511
 6430WAT      O19531   7.232   2.985   4.177
 6430WAT     H119532   7.197   2.964   4.086
 6430WAT     H219533   7.289   3.067   4.173
 6431WAT      O19534   2.954   6.191   6.216
 6431WAT     H119535   3.023   6.121   6.229
 6431WAT     H219536   2.962   6.229   6.124
 6432WAT      O19537   6.388   6.716   4.300
 6432WAT     H119538   6.372   6.617   4.305
 6432WAT     H219539   6.485   6.733   4.283
 6433WAT      O19540   7.806   2.526   9.015
 6433WAT     H119541   7.832   2.608   8.964
 6433WAT     H219542   7.757   2.463   8.955
 6434WAT      O19543   1.533   4.325   0.014
 6434WAT     H119544   1.485   4.272  -0.056
 6434WAT     H219545   1.494   4.417   0.017
 6435WAT      O19546   1.160   7.699   9.053
 6435WAT     H119547   1.218   7.619   9.043
 6435WAT     H219548   1.112   7.718   8.967
 6436WAT      O19549   5.967   0.713   8.717
 6436WAT     H119550   5.877   0.748   8.741
 6436WAT     H219551   6.037   0.777   8.748
 6437WAT      O19552   2.018   0.440   7.142
 6437WAT     H119553   2.001   0.359   7.198
 6437WAT     H219554   2.026   0.520   7.201
 6438WAT      O19555   4.618   7.255   6.582
 6438WAT     H119556   4.609   7.352   6.604
 6438WAT     H219557   4.595   7.200   6.663
 6439WAT      O19558   9.424   5.682   8.110
 6439WAT     H119559   9.501   5.652   8.053
 6439WAT     H219560   9.386   5.767   8.073
 6440WAT      O19561   8.269   9.450   3.640
 6440WAT     H119562   8.279   9.351   3.645
 6440WAT     H219563   8.306   9.492   3.723
 6441WAT      O19564   4.936   4.451   8.358
 6441WAT     H119565   4.999   4.390   8.406
 6441WAT     H219566   4.873   4.494   8.423
 6442WAT      O19567   9.542   1.176   8.234
 6442WAT     H119568   9.514   1.214   8.146
 6442WAT     H219569   9.623   1.225   8.267
 6443WAT      O19570   8.334   6.112   6.972
 6443WAT     H119571   8.419   6.127   7.022
 6443WAT     H219572   8.295   6.023   6.999
 6444WAT      O19573   3.157   6.877   4.763
 6444WAT     H119574   3.255   6.871   4.779
 6444WAT     H219575   3.141   6.910   4.670
 6445WAT      O19576   1.975   9.327   8.374
 6445WAT     H119577   1.890   9.307   8.324
 6445WAT     H219578   1.989   9.256   8.443
 6446WAT      O19579   6.588   0.953   3.423
 6446WAT     H119580   6.630   0.925   3.337
 6446WAT     H219581   6.509   1.011   3.404
 6447WAT      O19582   3.274   0.730   5.339
 6447WAT     H119583   3.309   0.683   5.258
 6447WAT     H219584   3.201   0.676   5.380
 6448WAT      O19585   4.449   2.168   5.511
 6448WAT     H119586   4.402   2.084   5.538
 6448WAT     H219587   4.470   2.165   5.414
 6449WAT      O19588   8.603   5.751   7.085
 6449WAT     H119589   8.703   5.757   7.083
 6449WAT     H219590   8.568   5.743   6.992
 6450WAT      O19591   5.293   9.103   7.137
 6450WAT     H119592   5.213   9.047   7.157
 6450WAT     H219593   5.292   9.186   7.194
 6451WAT      O19594   4.074   1.232   4.920
 6451WAT     H119595   4.047   1.301   4.853
 6451WAT     H219596   4.106   1.278   5.003
 6452WAT      O19597   2.046   8.157   5.791
 6452WAT     H119598   1.999   8.137   5.877
 6452WAT     H219599   2.100   8.240   5.802
 6453WAT      O19600   4.992   0.288   7.693
 6453WAT     H119601   4.923   0.360   7.691
 6453WAT     H219602   5.083   0.329   7.694
 6454WAT      O19603   0.633   5.076   3.260
 6454WAT     H119604   0.545   5.045   3.295
 6454WAT     H219605   0.696   5.090   3.336
 6455WAT      O19606   6.933   1.177   4.507
 6455WAT     H119607   6.948   1.210   4.414
 6455WAT     H219608   7.004   1.111   4.531
 6456WAT      O19609   2.958   2.985   2.317
 6456WAT     H119610   2.917   3.041   2.389
 6456WAT     H219611   2.901   2.905   2.301
 6457WAT      O19612   9.120   1.996   6.895
 6457WAT     H119613   9.219   1.984   6.896
 6457WAT     H219614   9.078   1.926   6.953
 6458WAT      O19615   5.855   8.353   3.384
 6458WAT     H119616   5.889   8.352   3.478
 6458WAT     H219617   5.910   8.416   3.330
 6459WAT      O19618   8.970   4.508   5.968
 6459WAT     H119619   8.944   4.598   6.002
 6459WAT     H219620   9.069   4.502   5.962
 6460WAT      O19621   8.741   7.102   6.342
 6460WAT     H119622   8.705   7.124   6.251
 6460WAT     H219623   8.839   7.120   6.345
 6461WAT      O19624   3.024   5.365   0.952
 6461WAT     H119625   3.058   5.271   0.956
 6461WAT     H219626   3.101   5.427   0.939
 6462WAT      O19627   6.559   5.738   9.652
 6462WAT     H119628   6.537   5.658   9.709
 6462WAT     H219629   6.494   5.811   9.672
 6463WAT      O19630   7.327   3.440   8.060
 6463WAT     H119631   7.344   3.534   8.089
 6463WAT     H219632   7.232   3.431   8.030
 6464WAT      O19633   2.176   8.228   6.135
 6464WAT     H119634   2.274   8.246   6.128
 6464WAT     H219635   2.160   8.130   6.138
 6465WAT      O19636   0.621   1.500   1.604
 6465WAT     H119637   0.677   1.516   1.523
 6465WAT     H219638   0.526   1.523   1.585
 6466WAT      O19639   5.900   8.243   4.484
 6466WAT     H119640   5.876   8.146   4.477
 6466WAT     H219641   5.927   8.264   4.578
 6467WAT      O19642   4.866   3.374   4.725
 6467WAT     H119643   4.790   3.417   4.677
 6467WAT     H219644   4.847   3.276   4.737
 6468WAT      O19645   1.693   9.177   9.411
 6468WAT     H119646   1.742   9.144   9.492
 6468WAT     H219647   1.595   9.181   9.431
 6469WAT      O19648   9.806   6.768   6.964
 6469WAT     H119649   9.716   6.811   6.956
 6469WAT     H219650   9.875   6.826   6.922
 6470WAT      O19651   1.726   3.023   6.660
 6470WAT     H119652   1.658   2.960   6.623
 6470WAT     H219653   1.793   2.972   6.714
 6471WAT      O19654   5.858   4.255   0.418
 6471WAT     H119655   5.861   4.345   0.462
 6471WAT     H219656   5.768   4.242   0.376
 6472WAT      O19657   2.190   3.492   2.103
 6472WAT     H119658   2.165   3.480   2.007
 6472WAT     H219659   2.230   3.407   2.138
 6473WAT      O19660   1.434   8.668   8.341
 6473WAT     H119661   1.462   8.608   8.265
 6473WAT     H219662   1.358   8.726   8.311
 6474WAT      O19663   1.472   6.533   2.049
 6474WAT     H119664   1.381   6.574   2.049
 6474WAT     H219665   1.487   6.484   2.135
 6475WAT      O19666   1.083   1.214   4.839
 6475WAT     H119667   1.096   1.161   4.755
 6475WAT     H219668   1.127   1.165   4.915
 6476WAT      O19669   4.211   5.183   0.817
 6476WAT     H119670   4.217   5.096   0.768
 6476WAT     H219671   4.303   5.221   0.829
 6477WAT      O19672   2.125   0.495   9.339
 6477WAT     H119673   2.162   0.578   9.298
 6477WAT     H219674   2.139   0.498   9.438
 6478WAT      O19675   5.710   4.336   5.016
 6478WAT     H119676   5.732   4.249   4.972
 6478WAT     H219677   5.795   4.384   5.038
 6479WAT      O19678   1.375   7.070   0.672
 6479WAT     H119679   1.467   7.108   0.664
 6479WAT     H219680   1.354   7.055   0.768
 6480WAT      O19681   8.570   1.406   7.899
 6480WAT     H119682   8.519   1.321   7.910
 6480WAT     H219683   8.616   1.407   7.811
 6481WAT      O19684   9.887   0.154   7.807
 6481WAT     H119685   9.929   0.083   7.750
 6481WAT     H219686   9.818   0.203   7.754
 6482WAT      O19687   6.849   0.150   1.718
 6482WAT     H119688   6.782   0.127   1.789
 6482WAT     H219689   6.925   0.085   1.721
 6483WAT      O19690   6.746   5.714   0.453
 6483WAT     H119691   6.786   5.648   0.388
 6483WAT     H219692   6.695   5.784   0.402
 6484WAT      O19693   6.515   4.611   5.831
 6484WAT     H119694   6.459   4.635   5.752
 6484WAT     H219695   6.480   4.528   5.873
 6485WAT      O19696   7.143   4.992   9.875
 6485WAT     H119697   7.056   4.954   9.906
 6485WAT     H219698   7.213   4.977   9.945
 6486WAT      O19699   1.375   7.839   8.300
 6486WAT     H119700   1.432   7.891   8.364
 6486WAT     H219701   1.334   7.902   8.234
 6487WAT      O19702   8.579   3.330   0.239
 6487WAT     H119703   8.487   3.310   0.204
 6487WAT     H219704   8.576   3.411   0.297
 6488WAT      O19705   4.878   9.276   0.350
 6488WAT     H119706   4.823   9.359   0.340
 6488WAT     H219707   4.819   9.199   0.374
 6489WAT      O19708   9.553   4.538   6.036
 6489WAT     H119709   9.549   4.440   6.054
 6489WAT     H219710   9.636   4.576   6.076
 6490WAT      O19711   4.641   1.448   2.259
 6490WAT     H119712   4.710   1.492   2.201
 6490WAT     H219713   4.597   1.517   2.317
 6491WAT      O19714   2.847   5.739   1.429
 6491WAT     H119715   2.897   5.689   1.500
 6491WAT     H219716   2.754   5.703   1.423
 6492WAT      O19717   8.698   3.930   5.883
 6492WAT     H119718   8.758   3.868   5.833
 6492WAT     H219719   8.748   4.014   5.906
 6493WAT      O19720   4.832   7.667   6.585
 6493WAT     H119721   4.749   7.613   6.593
 6493WAT     H219722   4.849   7.689   6.489
 6494WAT      O19723   1.408   2.081   5.382
 6494WAT     H119724   1.373   2.167   5.418
 6494WAT     H219725   1.347   2.006   5.408
 6495WAT      O19726   4.739   2.756   4.028
 6495WAT     H119727   4.658   2.698   4.042
 6495WAT     H219728   4.711   2.841   3.984
 6496WAT      O19729   7.737   7.056   8.166
 6496WAT     H119730   7.649   7.010   8.151
 6496WAT     H219731   7.729   7.120   8.242
 6497WAT      O19732   2.522   3.408   0.753
 6497WAT     H119733   2.473   3.454   0.827
 6497WAT     H219734   2.482   3.317   0.738
 6498WAT      O19735   9.021   3.198   8.827
 6498WAT     H119736   8.972   3.121   8.786
 6498WAT     H219737   9.112   3.204   8.787
 6499WAT      O19738   0.066   4.778   0.753
 6499WAT     H119739   0.113   4.690   0.762
 6499WAT     H219740  -0.032   4.763   0.748
 6500WAT      O19741   8.517   0.689   0.021
 6500WAT     H119742   8.450   0.762   0.031
 6500WAT     H219743   8.610   0.728   0.022
 6501WAT      O19744   3.818   6.707   1.421
 6501WAT     H119745   3.770   6.620   1.432
 6501WAT     H219746   3.866   6.729   1.505
 6502WAT      O19747   1.137   9.249   4.270
 6502WAT     H119748   1.100   9.172   4.217
 6502WAT     H219749   1.237   9.241   4.276
 6503WAT      O19750   0.798   3.516   8.461
 6503WAT     H119751   0.799   3.448   8.387
 6503WAT     H219752   0.780   3.607   8.422
 6504WAT      O19753   4.932   5.536   4.752
 6504WAT     H119754   4.899   5.518   4.659
 6504WAT     H219755   4.891   5.621   4.786
 6505WAT      O19756   3.582   0.245   8.708
 6505WAT     H119757   3.503   0.281   8.659
 6505WAT     H219758   3.631   0.180   8.650
 6506WAT      O19759   6.604   1.317   2.521
 6506WAT     H119760   6.667   1.394   2.526
 6506WAT     H219761   6.512   1.349   2.502
 6507WAT      O19762   1.955   3.351   2.301
 6507WAT     H119763   1.878   3.317   2.355
 6507WAT     H219764   2.022   3.278   2.289
 6508WAT      O19765   6.391   2.979   8.519
 6508WAT     H119766   6.323   3.047   8.490
 6508WAT     H219767   6.483   3.014   8.501
 6509WAT      O19768   4.864   8.943   2.054
 6509WAT     H119769   4.923   8.905   2.125
 6509WAT     H219770   4.793   9.000   2.096
 6510WAT      O19771   8.052   4.288   2.890
 6510WAT     H119772   8.053   4.191   2.915
 6510WAT     H219773   8.125   4.306   2.823
 6511WAT      O19774   3.865   2.445   3.920
 6511WAT     H119775   3.872   2.500   4.003
 6511WAT     H219776   3.913   2.491   3.845
 6512WAT      O19777   4.760   8.752   2.775
 6512WAT     H119778   4.840   8.694   2.790
 6512WAT     H219779   4.754   8.777   2.678
 6513WAT      O19780   7.947   0.075   8.122
 6513WAT     H119781   7.947   0.164   8.166
 6513WAT     H219782   7.931   0.086   8.024
 6514WAT      O19783   0.761   7.465   2.670
 6514WAT     H119784   0.790   7.548   2.718
 6514WAT     H219785   0.815   7.387   2.703
 6515WAT      O19786   7.393   9.311   9.770
 6515WAT     H119787   7.340   9.315   9.685
 6515WAT     H219788   7.431   9.219   9.781
 6516WAT      O19789   1.015   8.916   8.485
 6516WAT     H119790   1.028   8.927   8.386
 6516WAT     H219791   0.926   8.952   8.511
 6517WAT      O19792   0.151   7.135   9.496
 6517WAT     H119793   0.093   7.216   9.485
 6517WAT     H219794   0.200   7.141   9.583
 6518WAT      O19795   7.548   4.945   6.446
 6518WAT     H119796   7.643   4.918   6.429
 6518WAT     H219797   7.487   4.890   6.388
 6519WAT      O19798   4.768   9.460   6.511
 6519WAT     H119799   4.696   9.510   6.462
 6519WAT     H219800   4.734   9.436   6.602
 6520WAT      O19801   3.353   1.158   5.462
 6520WAT     H119802   3.402   1.238   5.429
 6520WAT     H219803   3.366   1.082   5.398
 6521WAT      O19804   1.602   5.041   7.811
 6521WAT     H119805   1.644   4.952   7.825
 6521WAT     H219806   1.520   5.031   7.755
 6522WAT      O19807   7.940   7.297   0.510
 6522WAT     H119808   7.846   7.330   0.521
 6522WAT     H219809   7.953   7.214   0.565
 6523WAT      O19810   2.819   7.819   4.474
 6523WAT     H119811   2.747   7.823   4.405
 6523WAT     H219812   2.779   7.792   4.562
 6524WAT      O19813   0.990   5.511   8.056
 6524WAT     H119814   0.969   5.569   8.135
 6524WAT     H219815   0.907   5.494   8.003
 6525WAT      O19816   3.684   7.608   8.743
 6525WAT     H119817   3.729   7.683   8.693
 6525WAT     H219818   3.595   7.589   8.701
 6526WAT      O19819   9.795   1.800   6.517
 6526WAT     H119820   9.864   1.849   6.571
 6526WAT     H219821   9.806   1.702   6.531
 6527WAT      O19822   3.540   8.880   4.494
 6527WAT     H119823   3.444   8.908   4.498
 6527WAT     H219824   3.572   8.885   4.400
 6528WAT      O19825   8.543   1.749   3.869
 6528WAT     H119826   8.475   1.682   3.838
 6528WAT     H219827   8.570   1.727   3.963
 6529WAT      O19828   1.675   6.124   1.144
 6529WAT     H119829   1.774   6.118   1.150
 6529WAT     H219830   1.648   6.177   1.064
 6530WAT      O19831   1.925   8.678   3.896
 6530WAT     H119832   1.996   8.616   3.864
 6530WAT     H219833   1.846   8.672   3.834
 6531WAT      O19834   3.743   1.658   7.368
 6531WAT     H119835   3.796   1.591   7.420
 6531WAT     H219836   3.781   1.749   7.384
 6532WAT      O19837   8.225   8.052   0.649
 6532WAT     H119838   8.126   8.061   0.635
 6532WAT     H219839   8.273   8.103   0.578
 6533WAT      O19840   3.456   5.448   9.034
 6533WAT     H119841   3.492   5.361   9.070
 6533WAT     H219842   3.360   5.436   9.009
 6534WAT      O19843   5.630   3.585   2.978
 6534WAT     H119844   5.592   3.496   2.950
 6534WAT     H219845   5.623   3.649   2.901
 6535WAT      O19846   3.199   6.071   7.946
 6535WAT     H119847   3.233   5.988   7.902
 6535WAT     H219848   3.110   6.052   7.987
 6536WAT      O19849   5.405   6.919   0.920
 6536WAT     H119850   5.436   6.893   1.011
 6536WAT     H219851   5.478   6.967   0.871
 6537WAT      O19852   5.858   2.996   3.769
 6537WAT     H119853   5.902   3.041   3.847
 6537WAT     H219854   5.846   3.063   3.695
 6538WAT      O19855   6.573   8.238   1.601
 6538WAT     H119856   6.666   8.271   1.615
 6538WAT     H219857   6.539   8.270   1.512
 6539WAT      O19858   7.048   9.795   2.099
 6539WAT     H119859   7.070   9.738   2.179
 6539WAT     H219860   7.130   9.805   2.043
 6540WAT      O19861   2.928   8.181   6.118
 6540WAT     H119862   2.853   8.237   6.154
 6540WAT     H219863   2.904   8.085   6.127
 6541WAT      O19864   4.011   7.649   5.744
 6541WAT     H119865   3.958   7.618   5.665
 6541WAT     H219866   3.958   7.718   5.794
 6542WAT      O19867   9.354   9.020   5.791
 6542WAT     H119868   9.378   9.084   5.865
 6542WAT     H219869   9.263   9.042   5.756
 6543WAT      O19870   5.509   9.311   1.467
 6543WAT     H119871   5.501   9.395   1.521
 6543WAT     H219872   5.606   9.296   1.444
 6544WAT      O19873   3.614   8.203   9.007
 6544WAT     H119874   3.521   8.186   8.975
 6544WAT     H219875   3.659   8.268   8.945
 6545WAT      O19876   5.607   4.963   7.031
 6545WAT     H119877   5.653   4.886   6.987
 6545WAT     H219878   5.516   4.974   6.992
 6546WAT      O19879   7.918   6.653   6.610
 6546WAT     H119880   8.011   6.619   6.627
 6546WAT     H219881   7.895   6.640   6.514
 6547WAT      O19882   6.044   9.677   6.182
 6547WAT     H119883   6.077   9.751   6.241
 6547WAT     H219884   6.116   9.609   6.171
 6548WAT      O19885   9.262   0.884   3.061
 6548WAT     H119886   9.236   0.974   3.026
 6548WAT     H219887   9.361   0.877   3.066
 6549WAT      O19888   8.867   6.874   2.963
 6549WAT     H119889   8.876   6.914   2.872
 6549WAT     H219890   8.955   6.877   3.010
 6550WAT      O19891   2.469   9.214   7.182
 6550WAT     H119892   2.446   9.310   7.198
 6550WAT     H219893   2.537   9.208   7.108
 6551WAT      O19894   2.980   3.107   5.501
 6551WAT     H119895   2.965   3.088   5.404
 6551WAT     H219896   2.893   3.129   5.545
 6552WAT      O19897   7.420   5.264   1.771
 6552WAT     H119898   7.448   5.333   1.704
 6552WAT     H219899   7.442   5.173   1.736
 6553WAT      O19900   8.081   8.649   1.162
 6553WAT     H119901   8.172   8.606   1.161
 6553WAT     H219902   8.091   8.748   1.172
 6554WAT      O19903   5.887   0.181   2.517
 6554WAT     H119904   5.834   0.154   2.437
 6554WAT     H219905   5.899   0.102   2.577
 6555WAT      O19906   9.223   6.780   6.297
 6555WAT     H119907   9.322   6.790   6.313
 6555WAT     H219908   9.191   6.859   6.244
 6556WAT      O19909   0.342   3.371   2.307
 6556WAT     H119910   0.386   3.284   2.329
 6556WAT     H219911   0.358   3.393   2.211
 6557WAT      O19912   7.350   0.744   3.289
 6557WAT     H119913   7.307   0.675   3.231
 6557WAT     H219914   7.380   0.821   3.232
 6558WAT      O19915   0.500   7.368   1.380
 6558WAT     H119916   0.548   7.346   1.295
 6558WAT     H219917   0.404   7.390   1.359
 6559WAT      O19918   0.066   6.053   1.409
 6559WAT     H119919  -0.009   6.006   1.363
 6559WAT     H219920   0.153   6.008   1.388
 6560WAT      O19921   8.291   5.835   6.780
 6560WAT     H119922   8.232   5.887   6.842
 6560WAT     H219923   8.253   5.744   6.766
 6561WAT      O19924   1.817   1.872   5.506
 6561WAT     H119925   1.779   1.883   5.598
 6561WAT     H219926   1.754   1.911   5.439
 6562WAT      O19927   1.332   9.503   9.355
 6562WAT     H119928   1.318   9.442   9.433
 6562WAT     H219929   1.425   9.539   9.357
 6563WAT      O19930   8.198   3.202   5.695
 6563WAT     H119931   8.161   3.109   5.688
 6563WAT     H219932   8.290   3.198   5.734
 6564WAT      O19933   8.959   5.736   2.419
 6564WAT     H119934   9.031   5.799   2.391
 6564WAT     H219935   8.971   5.714   2.516
 6565WAT      O19936   4.662   0.395   9.348
 6565WAT     H119937   4.618   0.306   9.356
 6565WAT     H219938   4.600   0.460   9.303
 6566WAT      O19939   3.835   8.580   6.969
 6566WAT     H119940   3.912   8.643   6.967
 6566WAT     H219941   3.795   8.573   6.878
 6567WAT      O19942   5.047   0.828   6.252
 6567WAT     H119943   5.127   0.812   6.310
 6567WAT     H219944   4.989   0.747   6.253
 6568WAT      O19945   4.870   3.103   2.909
 6568WAT     H119946   4.935   3.058   2.970
 6568WAT     H219947   4.783   3.115   2.956
 6569WAT      O19948   3.453   4.313   3.860
 6569WAT     H119949   3.374   4.324   3.921
 6569WAT     H219950   3.518   4.387   3.875
 6570WAT      O19951   3.815   2.686   3.199
 6570WAT     H119952   3.732   2.631   3.193
 6570WAT     H219953   3.895   2.626   3.200
 6571WAT      O19954   7.131   8.108   8.446
 6571WAT     H119955   7.165   8.156   8.527
 6571WAT     H219956   7.133   8.169   8.367
 6572WAT      O19957   0.852   4.524   9.726
 6572WAT     H119958   0.893   4.613   9.748
 6572WAT     H219959   0.904   4.452   9.771
 6573WAT      O19960   6.619   0.377   0.990
 6573WAT     H119961   6.523   0.371   1.016
 6573WAT     H219962   6.666   0.440   1.051
 6574WAT      O19963   7.043   5.325   7.886
 6574WAT     H119964   7.085   5.414   7.871
 6574WAT     H219965   7.097   5.274   7.952
 6575WAT      O19966   0.454   8.946   7.235
 6575WAT     H119967   0.539   8.919   7.280
 6575WAT     H219968   0.474   9.012   7.163
 6576WAT      O19969   0.243   8.259   5.525
 6576WAT     H119970   0.276   8.170   5.493
 6576WAT     H219971   0.226   8.254   5.624
 6577WAT      O19972   9.863   8.672   6.140
 6577WAT     H119973   9.810   8.615   6.077
 6577WAT     H219974   9.851   8.638   6.233
 6578WAT      O19975   1.079   2.618   1.121
 6578WAT     H119976   1.097   2.713   1.147
 6578WAT     H219977   1.159   2.562   1.144
 6579WAT      O19978   6.818   6.738   9.883
 6579WAT     H119979   6.849   6.776   9.796
 6579WAT     H219980   6.784   6.812   9.941
 6580WAT      O19981   2.357   7.378   7.952
 6580WAT     H119982   2.318   7.338   7.869
 6580WAT     H219983   2.284   7.407   8.013
 6581WAT      O19984   4.829   0.718   5.953
 6581WAT     H119985   4.761   0.771   6.003
 6581WAT     H219986   4.785   0.669   5.878
 6582WAT      O19987   0.915   3.417   9.138
 6582WAT     H119988   0.876   3.495   9.187
 6582WAT     H219989   0.967   3.361   9.202
 6583WAT      O19990   0.667   8.641   3.784
 6583WAT     H119991   0.662   8.738   3.805
 6583WAT     H219992   0.746   8.601   3.829
 6584WAT      O19993   1.674   6.211   3.356
 6584WAT     H119994   1.755   6.264   3.334
 6584WAT     H219995   1.601   6.232   3.291
 6585WAT      O19996   0.932   8.069   1.618
 6585WAT     H119997   0.957   8.092   1.712
 6585WAT     H219998   0.900   8.152   1.572
 6586WAT      O19999   1.089   8.910   4.437
 6586WAT     H120000   1.038   8.955   4.511
 6586WAT     H220001   1.077   8.811   4.443
 6587WAT      O20002   9.242   3.198   7.429
 6587WAT     H120003   9.323   3.139   7.422
 6587WAT     H220004   9.253   3.277   7.368
 6588WAT      O20005   3.396   5.919   9.763
 6588WAT     H120006   3.470   5.967   9.714
 6588WAT     H220007   3.357   5.849   9.705
 6589WAT      O20008   0.145   3.683   1.482
 6589WAT     H120009   0.085   3.658   1.558
 6589WAT     H220010   0.225   3.623   1.481
 6590WAT      O20011   6.478   2.686   7.000
 6590WAT     H120012   6.567   2.723   7.027
 6590WAT     H220013   6.476   2.587   7.016
 6591WAT      O20014   4.425   6.430   0.767
 6591WAT     H120015   4.491   6.460   0.836
 6591WAT     H220016   4.464   6.356   0.713
 6592WAT      O20017   2.272   6.445   6.455
 6592WAT     H120018   2.258   6.372   6.522
 6592WAT     H220019   2.298   6.406   6.367
 6593WAT      O20020   9.475   2.768   8.789
 6593WAT     H120021   9.498   2.684   8.839
 6593WAT     H220022   9.375   2.778   8.784
 6594WAT      O20023   8.368   3.874   0.520
 6594WAT     H120024   8.359   3.821   0.436
 6594WAT     H220025   8.345   3.816   0.598
 6595WAT      O20026   6.921   5.791   4.513
 6595WAT     H120027   6.964   5.746   4.435
 6595WAT     H220028   6.863   5.867   4.481
 6596WAT      O20029   8.925   6.616   4.914
 6596WAT     H120030   8.840   6.606   4.966
 6596WAT     H220031   8.995   6.658   4.972
 6597WAT      O20032   2.327   5.143   2.352
 6597WAT     H120033   2.332   5.096   2.440
 6597WAT     H220034   2.232   5.164   2.330
 6598WAT      O20035   9.297   1.954   8.846
 6598WAT     H120036   9.293   1.966   8.747
 6598WAT     H220037   9.392   1.941   8.874
 6599WAT      O20038   8.993   9.133   8.617
 6599WAT     H120039   8.938   9.158   8.537
 6599WAT     H220040   9.066   9.071   8.589
 6600WAT      O20041   2.649   9.751   7.803
 6600WAT     H120042   2.626   9.708   7.890
 6600WAT     H220043   2.645   9.683   7.730
 6601WAT      O20044   7.570   7.190   2.908
 6601WAT     H120045   7.544   7.278   2.947
 6601WAT     H220046   7.549   7.117   2.974
 6602WAT      O20047   5.032   5.344   0.999
 6602WAT     H120048   5.107   5.375   0.942
 6602WAT     H220049   5.025   5.403   1.080
 6603WAT      O20050   1.516   9.456   6.620
 6603WAT     H120051   1.592   9.510   6.657
 6603WAT     H220052   1.553   9.386   6.559
 6604WAT      O20053   0.973   3.913   9.836
 6604WAT     H120054   1.023   3.827   9.840
 6604WAT     H220055   0.910   3.919   9.913
 6605WAT      O20056   2.171   6.214   9.043
 6605WAT     H120057   2.124   6.295   9.079
 6605WAT     H220058   2.122   6.180   8.963
 6606WAT      O20059   4.390   3.516   7.279
 6606WAT     H120060   4.319   3.566   7.229
 6606WAT     H220061   4.348   3.454   7.344
 6607WAT      O20062   7.832   2.734   1.793
 6607WAT     H120063   7.804   2.646   1.756
 6607WAT     H220064   7.850   2.725   1.891
 6608WAT      O20065   3.561   0.206   5.521
 6608WAT     H120066   3.639   0.210   5.458
 6608WAT     H220067   3.571   0.127   5.581
 6609WAT      O20068   9.406   8.998   8.391
 6609WAT     H120069   9.443   9.043   8.473
 6609WAT     H220070   9.312   8.969   8.409
 6610WAT      O20071   4.997   4.607   3.443
 6610WAT     H120072   5.086   4.583   3.405
 6610WAT     H220073   4.987   4.567   3.534
 6611WAT      O20074   8.407   6.620   2.205
 6611WAT     H120075   8.452   6.705   2.233
 6611WAT     H220076   8.319   6.642   2.163
 6612WAT      O20077   5.821   0.016   0.751
 6612WAT     H120078   5.873   0.069   0.818
 6612WAT     H220079   5.848   0.043   0.658
 6613WAT      O20080   2.731   2.955   9.329
 6613WAT     H120081   2.635   2.968   9.302
 6613WAT     H220082   2.747   3.000   9.417
 6614WAT      O20083   6.299   6.901   5.309
 6614WAT     H120084   6.317   6.812   5.267
 6614WAT     H220085   6.273   6.967   5.238
 6615WAT      O20086   6.991   5.720   1.207
 6615WAT     H120087   7.086   5.737   1.182
 6615WAT     H220088   6.943   5.678   1.130
 6616WAT      O20089   5.383   4.256   7.747
 6616WAT     H120090   5.373   4.273   7.649
 6616WAT     H220091   5.338   4.170   7.771
 6617WAT      O20092   5.175   6.513   4.696
 6617WAT     H120093   5.081   6.513   4.663
 6617WAT     H220094   5.237   6.518   4.617
 6618WAT      O20095   3.477   8.188   6.217
 6618WAT     H120096   3.407   8.136   6.266
 6618WAT     H220097   3.549   8.125   6.185
 6619WAT      O20098   0.355   6.494   4.578
 6619WAT     H120099   0.340   6.559   4.652
 6619WAT     H220100   0.436   6.439   4.598
 6620WAT      O20101   3.513   4.515   4.865
 6620WAT     H120102   3.443   4.443   4.863
 6620WAT     H220103   3.537   4.541   4.772
 6621WAT      O20104   8.303   4.360   5.384
 6621WAT     H120105   8.236   4.378   5.457
 6621WAT     H220106   8.276   4.409   5.301
 6622WAT      O20107   8.784   8.347   0.992
 6622WAT     H120108   8.722   8.278   1.030
 6622WAT     H220109   8.755   8.438   1.020
 6623WAT      O20110   7.957   7.994   5.438
 6623WAT     H120111   7.978   7.942   5.521
 6623WAT     H220112   7.874   8.048   5.453
 6624WAT      O20113   5.575   2.116   8.428
 6624WAT     H120114   5.579   2.128   8.527
 6624WAT     H220115   5.590   2.203   8.383
 6625WAT      O20116   4.943   7.901   8.104
 6625WAT     H120117   4.941   8.001   8.101
 6625WAT     H220118   4.888   7.868   8.180
 6626WAT      O20119   5.031   8.742   9.392
 6626WAT     H120120   4.987   8.796   9.463
 6626WAT     H220121   5.007   8.646   9.403
 6627WAT      O20122   5.652   7.148   1.948
 6627WAT     H120123   5.695   7.084   2.011
 6627WAT     H220124   5.567   7.183   1.988
 6628WAT      O20125   6.871   3.850   5.375
 6628WAT     H120126   6.839   3.939   5.406
 6628WAT     H220127   6.964   3.834   5.410
 6629WAT      O20128   7.320   0.291   7.583
 6629WAT     H120129   7.268   0.350   7.646
 6629WAT     H220130   7.357   0.347   7.509
 6630WAT      O20131   1.223   4.914   1.876
 6630WAT     H120132   1.302   4.853   1.884
 6630WAT     H220133   1.253   5.002   1.838
 6631WAT      O20134   7.919   8.112   8.224
 6631WAT     H120135   7.872   8.041   8.277
 6631WAT     H220136   7.997   8.147   8.277
 6632WAT      O20137   2.486   6.741   6.091
 6632WAT     H120138   2.419   6.743   6.165
 6632WAT     H220139   2.493   6.832   6.049
 6633WAT      O20140   3.400   2.928   5.963
 6633WAT     H120141   3.422   2.854   6.027
 6633WAT     H220142   3.470   2.999   5.969
 6634WAT      O20143   8.795   7.540   6.628
 6634WAT     H120144   8.802   7.612   6.559
 6634WAT     H220145   8.760   7.456   6.586
 6635WAT      O20146   9.746   6.071   4.904
 6635WAT     H120147   9.710   6.116   4.822
 6635WAT     H220148   9.824   6.014   4.879
 6636WAT      O20149   9.170   5.369   2.478
 6636WAT     H120150   9.219   5.442   2.431
 6636WAT     H220151   9.109   5.323   2.415
 6637WAT      O20152   6.767   5.927   4.350
 6637WAT     H120153   6.822   6.007   4.326
 6637WAT     H220154   6.670   5.951   4.346
 6638WAT      O20155   9.782   6.792   7.352
 6638WAT     H120156   9.824   6.882   7.367
 6638WAT     H220157   9.684   6.797   7.370
 6639WAT      O20158   2.446   3.298   8.425
 6639WAT     H120159   2.364   3.316   8.479
 6639WAT     H220160   2.524   3.288   8.487
 6640WAT      O20161   7.354   9.066   1.216
 6640WAT     H120162   7.398   9.006   1.282
 6640WAT     H220163   7.342   9.017   1.129
 6641WAT      O20164   3.350   8.240   9.214
 6641WAT     H120165   3.404   8.324   9.208
 6641WAT     H220166   3.409   8.162   9.193
 6642WAT      O20167   7.842   1.287   7.727
 6642WAT     H120168   7.762   1.302   7.668
 6642WAT     H220169   7.863   1.371   7.776
 6643WAT      O20170   4.316   2.325   8.712
 6643WAT     H120171   4.390   2.312   8.779
 6643WAT     H220172   4.328   2.414   8.668
 6644WAT      O20173   2.700   6.956   7.724
 6644WAT     H120174   2.731   6.921   7.812
 6644WAT     H220175   2.609   6.920   7.704
 6645WAT      O20176   3.428   7.520   2.981
 6645WAT     H120177   3.341   7.566   2.963
 6645WAT     H220178   3.452   7.462   2.903
 6646WAT      O20179   8.875   3.904   8.436
 6646WAT     H120180   8.942   3.856   8.493
 6646WAT     H220181   8.876   4.002   8.459
 6647WAT      O20182   6.536   7.721   4.661
 6647WAT     H120183   6.609   7.690   4.600
 6647WAT     H220184   6.482   7.643   4.691
 6648WAT      O20185   6.748   8.676   5.560
 6648WAT     H120186   6.826   8.701   5.504
 6648WAT     H220187   6.684   8.620   5.507
 6649WAT      O20188   0.361   7.306   3.380
 6649WAT     H120189   0.375   7.225   3.323
 6649WAT     H220190   0.440   7.367   3.371
 6650WAT      O20191   7.897   7.486   4.291
 6650WAT     H120192   7.983   7.483   4.341
 6650WAT     H220193   7.862   7.393   4.279
 6651WAT      O20194   9.297   5.648   3.155
 6651WAT     H120195   9.260   5.560   3.126
 6651WAT     H220196   9.315   5.645   3.253
 6652WAT      O20197   1.148   9.820   3.792
 6652WAT     H120198   1.227   9.800   3.849
 6652WAT     H220199   1.164   9.903   3.740
 6653WAT      O20200   1.976   0.379   8.865
 6653WAT     H120201   2.021   0.455   8.911
 6653WAT     H220202   2.041   0.337   8.801
 6654WAT      O20203   6.343   9.093   8.394
 6654WAT     H120204   6.308   9.186   8.383
 6654WAT     H220205   6.338   9.067   8.490
 6655WAT      O20206   1.225   2.155   7.287
 6655WAT     H120207   1.296   2.092   7.257
 6655WAT     H220208   1.265   2.228   7.342
 6656WAT      O20209   6.261   9.502   6.165
 6656WAT     H120210   6.341   9.480   6.110
 6656WAT     H220211   6.225   9.419   6.207
 6657WAT      O20212   0.728   9.166   6.200
 6657WAT     H120213   0.686   9.076   6.188
 6657WAT     H220214   0.707   9.223   6.120
 6658WAT      O20215   2.541   7.095   2.911
 6658WAT     H120216   2.634   7.131   2.905
 6658WAT     H220217   2.511   7.093   3.006
 6659WAT      O20218   4.195   7.405   9.782
 6659WAT     H120219   4.196   7.313   9.821
 6659WAT     H220220   4.189   7.399   9.683
 6660WAT      O20221   3.829   6.760   8.798
 6660WAT     H120222   3.874   6.803   8.876
 6660WAT     H220223   3.758   6.698   8.830
 6661WAT      O20224   3.615   2.248   4.826
 6661WAT     H120225   3.644   2.194   4.746
 6661WAT     H220226   3.600   2.187   4.904
 6662WAT      O20227   1.650   3.986   5.292
 6662WAT     H120228   1.588   3.922   5.245
 6662WAT     H220229   1.701   3.937   5.362
 6663WAT      O20230   2.643   7.398   1.409
 6663WAT     H120231   2.643   7.433   1.502
 6663WAT     H220232   2.659   7.299   1.410
 6664WAT      O20233   1.246   4.924   1.526
 6664WAT     H120234   1.307   4.932   1.447
 6664WAT     H220235   1.279   4.851   1.586
 6665WAT      O20236   3.492   8.539   7.739
 6665WAT     H120237   3.416   8.549   7.674
 6665WAT     H220238   3.529   8.629   7.761
 6666WAT      O20239   5.506   3.694   8.058
 6666WAT     H120240   5.434   3.700   8.127
 6666WAT     H220241   5.499   3.606   8.010
 6667WAT      O20242   2.538   2.121   1.789
 6667WAT     H120243   2.491   2.189   1.846
 6667WAT     H220244   2.538   2.032   1.836
 6668WAT      O20245   8.870   8.082   4.044
 6668WAT     H120246   8.811   8.002   4.056
 6668WAT     H220247   8.946   8.078   4.108
 6669WAT      O20248   5.287   0.282   7.729
 6669WAT     H120249   5.272   0.235   7.816
 6669WAT     H220250   5.359   0.235   7.678
 6670WAT      O20251   4.579   3.256   2.246
 6670WAT     H120252   4.633   3.291   2.322
 6670WAT     H220253   4.639   3.242   2.167
 6671WAT      O20254   1.484   3.317   0.591
 6671WAT     H120255   1.560   3.381   0.599
 6671WAT     H220256   1.399   3.368   0.575
 6672WAT      O20257   8.046   6.274   9.483
 6672WAT     H120258   8.050   6.302   9.387
 6672WAT     H220259   8.059   6.175   9.490
 6673WAT      O20260   5.837   2.919   2.155
 6673WAT     H120261   5.769   2.922   2.228
 6673WAT     H220262   5.792   2.924   2.066
 6674WAT      O20263   1.301   2.915   5.233
 6674WAT     H120264   1.208   2.920   5.197
 6674WAT     H220265   1.302   2.861   5.317
 6675WAT      O20266   8.302   6.537   8.680
 6675WAT     H120267   8.294   6.637   8.681
 6675WAT     H220268   8.320   6.506   8.587
 6676WAT      O20269   2.206   5.871   3.351
 6676WAT     H120270   2.270   5.943   3.378
 6676WAT     H220271   2.221   5.790   3.408
 6677WAT      O20272   9.560   6.080   8.409
 6677WAT     H120273   9.522   6.129   8.330
 6677WAT     H220274   9.574   5.984   8.386
 6678WAT      O20275   0.145   6.074   2.822
 6678WAT     H120276   0.244   6.067   2.808
 6678WAT     H220277   0.113   6.164   2.792
 6679WAT      O20278   0.070   9.259   4.615
 6679WAT     H120279   0.161   9.247   4.574
 6679WAT     H220280   0.012   9.182   4.589
 6680WAT      O20281   4.507   6.733   9.186
 6680WAT     H120282   4.496   6.794   9.108
 6680WAT     H220283   4.544   6.784   9.264
 6681WAT      O20284   5.312   4.688   2.735
 6681WAT     H120285   5.291   4.731   2.647
 6681WAT     H220286   5.259   4.734   2.807
 6682WAT      O20287   9.232   2.226   9.076
 6682WAT     H120288   9.203   2.130   9.080
 6682WAT     H220289   9.327   2.231   9.046
 6683WAT      O20290   8.651   6.547   8.930
 6683WAT     H120291   8.551   6.539   8.928
 6683WAT     H220292   8.678   6.615   8.998
 6684WAT      O20293   8.729   6.389   7.702
 6684WAT     H120294   8.671   6.329   7.647
 6684WAT     H220295   8.709   6.484   7.680
 6685WAT      O20296   3.606   3.937   4.287
 6685WAT     H120297   3.611   3.981   4.197
 6685WAT     H220298   3.575   3.843   4.276
 6686WAT      O20299   9.757   8.307   0.897
 6686WAT     H120300   9.768   8.272   0.804
 6686WAT     H220301   9.809   8.250   0.961
 6687WAT      O20302   6.839   1.574   2.069
 6687WAT     H120303   6.927   1.613   2.042
 6687WAT     H220304   6.790   1.638   2.128
 6688WAT      O20305   5.069   4.167   4.105
 6688WAT     H120306   5.088   4.247   4.162
 6688WAT     H220307   5.119   4.175   4.019
 6689WAT      O20308   2.889   5.244   6.411
 6689WAT     H120309   2.839   5.240   6.497
 6689WAT     H220310   2.825   5.259   6.336
 6690WAT      O20311   5.068   1.814   6.793
 6690WAT     H120312   4.988   1.781   6.842
 6690WAT     H220313   5.060   1.913   6.779
 6691WAT      O20314   6.316   6.967   9.643
 6691WAT     H120315   6.242   7.015   9.691
 6691WAT     H220316   6.337   7.014   9.558
 6692WAT      O20317   8.304   5.098   1.439
 6692WAT     H120318   8.241   5.172   1.414
 6692WAT     H220319   8.251   5.018   1.466
 6693WAT      O20320   8.212   4.465   9.847
 6693WAT     H120321   8.198   4.395   9.777
 6693WAT     H220322   8.123   4.491   9.886
 6694WAT      O20323   7.173   2.014   5.477
 6694WAT     H120324   7.243   2.031   5.407
 6694WAT     H220325   7.146   2.100   5.519
 6695WAT      O20326   8.498   1.176   2.630
 6695WAT     H120327   8.477   1.274   2.624
 6695WAT     H220328   8.465   1.130   2.548
 6696WAT      O20329   6.452   7.715   1.128
 6696WAT     H120330   6.392   7.687   1.202
 6696WAT     H220331   6.416   7.797   1.084
 6697WAT      O20332   2.428   2.012   0.204
 6697WAT     H120333   2.501   2.064   0.160
 6697WAT     H220334   2.464   1.923   0.234
 6698WAT      O20335   5.511   2.299   7.263
 6698WAT     H120336   5.582   2.341   7.319
 6698WAT     H220337   5.546   2.284   7.171
 6699WAT      O20338   3.050   7.012   8.128
 6699WAT     H120339   3.076   6.921   8.097
 6699WAT     H220340   3.122   7.077   8.103
 6700WAT      O20341   0.402   0.287   5.591
 6700WAT     H120342   0.322   0.340   5.564
 6700WAT     H220343   0.371   0.202   5.635
 6701WAT      O20344   2.030   5.107   3.378
 6701WAT     H120345   1.934   5.134   3.375
 6701WAT     H220346   2.062   5.084   3.286
 6702WAT      O20347   0.910   6.576   8.668
 6702WAT     H120348   0.850   6.574   8.588
 6702WAT     H220349   1.005   6.562   8.639
 6703WAT      O20350   5.304   1.653   3.692
 6703WAT     H120351   5.342   1.729   3.640
 6703WAT     H220352   5.304   1.676   3.790
 6704WAT      O20353   4.530   9.357   3.941
 6704WAT     H120354   4.452   9.359   3.878
 6704WAT     H220355   4.501   9.317   4.028
 6705WAT      O20356   6.546   2.745   4.189
 6705WAT     H120357   6.583   2.746   4.096
 6705WAT     H220358   6.611   2.788   4.251
 6706WAT      O20359   7.514   9.170   6.627
 6706WAT     H120360   7.445   9.197   6.559
 6706WAT     H220361   7.602   9.156   6.581
 6707WAT      O20362   7.813   6.815   0.860
 6707WAT     H120363   7.729   6.827   0.808
 6707WAT     H220364   7.824   6.718   0.882
 6708WAT      O20365   3.439   4.888   3.180
 6708WAT     H120366   3.402   4.854   3.266
 6708WAT     H220367   3.528   4.932   3.197
 6709WAT      O20368   1.574   1.767   1.814
 6709WAT     H120369   1.564   1.849   1.870
 6709WAT     H220370   1.651   1.713   1.847
 6710WAT      O20371   9.536   6.932   7.011
 6710WAT     H120372   9.541   6.996   7.088
 6710WAT     H220373   9.450   6.946   6.962
 6711WAT      O20374   5.466   8.446   4.053
 6711WAT     H120375   5.545   8.507   4.051
 6711WAT     H220376   5.386   8.495   4.019
 6712WAT      O20377   6.921   7.520   4.729
 6712WAT     H120378   7.006   7.484   4.690
 6712WAT     H220379   6.864   7.445   4.761
 6713WAT      O20380   9.313   1.500   7.646
 6713WAT     H120381   9.314   1.600   7.637
 6713WAT     H220382   9.329   1.459   7.556
 6714WAT      O20383   2.243   2.426   1.332
 6714WAT     H120384   2.314   2.426   1.261
 6714WAT     H220385   2.157   2.394   1.293
 6715WAT      O20386   5.243   0.244   6.230
 6715WAT     H120387   5.267   0.155   6.268
 6715WAT     H220388   5.189   0.296   6.297
 6716WAT      O20389   4.699   6.848   7.238
 6716WAT     H120390   4.672   6.937   7.202
 6716WAT     H220391   4.760   6.802   7.174
 6717WAT      O20392   5.499   2.390   2.751
 6717WAT     H120393   5.571   2.321   2.743
 6717WAT     H220394   5.518   2.465   2.687
 6718WAT      O20395   3.691   1.283   1.663
 6718WAT     H120396   3.597   1.281   1.697
 6718WAT     H220397   3.733   1.193   1.674
 6719WAT      O20398   8.945   7.290   0.191
 6719WAT     H120399   8.897   7.322   0.273
 6719WAT     H220400   8.968   7.369   0.133
 6720WAT      O20401   1.253   5.082   3.131
 6720WAT     H120402   1.258   5.083   3.031
 6720WAT     H220403   1.161   5.108   3.160
 6721WAT      O20404   8.834   1.152   8.104
 6721WAT     H120405   8.914   1.197   8.064
 6721WAT     H220406   8.798   1.085   8.039
 6722WAT      O20407   5.531   3.686   3.715
 6722WAT     H120408   5.504   3.623   3.788
 6722WAT     H220409   5.532   3.638   3.628
 6723WAT      O20410   6.688   7.663   1.879
 6723WAT     H120411   6.784   7.652   1.907
 6723WAT     H220412   6.640   7.718   1.947
 6724WAT      O20413   1.588   2.550   5.538
 6724WAT     H120414   1.650   2.501   5.477
 6724WAT     H220415   1.547   2.486   5.603
 6725WAT      O20416   4.602   3.498   7.530
 6725WAT     H120417   4.618   3.494   7.431
 6725WAT     H220418   4.583   3.406   7.564
 6726WAT      O20419   0.759   1.981   4.092
 6726WAT     H120420   0.848   1.975   4.138
 6726WAT     H220421   0.738   1.893   4.048
 6727WAT      O20422   2.428   9.245   2.160
 6727WAT     H120423   2.415   9.245   2.259
 6727WAT     H220424   2.490   9.171   2.134
 6728WAT      O20425   3.919   8.158   8.945
 6728WAT     H120426   3.859   8.078   8.939
 6728WAT     H220427   3.979   8.149   9.025
 6729WAT      O20428   8.884   9.677   7.103
 6729WAT     H120429   8.863   9.764   7.148
 6729WAT     H220430   8.834   9.671   7.017
 6730WAT      O20431   0.313   2.061   8.369
 6730WAT     H120432   0.249   2.089   8.441
 6730WAT     H220433   0.358   2.142   8.332
 6731WAT      O20434   7.948   3.114   8.152
 6731WAT     H120435   7.854   3.145   8.134
 6731WAT     H220436   8.012   3.188   8.135
 6732WAT      O20437   9.687   0.716   4.224
 6732WAT     H120438   9.772   0.692   4.178
 6732WAT     H220439   9.664   0.811   4.204
 6733WAT      O20440   6.012   2.741   0.614
 6733WAT     H120441   5.920   2.762   0.646
 6733WAT     H220442   6.009   2.712   0.519
 6734WAT      O20443   5.336   1.298   7.266
 6734WAT     H120444   5.383   1.257   7.188
 6734WAT     H220445   5.244   1.325   7.239
 6735WAT      O20446   6.628   9.467   3.227
 6735WAT     H120447   6.541   9.495   3.269
 6735WAT     H220448   6.625   9.488   3.129
 6736WAT      O20449   4.233   8.681   4.813
 6736WAT     H120450   4.252   8.738   4.893
 6736WAT     H220451   4.160   8.722   4.759
 6737WAT      O20452   2.896   4.444   5.920
 6737WAT     H120453   2.942   4.402   5.998
 6737WAT     H220454   2.869   4.538   5.944
 6738WAT      O20455   9.402   3.559   2.317
 6738WAT     H120456   9.438   3.548   2.410
 6738WAT     H220457   9.380   3.469   2.279
 6739WAT      O20458   7.683   9.107   5.406
 6739WAT     H120459   7.715   9.183   5.348
 6739WAT     H220460   7.709   9.020   5.364
 6740WAT      O20461   3.960   6.312   2.857
 6740WAT     H120462   3.999   6.393   2.814
 6740WAT     H220463   4.028   6.238   2.857
 6741WAT      O20464   2.563   0.263   3.142
 6741WAT     H120465   2.578   0.165   3.127
 6741WAT     H220466   2.499   0.276   3.217
 6742WAT      O20467   4.627   6.673   3.920
 6742WAT     H120468   4.660   6.616   3.844
 6742WAT     H220469   4.703   6.727   3.956
 6743WAT      O20470   2.017   4.364   4.995
 6743WAT     H120471   2.027   4.461   5.016
 6743WAT     H220472   1.920   4.344   4.979
 6744WAT      O20473   0.539   1.201   1.976
 6744WAT     H120474   0.546   1.290   2.022
 6744WAT     H220475   0.553   1.212   1.878
 6745WAT      O20476   1.303   0.640   6.315
 6745WAT     H120477   1.235   0.568   6.300
 6745WAT     H220478   1.271   0.725   6.272
 6746WAT      O20479   3.378   1.825   4.887
 6746WAT     H120480   3.433   1.833   4.970
 6746WAT     H220481   3.304   1.760   4.901
 6747WAT      O20482   2.763   3.148   3.584
 6747WAT     H120483   2.768   3.075   3.652
 6747WAT     H220484   2.765   3.109   3.493
 6748WAT      O20485   6.515   7.529   3.404
 6748WAT     H120486   6.486   7.608   3.349
 6748WAT     H220487   6.601   7.550   3.450
 6749WAT      O20488   5.768   3.460   7.422
 6749WAT     H120489   5.799   3.457   7.517
 6749WAT     H220490   5.674   3.427   7.417
 6750WAT      O20491   8.846   5.796   2.840
 6750WAT     H120492   8.768   5.811   2.780
 6750WAT     H220493   8.815   5.792   2.935
 6751WAT      O20494   7.584   0.317   9.403
 6751WAT     H120495   7.635   0.269   9.475
 6751WAT     H220496   7.647   0.369   9.346
 6752WAT      O20497   3.124   0.577   4.502
 6752WAT     H120498   3.128   0.612   4.408
 6752WAT     H220499   3.030   0.581   4.535
 6753WAT      O20500   0.806   1.470   6.367
 6753WAT     H120501   0.751   1.533   6.313
 6753WAT     H220502   0.878   1.521   6.415
 6754WAT      O20503   6.364   2.645   3.780
 6754WAT     H120504   6.345   2.704   3.702
 6754WAT     H220505   6.329   2.686   3.863
 6755WAT      O20506   3.006   4.012   7.211
 6755WAT     H120507   3.098   3.977   7.228
 6755WAT     H220508   2.967   3.965   7.132
 6756WAT      O20509   4.446   8.471   8.341
 6756WAT     H120510   4.536   8.487   8.299
 6756WAT     H220511   4.388   8.420   8.278
 6757WAT      O20512   5.213   7.742   5.464
 6757WAT     H120513   5.235   7.839   5.478
 6757WAT     H220514   5.185   7.701   5.551
 6758WAT      O20515   5.933   2.871   6.802
 6758WAT     H120516   5.885   2.864   6.889
 6758WAT     H220517   6.006   2.802   6.798
 6759WAT      O20518   2.348   8.521   2.273
 6759WAT     H120519   2.305   8.444   2.226
 6759WAT     H220520   2.328   8.605   2.224
 6760WAT      O20521   3.553   9.169   4.800
 6760WAT     H120522   3.489   9.183   4.875
 6760WAT     H220523   3.646   9.160   4.837
 6761WAT      O20524   6.700   4.334   3.456
 6761WAT     H120525   6.694   4.370   3.549
 6761WAT     H220526   6.639   4.387   3.396
 6762WAT      O20527   0.851   9.797   4.530
 6762WAT     H120528   0.914   9.777   4.455
 6762WAT     H220529   0.849   9.895   4.547
 6763WAT      O20530   9.166   2.978   4.052
 6763WAT     H120531   9.244   2.975   4.114
 6763WAT     H220532   9.085   2.942   4.098
 6764WAT      O20533   5.328   4.966   6.585
 6764WAT     H120534   5.340   4.923   6.675
 6764WAT     H220535   5.241   4.936   6.545
 6765WAT      O20536   5.156   3.225   3.221
 6765WAT     H120537   5.186   3.180   3.305
 6765WAT     H220538   5.132   3.156   3.153
 6766WAT      O20539   4.175   3.799   9.545
 6766WAT     H120540   4.129   3.713   9.565
 6766WAT     H220541   4.125   3.848   9.473
 6767WAT      O20542   2.327   7.350   7.663
 6767WAT     H120543   2.409   7.331   7.609
 6767WAT     H220544   2.305   7.447   7.656
 6768WAT      O20545   8.249   4.630   1.651
 6768WAT     H120546   8.290   4.571   1.581
 6768WAT     H220547   8.268   4.592   1.741
 6769WAT      O20548   0.184   2.535   7.294
 6769WAT     H120549   0.263   2.475   7.285
 6769WAT     H220550   0.210   2.629   7.275
 6770WAT      O20551   0.362   6.860   2.468
 6770WAT     H120552   0.331   6.894   2.379
 6770WAT     H220553   0.297   6.888   2.538
 6771WAT      O20554   2.186   7.379   2.633
 6771WAT     H120555   2.141   7.364   2.544
 6771WAT     H220556   2.134   7.334   2.705
 6772WAT      O20557   3.293   1.344   5.080
 6772WAT     H120558   3.347   1.298   5.009
 6772WAT     H220559   3.345   1.346   5.165
 6773WAT      O20560   3.279   6.796   9.707
 6773WAT     H120561   3.214   6.808   9.633
 6773WAT     H220562   3.242   6.733   9.775
 6774WAT      O20563   7.875   8.003   9.743
 6774WAT     H120564   7.779   7.973   9.748
 6774WAT     H220565   7.905   8.031   9.835
 6775WAT      O20566   4.003   3.169   4.399
 6775WAT     H120567   3.921   3.115   4.380
 6775WAT     H220568   4.079   3.135   4.344
 6776WAT      O20569   8.805   1.975   4.519
 6776WAT     H120570   8.889   2.029   4.526
 6776WAT     H220571   8.729   2.035   4.494
 6777WAT      O20572   8.128   1.225   2.652
 6777WAT     H120573   8.030   1.243   2.644
 6777WAT     H220574   8.142   1.138   2.700
 6778WAT      O20575   1.245   0.135   9.653
 6778WAT     H120576   1.148   0.158   9.644
 6778WAT     H220577   1.261   0.095   9.743
 6779WAT      O20578   2.387   3.386   8.164
 6779WAT     H120579   2.377   3.364   8.262
 6779WAT     H220580   2.423   3.306   8.116
 6780WAT      O20581   5.234   5.625   7.774
 6780WAT     H120582   5.322   5.652   7.736
 6780WAT     H220583   5.182   5.574   7.705
 6781WAT      O20584   0.254   6.943   1.971
 6781WAT     H120585   0.267   7.030   2.017
 6781WAT     H220586   0.296   6.946   1.880
 6782WAT      O20587   9.777   3.027   9.677
 6782WAT     H120588   9.840   3.046   9.752
 6782WAT     H220589   9.776   2.928   9.659
 6783WAT      O20590   6.377   7.726   7.342
 6783WAT     H120591   6.280   7.714   7.362
 6783WAT     H220592   6.391   7.725   7.243
 6784WAT      O20593   8.376   1.117   3.909
 6784WAT     H120594   8.475   1.132   3.904
 6784WAT     H220595   8.329   1.196   3.868
 6785WAT      O20596   7.741   6.310   2.473
 6785WAT     H120597   7.734   6.244   2.548
 6785WAT     H220598   7.654   6.359   2.464
 6786WAT      O20599   1.824   2.852   7.671
 6786WAT     H120600   1.844   2.949   7.685
 6786WAT     H220601   1.897   2.810   7.616
 6787WAT      O20602   8.966   2.987   7.407
 6787WAT     H120603   8.912   3.025   7.483
 6787WAT     H220604   8.912   2.918   7.359
 6788WAT      O20605   5.893   9.203   2.470
 6788WAT     H120606   5.810   9.258   2.474
 6788WAT     H220607   5.884   9.134   2.398
 6789WAT      O20608   3.246   8.332   0.535
 6789WAT     H120609   3.239   8.232   0.538
 6789WAT     H220610   3.155   8.371   0.521
 6790WAT      O20611   4.143   9.135   0.031
 6790WAT     H120612   4.109   9.099  -0.056
 6790WAT     H220613   4.183   9.226   0.016
 6791WAT      O20614   9.629   5.058   6.612
 6791WAT     H120615   9.622   4.978   6.552
 6791WAT     H220616   9.556   5.123   6.589
 6792WAT      O20617   6.574   5.861   0.276
 6792WAT     H120618   6.520   5.848   0.193
 6792WAT     H220619   6.528   5.926   0.336
 6793WAT      O20620   9.257   1.232   3.714
 6793WAT     H120621   9.335   1.292   3.701
 6793WAT     H220622   9.223   1.201   3.625
 6794WAT      O20623   9.787   5.514   8.741
 6794WAT     H120624   9.694   5.535   8.711
 6794WAT     H220625   9.846   5.506   8.660
 6795WAT      O20626   3.154   4.099   1.089
 6795WAT     H120627   3.147   4.130   1.184
 6795WAT     H220628   3.228   4.032   1.081
 6796WAT      O20629   3.229   0.643   7.253
 6796WAT     H120630   3.316   0.604   7.280
 6796WAT     H220631   3.216   0.631   7.154
 6797WAT      O20632   8.619   3.066   3.298
 6797WAT     H120633   8.587   3.108   3.383
 6797WAT     H220634   8.660   3.135   3.240
 6798WAT      O20635   0.861   8.235   0.989
 6798WAT     H120636   0.953   8.199   1.004
 6798WAT     H220637   0.842   8.238   0.891
 6799WAT      O20638   6.664   9.637   1.253
 6799WAT     H120639   6.760   9.629   1.226
 6799WAT     H220640   6.609   9.658   1.172
 6800WAT      O20641   1.382   4.697   3.405
 6800WAT     H120642   1.447   4.772   3.395
 6800WAT     H220643   1.340   4.701   3.496
 6801WAT      O20644   5.572   2.695   7.928
 6801WAT     H120645   5.655   2.690   7.984
 6801WAT     H220646   5.505   2.628   7.961
 6802WAT      O20647   1.721   2.083   5.051
 6802WAT     H120648   1.752   2.170   5.012
 6802WAT     H220649   1.787   2.011   5.028
 6803WAT      O20650   8.585   3.555   1.804
 6803WAT     H120651   8.531   3.472   1.819
 6803WAT     H220652   8.661   3.557   1.870
 6804WAT      O20653   7.665   3.823   6.060
 6804WAT     H120654   7.744   3.794   6.005
 6804WAT     H220655   7.603   3.877   6.002
 6805WAT      O20656   7.877   1.297   2.614
 6805WAT     H120657   7.830   1.383   2.633
 6805WAT     H220658   7.885   1.285   2.515
 6806WAT      O20659   7.707   9.217   0.842
 6806WAT     H120660   7.607   9.205   0.838
 6806WAT     H220661   7.739   9.253   0.755
 6807WAT      O20662   2.978   3.736   1.203
 6807WAT     H120663   2.922   3.761   1.282
 6807WAT     H220664   3.022   3.648   1.219
 6808WAT      O20665   2.448   2.553   5.232
 6808WAT     H120666   2.389   2.618   5.183
 6808WAT     H220667   2.423   2.460   5.207
 6809WAT      O20668   1.269   4.610   4.058
 6809WAT     H120669   1.187   4.592   4.112
 6809WAT     H220670   1.254   4.581   3.963
 6810WAT      O20671   2.778   0.607   8.090
 6810WAT     H120672   2.751   0.636   8.182
 6810WAT     H220673   2.791   0.688   8.033
 6811WAT      O20674   5.293   0.938   2.323
 6811WAT     H120675   5.341   0.933   2.411
 6811WAT     H220676   5.238   0.856   2.311
 6812WAT      O20677   8.457   9.043   7.868
 6812WAT     H120678   8.474   9.137   7.839
 6812WAT     H220679   8.390   9.000   7.808
 6813WAT      O20680   3.739   8.812   6.443
 6813WAT     H120681   3.721   8.882   6.513
 6813WAT     H220682   3.661   8.750   6.438
 6814WAT      O20683   3.344   8.657   7.500
 6814WAT     H120684   3.249   8.638   7.523
 6814WAT     H220685   3.351   8.749   7.461
 6815WAT      O20686   4.981   9.694   3.963
 6815WAT     H120687   5.002   9.787   3.933
 6815WAT     H220688   4.992   9.689   4.063
 6816WAT      O20689   9.260   1.853   2.738
 6816WAT     H120690   9.309   1.885   2.819
 6816WAT     H220691   9.211   1.769   2.761
 6817WAT      O20692   7.523   4.338   2.995
 6817WAT     H120693   7.586   4.366   2.923
 6817WAT     H220694   7.441   4.298   2.955
 6818WAT      O20695   3.547   3.827   0.181
 6818WAT     H120696   3.578   3.922   0.187
 6818WAT     H220697   3.613   3.768   0.226
 6819WAT      O20698   2.968   3.323   7.398
 6819WAT     H120699   2.885   3.274   7.422
 6819WAT     H220700   2.990   3.390   7.469
 6820WAT      O20701   5.679   8.186   8.198
 6820WAT     H120702   5.593   8.216   8.241
 6820WAT     H220703   5.672   8.090   8.172
 6821WAT      O20704   2.837   0.069   5.209
 6821WAT     H120705   2.918   0.011   5.204
 6821WAT     H220706   2.755   0.011   5.211
 6822WAT      O20707   8.654   9.165   2.695
 6822WAT     H120708   8.621   9.199   2.607
 6822WAT     H220709   8.754   9.167   2.696
 6823WAT      O20710   5.991   3.783   6.206
 6823WAT     H120711   6.018   3.833   6.289
 6823WAT     H220712   5.951   3.695   6.232
 6824WAT      O20713   1.338   9.321   6.821
 6824WAT     H120714   1.403   9.343   6.749
 6824WAT     H220715   1.245   9.334   6.787
 6825WAT      O20716   2.332   6.245   3.806
 6825WAT     H120717   2.250   6.237   3.750
 6825WAT     H220718   2.413   6.240   3.747
 6826WAT      O20719   6.427   3.042   3.962
 6826WAT     H120720   6.426   3.085   4.052
 6826WAT     H220721   6.506   2.981   3.954
 6827WAT      O20722   7.358   7.260   9.611
 6827WAT     H120723   7.425   7.270   9.538
 6827WAT     H220724   7.375   7.329   9.681
 6828WAT      O20725   6.495   7.227   6.198
 6828WAT     H120726   6.419   7.259   6.142
 6828WAT     H220727   6.495   7.127   6.201
 6829WAT      O20728   5.316   0.246   4.381
 6829WAT     H120729   5.343   0.262   4.475
 6829WAT     H220730   5.360   0.163   4.347
 6830WAT      O20731   4.362   4.055   2.384
 6830WAT     H120732   4.410   3.978   2.426
 6830WAT     H220733   4.266   4.032   2.371
 6831WAT      O20734   3.653   5.321   8.126
 6831WAT     H120735   3.705   5.334   8.211
 6831WAT     H220736   3.689   5.241   8.078
 6832WAT      O20737   9.154   7.218   7.732
 6832WAT     H120738   9.186   7.129   7.765
 6832WAT     H220739   9.065   7.238   7.774
 6833WAT      O20740   2.337   1.257   2.656
 6833WAT     H120741   2.337   1.348   2.697
 6833WAT     H220742   2.408   1.200   2.698
 6834WAT      O20743   6.480   1.329   3.195
 6834WAT     H120744   6.572   1.292   3.187
 6834WAT     H220745   6.462   1.356   3.289
 6835WAT      O20746   1.489   3.674   3.286
 6835WAT     H120747   1.568   3.680   3.347
 6835WAT     H220748   1.443   3.762   3.281
 6836WAT      O20749   3.609   9.620   5.583
 6836WAT     H120750   3.537   9.600   5.649
 6836WAT     H220751   3.584   9.581   5.494
 6837WAT      O20752   7.990   8.819   4.777
 6837WAT     H120753   8.008   8.869   4.862
 6837WAT     H220754   7.970   8.723   4.798
 6838WAT      O20755   3.178   0.353   0.298
 6838WAT     H120756   3.103   0.321   0.240
 6838WAT     H220757   3.207   0.444   0.267
 6839WAT      O20758   8.212   4.332   1.051
 6839WAT     H120759   8.255   4.310   0.963
 6839WAT     H220760   8.116   4.356   1.036
 6840WAT      O20761   9.268   5.990   7.235
 6840WAT     H120762   9.341   5.977   7.301
 6840WAT     H220763   9.213   6.070   7.260
 6841WAT      O20764   7.983   4.558   1.689
 6841WAT     H120765   8.070   4.586   1.649
 6841WAT     H220766   8.000   4.497   1.766
 6842WAT      O20767   7.647   3.723   3.439
 6842WAT     H120768   7.624   3.811   3.397
 6842WAT     H220769   7.579   3.700   3.508
 6843WAT      O20770   9.659   5.051   9.387
 6843WAT     H120771   9.736   5.057   9.451
 6843WAT     H220772   9.665   5.126   9.321
 6844WAT      O20773   1.563   8.481   5.181
 6844WAT     H120774   1.639   8.428   5.144
 6844WAT     H220775   1.591   8.522   5.268
 6845WAT      O20776   9.191   7.512   9.759
 6845WAT     H120777   9.257   7.583   9.782
 6845WAT     H220778   9.224   7.458   9.682
 6846WAT      O20779   4.904   3.296   3.790
 6846WAT     H120780   4.989   3.331   3.829
 6846WAT     H220781   4.856   3.241   3.858
 6847WAT      O20782   3.388   9.549   5.744
 6847WAT     H120783   3.404   9.562   5.842
 6847WAT     H220784   3.291   9.530   5.728
 6848WAT      O20785   2.026   0.288   2.757
 6848WAT     H120786   2.082   0.331   2.827
 6848WAT     H220787   2.079   0.276   2.674
 6849WAT      O20788   7.596   3.705   4.561
 6849WAT     H120789   7.609   3.719   4.463
 6849WAT     H220790   7.597   3.607   4.581
 6850WAT      O20791   6.206   6.108   8.321
 6850WAT     H120792   6.210   6.010   8.299
 6850WAT     H220793   6.148   6.121   8.402
 6851WAT      O20794   1.786   8.110   9.464
 6851WAT     H120795   1.863   8.055   9.434
 6851WAT     H220796   1.731   8.058   9.529
 6852WAT      O20797   9.363   8.048   7.685
 6852WAT     H120798   9.428   8.055   7.610
 6852WAT     H220799   9.320   8.137   7.701
 6853WAT      O20800   4.118   7.728   8.770
 6853WAT     H120801   4.019   7.710   8.766
 6853WAT     H220802   4.136   7.802   8.833
 6854WAT      O20803   8.597   0.299   8.081
 6854WAT     H120804   8.502   0.323   8.064
 6854WAT     H220805   8.612   0.203   8.060
 6855WAT      O20806   2.672   7.055   6.460
 6855WAT     H120807   2.709   7.080   6.370
 6855WAT     H220808   2.747   7.022   6.518
 6856WAT      O20809   8.702   0.262   5.185
 6856WAT     H120810   8.653   0.349   5.187
 6856WAT     H220811   8.800   0.278   5.186
 6857WAT      O20812   4.024   3.585   9.601
 6857WAT     H120813   3.932   3.613   9.572
 6857WAT     H220814   4.026   3.577   9.701
 6858WAT      O20815   9.138   6.506   5.415
 6858WAT     H120816   9.163   6.481   5.322
 6858WAT     H220817   9.109   6.602   5.418
 6859WAT      O20818   6.213   9.231   9.628
 6859WAT     H120819   6.131   9.274   9.590
 6859WAT     H220820   6.290   9.247   9.567
 6860WAT      O20821   8.449   9.486   7.240
 6860WAT     H120822   8.545   9.480   7.215
 6860WAT     H220823   8.419   9.399   7.278
 6861WAT      O20824   5.006   1.203   3.259
 6861WAT     H120825   4.925   1.213   3.201
 6861WAT     H220826   5.015   1.108   3.288
 6862WAT      O20827   5.457   1.452   8.211
 6862WAT     H120828   5.502   1.534   8.176
 6862WAT     H220829   5.526   1.392   8.252
 6863WAT      O20830   1.448   9.748   4.840
 6863WAT     H120831   1.443   9.808   4.920
 6863WAT     H220832   1.394   9.788   4.766
 6864WAT      O20833   0.557   9.152   8.321
 6864WAT     H120834   0.522   9.068   8.361
 6864WAT     H220835   0.633   9.187   8.376
 6865WAT      O20836   3.447   5.126   5.954
 6865WAT     H120837   3.386   5.197   5.920
 6865WAT     H220838   3.392   5.048   5.987
 6866WAT      O20839   3.259   8.161   1.224
 6866WAT     H120840   3.304   8.247   1.247
 6866WAT     H220841   3.317   8.110   1.161
 6867WAT      O20842   5.620   5.405   5.779
 6867WAT     H120843   5.637   5.473   5.708
 6867WAT     H220844   5.586   5.451   5.862
 6868WAT      O20845   7.261   2.158   7.212
 6868WAT     H120846   7.203   2.239   7.201
 6868WAT     H220847   7.338   2.164   7.148
 6869WAT      O20848   6.489   8.131   9.407
 6869WAT     H120849   6.463   8.124   9.311
 6869WAT     H220850   6.529   8.221   9.424
 6870WAT      O20851   8.486   2.559   0.977
 6870WAT     H120852   8.400   2.606   0.956
 6870WAT     H220853   8.498   2.554   1.076
 6871WAT      O20854   0.695   4.942   6.257
 6871WAT     H120855   0.722   4.849   6.233
 6871WAT     H220856   0.699   4.954   6.356
 6872WAT      O20857   6.177   4.785   7.555
 6872WAT     H120858   6.264   4.771   7.507
 6872WAT     H220859   6.103   4.747   7.500
 6873WAT      O20860   1.929   8.947   6.423
 6873WAT     H120861   1.943   9.009   6.500
 6873WAT     H220862   1.975   8.860   6.443
 6874WAT      O20863   9.141   2.637   3.689
 6874WAT     H120864   9.184   2.727   3.684
 6874WAT     H220865   9.149   2.600   3.782
 6875WAT      O20866   4.157   9.819   7.339
 6875WAT     H120867   4.065   9.792   7.368
 6875WAT     H220868   4.174   9.913   7.368
 6876WAT      O20869   7.874   8.648   0.521
 6876WAT     H120870   7.816   8.728   0.504
 6876WAT     H220871   7.925   8.625   0.438
 6877WAT      O20872   1.373   4.216   8.081
 6877WAT     H120873   1.326   4.238   8.166
 6877WAT     H220874   1.406   4.300   8.038
 6878WAT      O20875   2.365   9.430   3.973
 6878WAT     H120876   2.389   9.413   3.878
 6878WAT     H220877   2.266   9.418   3.985
 6879WAT      O20878   2.060   7.846   5.855
 6879WAT     H120879   2.094   7.777   5.792
 6879WAT     H220880   2.137   7.901   5.888
 6880WAT      O20881   4.527   3.002   0.709
 6880WAT     H120882   4.488   3.092   0.687
 6880WAT     H220883   4.615   2.992   0.662
 6881WAT      O20884   7.787   0.899   7.661
 6881WAT     H120885   7.779   0.866   7.755
 6881WAT     H220886   7.870   0.955   7.653
 6882WAT      O20887   4.398   0.197   4.111
 6882WAT     H120888   4.451   0.193   4.026
 6882WAT     H220889   4.429   0.274   4.167
 6883WAT      O20890   5.302   8.458   5.563
 6883WAT     H120891   5.269   8.451   5.469
 6883WAT     H220892   5.390   8.411   5.571
 6884WAT      O20893   3.543   2.721   4.278
 6884WAT     H120894   3.554   2.622   4.285
 6884WAT     H220895   3.463   2.743   4.223
 6885WAT      O20896   6.987   4.864   0.282
 6885WAT     H120897   7.009   4.804   0.206
 6885WAT     H220898   7.071   4.891   0.329
 6886WAT      O20899   3.232   5.030   6.648
 6886WAT     H120900   3.168   5.107   6.656
 6886WAT     H220901   3.277   5.015   6.736
 6887WAT      O20902   6.503   0.609   4.475
 6887WAT     H120903   6.418   0.662   4.473
 6887WAT     H220904   6.581   0.670   4.488
 6888WAT      O20905   6.357   5.250   6.564
 6888WAT     H120906   6.365   5.196   6.480
 6888WAT     H220907   6.449   5.281   6.592
 6889WAT      O20908   6.097   4.081   4.324
 6889WAT     H120909   6.188   4.039   4.328
 6889WAT     H220910   6.035   4.020   4.273
 6890WAT      O20911   6.689   1.236   0.282
 6890WAT     H120912   6.709   1.235   0.184
 6890WAT     H220913   6.590   1.225   0.296
 6891WAT      O20914   5.649   6.688   9.135
 6891WAT     H120915   5.587   6.614   9.162
 6891WAT     H220916   5.597   6.758   9.085
 6892WAT      O20917   3.295   7.775   2.016
 6892WAT     H120918   3.267   7.748   1.924
 6892WAT     H220919   3.241   7.724   2.083
 6893WAT      O20920   1.599   8.193   3.787
 6893WAT     H120921   1.582   8.099   3.816
 6893WAT     H220922   1.517   8.248   3.802
 6894WAT      O20923   4.827   1.311   1.329
 6894WAT     H120924   4.738   1.264   1.333
 6894WAT     H220925   4.862   1.307   1.235
 6895WAT      O20926   8.332   8.452   3.177
 6895WAT     H120927   8.426   8.487   3.170
 6895WAT     H220928   8.271   8.506   3.120
 6896WAT      O20929   6.998   7.096   1.709
 6896WAT     H120930   6.931   7.071   1.639
 6896WAT     H220931   6.954   7.152   1.779
 6897WAT      O20932   0.745   6.860   7.055
 6897WAT     H120933   0.759   6.771   7.098
 6897WAT     H220934   0.786   6.859   6.964
 6898WAT      O20935   8.832   3.873   1.072
 6898WAT     H120936   8.770   3.843   1.145
 6898WAT     H220937   8.779   3.922   1.003
 6899WAT      O20938   6.485   8.403   5.881
 6899WAT     H120939   6.518   8.444   5.966
 6899WAT     H220940   6.477   8.304   5.892
 6900WAT      O20941   1.518   0.746   9.259
 6900WAT     H120942   1.583   0.769   9.187
 6900WAT     H220943   1.431   0.792   9.240
 6901WAT      O20944   5.867   9.160   2.721
 6901WAT     H120945   5.896   9.178   2.627
 6901WAT     H220946   5.945   9.169   2.783
 6902WAT      O20947   0.966   3.769   8.211
 6902WAT     H120948   0.999   3.858   8.178
 6902WAT     H220949   0.892   3.784   8.277
 6903WAT      O20950   0.491   2.470   8.555
 6903WAT     H120951   0.566   2.417   8.514
 6903WAT     H220952   0.510   2.568   8.547
 6904WAT      O20953   7.319   3.128   0.683
 6904WAT     H120954   7.363   3.132   0.773
 6904WAT     H220955   7.233   3.179   0.686
 6905WAT      O20956   1.125   9.177   3.920
 6905WAT     H120957   1.116   9.088   3.964
 6905WAT     H220958   1.146   9.165   3.824
 6906WAT      O20959   3.615   1.039   9.605
 6906WAT     H120960   3.601   0.994   9.516
 6906WAT     H220961   3.713   1.046   9.624
 6907WAT      O20962   3.617   5.057   1.558
 6907WAT     H120963   3.552   5.070   1.483
 6907WAT     H220964   3.648   5.145   1.592
 6908WAT      O20965   8.501   9.799   6.559
 6908WAT     H120966   8.489   9.792   6.658
 6908WAT     H220967   8.591   9.839   6.539
 6909WAT      O20968   8.194   0.440   3.041
 6909WAT     H120969   8.268   0.414   3.103
 6909WAT     H220970   8.196   0.382   2.960
 6910WAT      O20971   0.497   9.005   9.680
 6910WAT     H120972   0.579   9.039   9.726
 6910WAT     H220973   0.518   8.919   9.633
 6911WAT      O20974   6.999   6.100   7.023
 6911WAT     H120975   7.020   6.159   7.101
 6911WAT     H220976   6.931   6.144   6.965
 6912WAT      O20977   2.544   5.411   3.282
 6912WAT     H120978   2.539   5.372   3.374
 6912WAT     H220979   2.580   5.504   3.288
 6913WAT      O20980   8.942   8.857   0.271
 6913WAT     H120981   8.983   8.939   0.231
 6913WAT     H220982   8.891   8.808   0.201
 6914WAT      O20983   3.772   1.508   5.935
 6914WAT     H120984   3.738   1.416   5.954
 6914WAT     H220985   3.848   1.529   5.996
 6915WAT      O20986   7.044   8.868   9.697
 6915WAT     H120987   7.082   8.934   9.632
 6915WAT     H220988   7.019   8.915   9.781
 6916WAT      O20989   0.949   0.321   7.594
 6916WAT     H120990   0.902   0.366   7.670
 6916WAT     H220991   0.883   0.270   7.539
 6917WAT      O20992   2.505   2.902   0.028
 6917WAT     H120993   2.449   2.894   0.111
 6917WAT     H220994   2.463   2.968  -0.034
 6918WAT      O20995   3.077   0.240   7.253
 6918WAT     H120996   3.089   0.221   7.351
 6918WAT     H220997   3.040   0.332   7.241
 6919WAT      O20998   8.414   6.783   9.228
 6919WAT     H120999   8.493   6.727   9.255
 6919WAT     H221000   8.437   6.880   9.239
 6920WAT      O21001   9.477   1.169   2.169
 6920WAT     H121002   9.446   1.240   2.232
 6920WAT     H221003   9.404   1.101   2.157
 6921WAT      O21004   6.238   2.211   0.140
 6921WAT     H121005   6.147   2.231   0.176
 6921WAT     H221006   6.238   2.222   0.040
 6922WAT      O21007   0.625   3.935   6.878
 6922WAT     H121008   0.606   3.837   6.887
 6922WAT     H221009   0.724   3.949   6.873
 6923WAT      O21010   3.270   4.634   1.687
 6923WAT     H121011   3.231   4.584   1.610
 6923WAT     H221012   3.321   4.713   1.654
 6924WAT      O21013   0.626   2.296   1.782
 6924WAT     H121014   0.710   2.254   1.815
 6924WAT     H221015   0.598   2.369   1.844
 6925WAT      O21016   4.132   0.566   4.630
 6925WAT     H121017   4.063   0.636   4.617
 6925WAT     H221018   4.110   0.486   4.574
 6926WAT      O21019   3.578   4.018   8.741
 6926WAT     H121020   3.524   4.098   8.714
 6926WAT     H221021   3.522   3.935   8.731
 6927WAT      O21022   0.620   8.813   2.682
 6927WAT     H121023   0.568   8.813   2.596
 6927WAT     H221024   0.684   8.736   2.680
 6928WAT      O21025   7.218   6.792   8.170
 6928WAT     H121026   7.281   6.758   8.240
 6928WAT     H221027   7.207   6.723   8.099
 6929WAT      O21028   0.051   7.473   3.666
 6929WAT     H121029   0.150   7.478   3.656
 6929WAT     H221030   0.025   7.379   3.689
 6930WAT      O21031   4.454   5.158   0.547
 6930WAT     H121032   4.400   5.093   0.494
 6930WAT     H221033   4.429   5.251   0.521
 6931WAT      O21034   9.224   9.766   3.271
 6931WAT     H121035   9.136   9.784   3.316
 6931WAT     H221036   9.263   9.681   3.307
 6932WAT      O21037   6.566   4.214   6.505
 6932WAT     H121038   6.491   4.237   6.567
 6932WAT     H221039   6.565   4.116   6.487
 6933WAT      O21040   5.818   3.182   6.779
 6933WAT     H121041   5.730   3.182   6.731
 6933WAT     H221042   5.801   3.181   6.878
 6934WAT      O21043   4.656   0.313   8.698
 6934WAT     H121044   4.707   0.234   8.730
 6934WAT     H221045   4.645   0.307   8.599
 6935WAT      O21046   5.215   7.047   3.362
 6935WAT     H121047   5.247   7.133   3.322
 6935WAT     H221048   5.119   7.056   3.388
 6936WAT      O21049   8.729   3.566   9.374
 6936WAT     H121050   8.665   3.558   9.451
 6936WAT     H221051   8.822   3.551   9.407
 6937WAT      O21052   6.429   0.973   7.803
 6937WAT     H121053   6.456   0.882   7.835
 6937WAT     H221054   6.451   1.041   7.873
 6938WAT      O21055   3.370   9.422   1.439
 6938WAT     H121056   3.461   9.388   1.463
 6938WAT     H221057   3.315   9.347   1.403
 6939WAT      O21058   0.410   5.665   6.025
 6939WAT     H121059   0.465   5.644   6.106
 6939WAT     H221060   0.343   5.735   6.048
 6940WAT      O21061   6.021   9.703   6.548
 6940WAT     H121062   6.058   9.757   6.624
 6940WAT     H221063   6.031   9.605   6.569
 6941WAT      O21064   4.782   9.701   8.723
 6941WAT     H121065   4.695   9.656   8.742
 6941WAT     H221066   4.811   9.679   8.630
 6942WAT      O21067   5.462   7.279   9.584
 6942WAT     H121068   5.470   7.256   9.487
 6942WAT     H221069   5.405   7.211   9.630
 6943WAT      O21070   4.772   5.892   8.532
 6943WAT     H121071   4.798   5.796   8.517
 6943WAT     H221072   4.841   5.936   8.589
 6944WAT      O21073   7.413   2.954   6.066
 6944WAT     H121074   7.508   2.949   6.037
 6944WAT     H221075   7.378   2.861   6.079
 6945WAT      O21076   5.256   1.137   0.625
 6945WAT     H121077   5.227   1.175   0.538
 6945WAT     H221078   5.356   1.137   0.630
 6946WAT      O21079   4.335   8.064   9.213
 6946WAT     H121080   4.399   8.083   9.138
 6946WAT     H221081   4.247   8.108   9.193
 6947WAT      O21082   2.958   6.402   9.326
 6947WAT     H121083   2.907   6.475   9.279
 6947WAT     H221084   3.013   6.352   9.259
 6948WAT      O21085   9.226   1.881   0.718
 6948WAT     H121086   9.221   1.881   0.818
 6948WAT     H221087   9.135   1.900   0.680
 6949WAT      O21088   2.324   5.845   7.239
 6949WAT     H121089   2.284   5.904   7.169
 6949WAT     H221090   2.424   5.845   7.230
 6950WAT      O21091   2.767   6.971   7.251
 6950WAT     H121092   2.802   6.983   7.344
 6950WAT     H221093   2.807   6.889   7.211
 6951WAT      O21094   0.479   2.949   5.959
 6951WAT     H121095   0.524   2.866   5.993
 6951WAT     H221096   0.386   2.927   5.930
 6952WAT      O21097   0.912   1.974   8.553
 6952WAT     H121098   0.997   2.013   8.519
 6952WAT     H221099   0.865   2.042   8.610
 6953WAT      O21100   2.737   2.426   6.604
 6953WAT     H121101   2.752   2.520   6.574
 6953WAT     H221102   2.795   2.364   6.550
 6954WAT      O21103   2.881   2.748   2.556
 6954WAT     H121104   2.860   2.845   2.542
 6954WAT     H221105   2.803   2.702   2.596
 6955WAT      O21106   1.725   3.079   2.074
 6955WAT     H121107   1.709   3.005   2.009
 6955WAT     H221108   1.749   3.162   2.024
 6956WAT      O21109   4.587   4.192   0.747
 6956WAT     H121110   4.636   4.116   0.789
 6956WAT     H221111   4.632   4.278   0.771
 6957WAT      O21112   9.502   5.202   2.820
 6957WAT     H121113   9.502   5.236   2.726
 6957WAT     H221114   9.590   5.159   2.840
 6958WAT      O21115   4.488   4.734   2.618
 6958WAT     H121116   4.398   4.690   2.613
 6958WAT     H221117   4.541   4.710   2.537
 6959WAT      O21118   9.417   5.052   4.714
 6959WAT     H121119   9.408   4.957   4.684
 6959WAT     H221120   9.341   5.106   4.678
 6960WAT      O21121   3.390   6.043   6.421
 6960WAT     H121122   3.318   6.032   6.353
 6960WAT     H221123   3.371   5.984   6.499
 6961WAT      O21124   1.212   1.110   4.093
 6961WAT     H121125   1.245   1.125   4.000
 6961WAT     H221126   1.174   1.018   4.102
 6962WAT      O21127   5.772   7.267   0.258
 6962WAT     H121128   5.787   7.353   0.307
 6962WAT     H221129   5.748   7.195   0.322
 6963WAT      O21130   8.297   6.456   2.383
 6963WAT     H121131   8.340   6.528   2.329
 6963WAT     H221132   8.344   6.448   2.471
 6964WAT      O21133   3.101   6.303   0.409
 6964WAT     H121134   3.025   6.248   0.375
 6964WAT     H221135   3.065   6.390   0.445
 6965WAT      O21136   6.432   7.042   7.390
 6965WAT     H121137   6.441   7.133   7.351
 6965WAT     H221138   6.520   6.995   7.384
 6966WAT      O21139   4.624   6.470   2.982
 6966WAT     H121140   4.649   6.374   2.994
 6966WAT     H221141   4.673   6.507   2.903
 6967WAT      O21142   5.439   3.688   3.138
 6967WAT     H121143   5.370   3.657   3.072
 6967WAT     H221144   5.527   3.694   3.092
 6968WAT      O21145   4.690   1.006   1.436
 6968WAT     H121146   4.730   1.062   1.509
 6968WAT     H221147   4.663   1.065   1.360
 6969WAT      O21148   5.617   2.009   2.856
 6969WAT     H121149   5.576   1.918   2.861
 6969WAT     H221150   5.555   2.075   2.898
 6970WAT      O21151   8.170   7.211   2.139
 6970WAT     H121152   8.148   7.251   2.050
 6970WAT     H221153   8.099   7.236   2.205
 6971WAT      O21154   9.229   7.753   8.417
 6971WAT     H121155   9.253   7.712   8.329
 6971WAT     H221156   9.292   7.827   8.438
 6972WAT      O21157   3.544   1.611   2.630
 6972WAT     H121158   3.461   1.634   2.579
 6972WAT     H221159   3.522   1.598   2.726
 6973WAT      O21160   2.508   9.706   6.405
 6973WAT     H121161   2.558   9.770   6.464
 6973WAT     H221162   2.483   9.625   6.459
 6974WAT      O21163   4.958   0.123   3.815
 6974WAT     H121164   4.933   0.210   3.858
 6974WAT     H221165   4.876   0.082   3.774
 6975WAT      O21166   6.687   1.150   2.753
 6975WAT     H121167   6.780   1.117   2.738
 6975WAT     H221168   6.672   1.233   2.698
 6976WAT      O21169   7.170   2.750   4.327
 6976WAT     H121170   7.255   2.697   4.334
 6976WAT     H221171   7.185   2.830   4.268
 6977WAT      O21172   2.441   7.527   9.872
 6977WAT     H121173   2.518   7.466   9.891
 6977WAT     H221174   2.374   7.480   9.815
 6978WAT      O21175   5.015   3.350   7.911
 6978WAT     H121176   4.959   3.396   7.980
 6978WAT     H221177   5.108   3.388   7.913
 6979WAT      O21178   5.354   3.316   6.156
 6979WAT     H121179   5.321   3.387   6.094
 6979WAT     H221180   5.348   3.350   6.250
 6980WAT      O21181   1.833   1.409   0.956
 6980WAT     H121182   1.871   1.412   0.863
 6980WAT     H221183   1.904   1.383   1.021
 6981WAT      O21184   6.450   9.183   7.109
 6981WAT     H121185   6.505   9.265   7.124
 6981WAT     H221186   6.509   9.103   7.105
 6982WAT      O21187   7.472   6.417   2.481
 6982WAT     H121188   7.453   6.515   2.474
 6982WAT     H221189   7.424   6.379   2.560
 6983WAT      O21190   5.529   7.892   0.879
 6983WAT     H121191   5.545   7.935   0.968
 6983WAT     H221192   5.504   7.962   0.813
 6984WAT      O21193   8.278   5.004   9.161
 6984WAT     H121194   8.297   5.054   9.246
 6984WAT     H221195   8.255   4.909   9.182
 6985WAT      O21196   0.051   8.562   8.244
 6985WAT     H121197   0.047   8.466   8.218
 6985WAT     H221198  -0.040   8.595   8.268
 6986WAT      O21199   6.818   0.029   2.386
 6986WAT     H121200   6.726   0.068   2.379
 6986WAT     H221201   6.827  -0.019   2.473
 6987WAT      O21202   6.706   7.361   6.309
 6987WAT     H121203   6.626   7.325   6.262
 6987WAT     H221204   6.789   7.324   6.266
 6988WAT      O21205   4.584   1.581   1.638
 6988WAT     H121206   4.679   1.577   1.670
 6988WAT     H221207   4.567   1.669   1.595
 6989WAT      O21208   4.169   1.713   5.652
 6989WAT     H121209   4.192   1.624   5.692
 6989WAT     H221210   4.102   1.759   5.710
 6990WAT      O21211   9.793   6.617   2.990
 6990WAT     H121212   9.753   6.649   2.904
 6990WAT     H221213   9.866   6.679   3.017
 6991WAT      O21214   5.056   0.376   2.483
 6991WAT     H121215   5.068   0.438   2.406
 6991WAT     H221216   5.077   0.424   2.568
 6992WAT      O21217   2.089   8.458   8.108
 6992WAT     H121218   2.015   8.511   8.149
 6992WAT     H221219   2.176   8.488   8.146
 6993WAT      O21220   5.781   4.151   9.105
 6993WAT     H121221   5.700   4.108   9.065
 6993WAT     H221222   5.856   4.148   9.039
 6994WAT      O21223   1.007   1.210   2.943
 6994WAT     H121224   1.013   1.129   3.000
 6994WAT     H221225   0.998   1.183   2.847
 6995WAT      O21226   8.334   8.624   6.112
 6995WAT     H121227   8.391   8.704   6.090
 6995WAT     H221228   8.292   8.590   6.028
 6996WAT      O21229   8.606   0.704   0.607
 6996WAT     H121230   8.686   0.733   0.554
 6996WAT     H221231   8.540   0.659   0.547
 6997WAT      O21232   4.596   0.179   3.866
 6997WAT     H121233   4.657   0.160   3.789
 6997WAT     H221234   4.630   0.132   3.948
 6998WAT      O21235   0.208   7.165   1.202
 6998WAT     H121236   0.260   7.242   1.241
 6998WAT     H221237   0.236   7.080   1.247
 6999WAT      O21238   7.988   3.597   7.214
 6999WAT     H121239   7.931   3.677   7.194
 6999WAT     H221240   7.930   3.516   7.222
 7000WAT      O21241   3.395   4.208   2.729
 7000WAT     H121242   3.491   4.237   2.737
 7000WAT     H221243   3.376   4.138   2.797
 7001WAT      O21244   0.978   2.441   1.659
 7001WAT     H121245   1.036   2.366   1.690
 7001WAT     H221246   0.939   2.488   1.738
 7002WAT      O21247   6.914   4.923   6.178
 7002WAT     H121248   6.832   4.866   6.174
 7002WAT     H221249   6.911   4.991   6.104
 7003WAT      O21250   6.861   5.407   5.080
 7003WAT     H121251   6.843   5.506   5.073
 7003WAT     H221252   6.850   5.365   4.990
 7004WAT      O21253   4.067   7.783   0.957
 7004WAT     H121254   4.020   7.722   0.893
 7004WAT     H221255   4.165   7.784   0.937
 7005WAT      O21256   6.981   5.584   2.111
 7005WAT     H121257   6.915   5.517   2.145
 7005WAT     H221258   7.058   5.537   2.068
 7006WAT      O21259   2.264   8.362   7.562
 7006WAT     H121260   2.243   8.321   7.474
 7006WAT     H221261   2.250   8.295   7.635
 7007WAT      O21262   1.248   3.885   9.532
 7007WAT     H121263   1.169   3.851   9.480
 7007WAT     H221264   1.248   3.843   9.623
 7008WAT      O21265   8.332   7.504   5.902
 7008WAT     H121266   8.354   7.415   5.864
 7008WAT     H221267   8.240   7.501   5.942
 7009WAT      O21268   0.074   9.833   3.832
 7009WAT     H121269  -0.019   9.798   3.834
 7009WAT     H221270   0.137   9.759   3.810
 7010WAT      O21271   5.352   3.971   9.719
 7010WAT     H121272   5.266   3.993   9.674
 7010WAT     H221273   5.363   3.872   9.725
 7011WAT      O21274   0.180   8.498   3.882
 7011WAT     H121275   0.229   8.562   3.941
 7011WAT     H221276   0.216   8.405   3.897
 7012WAT      O21277   5.707   3.897   5.569
 7012WAT     H121278   5.641   3.825   5.547
 7012WAT     H221279   5.664   3.963   5.630
 7013WAT      O21280   3.904   2.573   6.630
 7013WAT     H121281   3.881   2.480   6.599
 7013WAT     H221282   4.003   2.581   6.641
 7014WAT      O21283   7.607   0.389   5.368
 7014WAT     H121284   7.627   0.445   5.287
 7014WAT     H221285   7.688   0.335   5.392
 7015WAT      O21286   3.519   1.347   2.400
 7015WAT     H121287   3.480   1.275   2.458
 7015WAT     H221288   3.619   1.346   2.407
 7016WAT      O21289   9.256   8.154   1.844
 7016WAT     H121290   9.242   8.247   1.877
 7016WAT     H221291   9.351   8.126   1.862
 7017WAT      O21292   0.543   7.678   6.370
 7017WAT     H121293   0.526   7.751   6.435
 7017WAT     H221294   0.456   7.632   6.348
 7018WAT      O21295   7.026   3.868   4.925
 7018WAT     H121296   7.052   3.916   4.841
 7018WAT     H221297   7.096   3.882   4.995
 7019WAT      O21298   8.813   3.416   8.807
 7019WAT     H121299   8.862   3.335   8.838
 7019WAT     H221300   8.879   3.484   8.774
 7020WAT      O21301   2.471   6.367   8.384
 7020WAT     H121302   2.524   6.394   8.303
 7020WAT     H221303   2.411   6.290   8.360
 7021WAT      O21304   2.041   8.421   2.844
 7021WAT     H121305   2.124   8.424   2.900
 7021WAT     H221306   2.066   8.405   2.749
 7022WAT      O21307   6.978   5.609   7.865
 7022WAT     H121308   7.072   5.641   7.852
 7022WAT     H221309   6.944   5.568   7.780
 7023WAT      O21310   0.643   0.823   3.961
 7023WAT     H121311   0.703   0.745   3.949
 7023WAT     H221312   0.551   0.792   3.985
 7024WAT      O21313   6.807   0.706   1.841
 7024WAT     H121314   6.828   0.720   1.938
 7024WAT     H221315   6.886   0.735   1.786
 7025WAT      O21316   1.600   4.923   7.408
 7025WAT     H121317   1.507   4.938   7.376
 7025WAT     H221318   1.644   5.012   7.426
 7026WAT      O21319   7.190   1.201   3.351
 7026WAT     H121320   7.280   1.160   3.362
 7026WAT     H221321   7.189   1.260   3.270
 7027WAT      O21322   2.537   4.308   9.336
 7027WAT     H121323   2.512   4.302   9.433
 7027WAT     H221324   2.462   4.350   9.285
 7028WAT      O21325   0.219   2.785   5.628
 7028WAT     H121326   0.122   2.808   5.637
 7028WAT     H221327   0.231   2.686   5.637
 7029WAT      O21328   0.604   1.240   3.844
 7029WAT     H121329   0.673   1.309   3.822
 7029WAT     H221330   0.567   1.201   3.759
 7030WAT      O21331   2.862   8.881   5.778
 7030WAT     H121332   2.863   8.827   5.694
 7030WAT     H221333   2.777   8.934   5.782
 7031WAT      O21334   0.627   9.317   5.151
 7031WAT     H121335   0.702   9.291   5.211
 7031WAT     H221336   0.549   9.256   5.168
 7032WAT      O21337   2.269   5.981   6.332
 7032WAT     H121338   2.193   5.986   6.396
 7032WAT     H221339   2.244   6.028   6.247
 7033WAT      O21340   0.240   7.420   1.289
 7033WAT     H121341   0.181   7.465   1.356
 7033WAT     H221342   0.187   7.399   1.207
 7034WAT      O21343   0.933   6.508   3.476
 7034WAT     H121344   0.870   6.539   3.548
 7034WAT     H221345   0.880   6.471   3.400
 7035WAT      O21346   5.283   6.458   7.737
 7035WAT     H121347   5.331   6.371   7.752
 7035WAT     H221348   5.345   6.534   7.756
 7036WAT      O21349   7.476   4.482   8.201
 7036WAT     H121350   7.396   4.516   8.152
 7036WAT     H221351   7.558   4.500   8.148
 7037WAT      O21352   2.382   7.386   9.157
 7037WAT     H121353   2.375   7.434   9.070
 7037WAT     H221354   2.327   7.432   9.226
 7038WAT      O21355   8.133   5.923   3.459
 7038WAT     H121356   8.101   5.898   3.551
 7038WAT     H221357   8.064   5.981   3.415
 7039WAT      O21358   0.766   1.014   5.507
 7039WAT     H121359   0.760   0.916   5.488
 7039WAT     H221360   0.820   1.028   5.590
 7040WAT      O21361   1.383   5.388   4.382
 7040WAT     H121362   1.423   5.438   4.459
 7040WAT     H221363   1.451   5.325   4.344
 7041WAT      O21364   8.239   2.799   7.570
 7041WAT     H121365   8.296   2.717   7.576
 7041WAT     H221366   8.182   2.794   7.488
 7042WAT      O21367   6.014   4.079   3.012
 7042WAT     H121368   5.961   4.030   3.080
 7042WAT     H221369   6.102   4.034   2.998
 7043WAT      O21370   4.343   7.923   2.251
 7043WAT     H121371   4.341   7.981   2.169
 7043WAT     H221372   4.437   7.893   2.267
 7044WAT      O21373   3.596   3.098   1.864
 7044WAT     H121374   3.515   3.149   1.835
 7044WAT     H221375   3.667   3.163   1.894
 7045WAT      O21376   8.486   4.904   6.786
 7045WAT     H121377   8.486   4.854   6.700
 7045WAT     H221378   8.557   4.867   6.846
 7046WAT      O21379   6.681   0.503   2.870
 7046WAT     H121380   6.665   0.517   2.772
 7046WAT     H221381   6.608   0.549   2.922
 7047WAT      O21382   3.192   5.286   7.479
 7047WAT     H121383   3.257   5.359   7.499
 7047WAT     H221384   3.196   5.217   7.551
 7048WAT      O21385   5.083   0.051   0.600
 7048WAT     H121386   5.026  -0.014   0.650
 7048WAT     H221387   5.153   0.088   0.661
 7049WAT      O21388   4.865   1.553   4.494
 7049WAT     H121389   4.905   1.492   4.563
 7049WAT     H221390   4.814   1.498   4.427
 7050WAT      O21391   3.020   7.818   7.790
 7050WAT     H121392   2.959   7.739   7.801
 7050WAT     H221393   3.046   7.826   7.693
 7051WAT      O21394   6.252   3.539   9.360
 7051WAT     H121395   6.345   3.520   9.390
 7051WAT     H221396   6.253   3.570   9.264
 7052WAT      O21397   4.945   2.494   1.323
 7052WAT     H121398   5.020   2.441   1.282
 7052WAT     H221399   4.908   2.443   1.401
 7053WAT      O21400   9.707   8.881   8.511
 7053WAT     H121401   9.672   8.801   8.560
 7053WAT     H221402   9.660   8.963   8.543
 7054WAT      O21403   7.264   8.925   0.417
 7054WAT     H121404   7.178   8.890   0.455
 7054WAT     H221405   7.341   8.881   0.461
 7055WAT      O21406   7.932   0.725   5.942
 7055WAT     H121407   7.938   0.782   6.024
 7055WAT     H221408   7.836   0.700   5.926
 7056WAT      O21409   6.951   7.472   8.284
 7056WAT     H121410   6.980   7.427   8.199
 7056WAT     H221411   7.014   7.446   8.358
 7057WAT      O21412   0.188   8.035   7.961
 7057WAT     H121413   0.224   8.107   8.021
 7057WAT     H221414   0.094   8.015   7.986
 7058WAT      O21415   3.511   7.218   3.244
 7058WAT     H121416   3.446   7.287   3.214
 7058WAT     H221417   3.543   7.166   3.166
 7059WAT      O21418   8.608   7.566   8.816
 7059WAT     H121419   8.615   7.567   8.717
 7059WAT     H221420   8.513   7.585   8.843
 7060WAT      O21421   8.362   0.922   7.053
 7060WAT     H121422   8.336   0.921   6.956
 7060WAT     H221423   8.444   0.978   7.065
 7061WAT      O21424   2.581   6.553   1.571
 7061WAT     H121425   2.489   6.530   1.539
 7061WAT     H221426   2.574   6.603   1.658
 7062WAT      O21427   3.819   5.466   7.076
 7062WAT     H121428   3.783   5.540   7.132
 7062WAT     H221429   3.906   5.494   7.035
 7063WAT      O21430   1.500   5.697   9.651
 7063WAT     H121431   1.461   5.767   9.590
 7063WAT     H221432   1.537   5.622   9.596
 7064WAT      O21433   9.119   8.370   4.592
 7064WAT     H121434   9.076   8.376   4.501
 7064WAT     H221435   9.154   8.277   4.606
 7065WAT      O21436   5.917   7.552   3.698
 7065WAT     H121437   5.859   7.607   3.638
 7065WAT     H221438   5.882   7.557   3.792
 7066WAT      O21439   3.289   5.230   4.033
 7066WAT     H121440   3.285   5.304   3.966
 7066WAT     H221441   3.358   5.251   4.102
 7067WAT      O21442   6.762   5.282   5.305
 7067WAT     H121443   6.774   5.323   5.214
 7067WAT     H221444   6.737   5.352   5.371
 7068WAT      O21445   4.311   1.960   7.728
 7068WAT     H121446   4.293   1.916   7.816
 7068WAT     H221447   4.267   1.907   7.655
 7069WAT      O21448   5.499   4.063   4.760
 7069WAT     H121449   5.464   4.061   4.854
 7069WAT     H221450   5.547   4.149   4.744
 7070WAT      O21451   1.586   3.598   3.852
 7070WAT     H121452   1.503   3.544   3.841
 7070WAT     H221453   1.575   3.686   3.805
 7071WAT      O21454   9.401   0.466   7.120
 7071WAT     H121455   9.457   0.461   7.202
 7071WAT     H221456   9.357   0.555   7.115
 7072WAT      O21457   0.606   6.672   2.070
 7072WAT     H121458   0.623   6.770   2.081
 7072WAT     H221459   0.508   6.654   2.082
 7073WAT      O21460   1.235   3.057   0.964
 7073WAT     H121461   1.305   3.085   0.898
 7073WAT     H221462   1.183   3.137   0.993
 7074WAT      O21463   4.259   3.914   3.856
 7074WAT     H121464   4.194   3.865   3.799
 7074WAT     H221465   4.227   3.913   3.951
 7075WAT      O21466   7.675   1.113   3.938
 7075WAT     H121467   7.767   1.124   3.901
 7075WAT     H221468   7.660   1.017   3.963
 7076WAT      O21469   7.582   0.155   1.238
 7076WAT     H121470   7.494   0.111   1.254
 7076WAT     H221471   7.644   0.136   1.314
 7077WAT      O21472   3.433   3.203   5.597
 7077WAT     H121473   3.501   3.272   5.623
 7077WAT     H221474   3.443   3.181   5.500
 7078WAT      O21475   0.058   7.902   3.243
 7078WAT     H121476  -0.037   7.908   3.277
 7078WAT     H221477   0.080   7.806   3.226
 7079WAT      O21478   1.257   7.092   8.140
 7079WAT     H121479   1.265   6.993   8.140
 7079WAT     H221480   1.204   7.121   8.060
 7080WAT      O21481   3.950   1.003   5.537
 7080WAT     H121482   3.956   0.904   5.525
 7080WAT     H221483   4.025   1.047   5.488
 7081WAT      O21484   8.168   0.682   8.355
 7081WAT     H121485   8.131   0.770   8.327
 7081WAT     H221486   8.211   0.691   8.445
 7082WAT      O21487   3.210   0.393   6.358
 7082WAT     H121488   3.251   0.484   6.350
 7082WAT     H221489   3.132   0.397   6.421
 7083WAT      O21490   0.339   2.660   1.803
 7083WAT     H121491   0.310   2.755   1.818
 7083WAT     H221492   0.419   2.659   1.743
 7084WAT      O21493   9.388   3.025   4.766
 7084WAT     H121494   9.364   2.988   4.856
 7084WAT     H221495   9.449   2.961   4.719
 7085WAT      O21496   9.351   8.052   5.671
 7085WAT     H121497   9.297   8.110   5.732
 7085WAT     H221498   9.398   7.982   5.725
 7086WAT      O21499   0.652   9.382   7.032
 7086WAT     H121500   0.723   9.402   7.100
 7086WAT     H221501   0.633   9.284   7.032
 7087WAT      O21502   0.266   0.763   0.572
 7087WAT     H121503   0.338   0.819   0.530
 7087WAT     H221504   0.219   0.817   0.643
 7088WAT      O21505   4.884   5.709   8.885
 7088WAT     H121506   4.843   5.621   8.862
 7088WAT     H221507   4.937   5.701   8.969
 7089WAT      O21508   2.649   9.139   9.764
 7089WAT     H121509   2.638   9.130   9.665
 7089WAT     H221510   2.744   9.120   9.789
 7090WAT      O21511   4.101   7.636   8.511
 7090WAT     H121512   4.095   7.668   8.606
 7090WAT     H221513   4.015   7.657   8.464
 7091WAT      O21514   4.552   1.864   6.967
 7091WAT     H121515   4.604   1.801   6.909
 7091WAT     H221516   4.580   1.852   7.063
 7092WAT      O21517   8.497   1.986   1.697
 7092WAT     H121518   8.590   1.988   1.661
 7092WAT     H221519   8.432   1.985   1.621
 7093WAT      O21520   0.553   3.946   0.875
 7093WAT     H121521   0.505   3.877   0.822
 7093WAT     H221522   0.618   3.903   0.937
 7094WAT      O21523   3.297   5.398   4.802
 7094WAT     H121524   3.331   5.487   4.834
 7094WAT     H221525   3.231   5.362   4.867
 7095WAT      O21526   0.231   7.795   7.644
 7095WAT     H121527   0.315   7.815   7.695
 7095WAT     H221528   0.155   7.787   7.708
 7096WAT      O21529   3.212   8.280   4.925
 7096WAT     H121530   3.246   8.266   4.832
 7096WAT     H221531   3.174   8.372   4.932
 7097WAT      O21532   6.016   9.435   0.495
 7097WAT     H121533   5.966   9.506   0.544
 7097WAT     H221534   5.961   9.405   0.416
 7098WAT      O21535   3.130   5.960   3.902
 7098WAT     H121536   3.104   6.013   3.982
 7098WAT     H221537   3.080   5.873   3.902
 7099WAT      O21538   3.883   5.145   3.057
 7099WAT     H121539   3.974   5.151   3.097
 7099WAT     H221540   3.835   5.066   3.096
 7100WAT      O21541   6.151   4.246   7.239
 7100WAT     H121542   6.170   4.266   7.336
 7100WAT     H221543   6.078   4.306   7.207
 7101WAT      O21544   7.662   6.199   8.934
 7101WAT     H121545   7.740   6.214   8.994
 7101WAT     H221546   7.583   6.169   8.989
 7102WAT      O21547   9.441   0.519   0.775
 7102WAT     H121548   9.477   0.511   0.868
 7102WAT     H221549   9.509   0.485   0.710
 7103WAT      O21550   7.875   2.854   2.357
 7103WAT     H121551   7.856   2.877   2.262
 7103WAT     H221552   7.935   2.775   2.361
 7104WAT      O21553   2.942   8.459   2.609
 7104WAT     H121554   2.868   8.467   2.542
 7104WAT     H221555   2.906   8.421   2.694
 7105WAT      O21556   5.390   4.251   9.832
 7105WAT     H121557   5.376   4.163   9.787
 7105WAT     H221558   5.488   4.268   9.845
 7106WAT      O21559   8.362   2.322   1.166
 7106WAT     H121560   8.288   2.347   1.103
 7106WAT     H221561   8.398   2.232   1.141
 7107WAT      O21562   8.349   9.525   8.021
 7107WAT     H121563   8.418   9.453   8.027
 7107WAT     H221564   8.356   9.585   8.101
 7108WAT      O21565   3.541   1.726   7.600
 7108WAT     H121566   3.580   1.635   7.591
 7108WAT     H221567   3.615   1.794   7.608
 7109WAT      O21568   8.101   1.394   5.111
 7109WAT     H121569   8.072   1.467   5.173
 7109WAT     H221570   8.193   1.363   5.137
 7110WAT      O21571   3.676   5.265   0.375
 7110WAT     H121572   3.758   5.221   0.338
 7110WAT     H221573   3.695   5.303   0.465
 7111WAT      O21574   3.750   4.300   8.448
 7111WAT     H121575   3.825   4.328   8.508
 7111WAT     H221576   3.740   4.201   8.451
 7112WAT      O21577   0.068   5.613   0.940
 7112WAT     H121578   0.132   5.639   0.867
 7112WAT     H221579   0.115   5.619   1.028
 7113WAT      O21580   2.441   6.780   5.598
 7113WAT     H121581   2.355   6.804   5.642
 7113WAT     H221582   2.423   6.739   5.508
 7114WAT      O21583   8.922   4.956   8.042
 7114WAT     H121584   8.914   4.870   7.992
 7114WAT     H221585   8.984   4.944   8.120
 7115WAT      O21586   1.946   3.598   5.223
 7115WAT     H121587   1.954   3.607   5.123
 7115WAT     H221588   1.881   3.526   5.245
 7116WAT      O21589   2.626   5.290   7.496
 7116WAT     H121590   2.690   5.217   7.471
 7116WAT     H221591   2.662   5.378   7.463
 7117WAT      O21592   5.522   6.482   0.522
 7117WAT     H121593   5.461   6.514   0.594
 7117WAT     H221594   5.578   6.407   0.557
 7118WAT      O21595   7.533   5.109   5.658
 7118WAT     H121596   7.602   5.180   5.669
 7118WAT     H221597   7.574   5.027   5.619
 7119WAT      O21598   5.259   7.802   7.334
 7119WAT     H121599   5.203   7.884   7.327
 7119WAT     H221600   5.208   7.724   7.298
 7120WAT      O21601   8.240   3.481   2.731
 7120WAT     H121602   8.236   3.431   2.817
 7120WAT     H221603   8.195   3.569   2.741
 7121WAT      O21604   9.126   2.535   3.938
 7121WAT     H121605   9.028   2.551   3.948
 7121WAT     H221606   9.148   2.441   3.963
 7122WAT      O21607   9.485   4.216   7.869
 7122WAT     H121608   9.502   4.246   7.963
 7122WAT     H221609   9.483   4.116   7.865
 7123WAT      O21610   3.143   7.627   5.973
 7123WAT     H121611   3.106   7.659   6.060
 7123WAT     H221612   3.136   7.699   5.905
 7124WAT      O21613   8.890   0.386   9.152
 7124WAT     H121614   8.848   0.349   9.235
 7124WAT     H221615   8.982   0.420   9.173
 7125WAT      O21616   4.438   2.073   4.223
 7125WAT     H121617   4.456   2.055   4.127
 7125WAT     H221618   4.389   1.995   4.263
 7126WAT      O21619   7.089   7.865   1.753
 7126WAT     H121620   6.997   7.828   1.739
 7126WAT     H221621   7.149   7.835   1.678
 7127WAT      O21622   0.176   3.474   0.530
 7127WAT     H121623   0.218   3.433   0.449
 7127WAT     H221624   0.099   3.531   0.502
 7128WAT      O21625   0.988   7.565   8.336
 7128WAT     H121626   1.028   7.641   8.386
 7128WAT     H221627   0.996   7.481   8.391
 7129WAT      O21628   4.515   1.985   2.602
 7129WAT     H121629   4.487   2.053   2.670
 7129WAT     H221630   4.487   2.014   2.511
 7130WAT      O21631   9.488   5.546   0.015
 7130WAT     H121632   9.457   5.485   0.088
 7130WAT     H221633   9.580   5.578   0.036
 7131WAT      O21634   6.478   2.101   8.378
 7131WAT     H121635   6.437   2.109   8.469
 7131WAT     H221636   6.407   2.083   8.311
 7132WAT      O21637   1.108   9.429   0.999
 7132WAT     H121638   1.183   9.369   1.028
 7132WAT     H221639   1.142   9.522   0.991
 7133WAT      O21640   6.892   7.343   8.639
 7133WAT     H121641   6.982   7.363   8.601
 7133WAT     H221642   6.838   7.428   8.643
 7134WAT      O21643   7.004   5.144   1.644
 7134WAT     H121644   6.961   5.189   1.567
 7134WAT     H221645   7.045   5.212   1.704
 7135WAT      O21646   3.774   4.993   5.733
 7135WAT     H121647   3.800   5.059   5.662
 7135WAT     H221648   3.770   5.039   5.821
 7136WAT      O21649   3.902   9.432   3.369
 7136WAT     H121650   3.814   9.426   3.323
 7136WAT     H221651   3.941   9.523   3.353
 7137WAT      O21652   9.290   8.396   0.011
 7137WAT     H121653   9.365   8.367  -0.050
 7137WAT     H221654   9.230   8.459  -0.038
 7138WAT      O21655   6.890   0.445   0.755
 7138WAT     H121656   6.828   0.454   0.678
 7138WAT     H221657   6.883   0.352   0.792
 7139WAT      O21658   8.513   9.806   3.037
 7139WAT     H121659   8.562   9.781   2.954
 7139WAT     H221660   8.441   9.738   3.055
 7140WAT      O21661   7.416   0.043   5.321
 7140WAT     H121662   7.411  -0.025   5.394
 7140WAT     H221663   7.359   0.122   5.344
 7141WAT      O21664   0.933   0.304   5.917
 7141WAT     H121665   0.833   0.299   5.919
 7141WAT     H221666   0.972   0.212   5.918
 7142WAT      O21667   7.301   2.838   2.043
 7142WAT     H121668   7.330   2.930   2.069
 7142WAT     H221669   7.211   2.819   2.080
 7143WAT      O21670   4.121   7.680   0.589
 7143WAT     H121671   4.106   7.776   0.609
 7143WAT     H221672   4.152   7.670   0.495
 7144WAT      O21673   7.441   3.757   3.648
 7144WAT     H121674   7.407   3.780   3.557
 7144WAT     H221675   7.453   3.841   3.701
 7145WAT      O21676   5.547   5.477   9.709
 7145WAT     H121677   5.559   5.576   9.699
 7145WAT     H221678   5.555   5.433   9.619
 7146WAT      O21679   6.934   3.034   7.385
 7146WAT     H121680   7.016   3.073   7.426
 7146WAT     H221681   6.950   2.938   7.362
 7147WAT      O21682   6.479   0.508   7.804
 7147WAT     H121683   6.475   0.410   7.821
 7147WAT     H221684   6.399   0.536   7.750
 7148WAT      O21685   8.103   5.850   3.721
 7148WAT     H121686   8.092   5.751   3.719
 7148WAT     H221687   8.150   5.878   3.805
 7149WAT      O21688   4.853   1.434   8.682
 7149WAT     H121689   4.819   1.405   8.592
 7149WAT     H221690   4.908   1.361   8.722
 7150WAT      O21691   7.113   9.416   0.324
 7150WAT     H121692   7.164   9.377   0.248
 7150WAT     H221693   7.172   9.420   0.405
 7151WAT      O21694   6.465   9.389   6.035
 7151WAT     H121695   6.551   9.421   5.996
 7151WAT     H221696   6.411   9.345   5.964
 7152WAT      O21697   2.306   4.953   4.039
 7152WAT     H121698   2.261   4.865   4.049
 7152WAT     H221699   2.243   5.019   4.000
 7153WAT      O21700   6.363   5.193   5.252
 7153WAT     H121701   6.315   5.137   5.184
 7153WAT     H221702   6.316   5.186   5.340
 7154WAT      O21703   1.779   6.123   0.223
 7154WAT     H121704   1.751   6.035   0.261
 7154WAT     H221705   1.868   6.113   0.177
 7155WAT      O21706   2.745   3.440   9.123
 7155WAT     H121707   2.794   3.403   9.202
 7155WAT     H221708   2.775   3.533   9.105
 7156WAT      O21709   0.351   7.576   5.746
 7156WAT     H121710   0.392   7.562   5.656
 7156WAT     H221711   0.411   7.538   5.816
 7157WAT      O21712   9.030   2.748   7.934
 7157WAT     H121713   9.010   2.846   7.941
 7157WAT     H221714   9.073   2.729   7.846
 7158WAT      O21715   1.487   4.000   8.321
 7158WAT     H121716   1.580   3.986   8.286
 7158WAT     H221717   1.479   4.094   8.355
 7159WAT      O21718   6.569   6.592   9.202
 7159WAT     H121719   6.617   6.680   9.206
 7159WAT     H221720   6.506   6.591   9.125
 7160WAT      O21721   1.747   5.447   1.606
 7160WAT     H121722   1.750   5.472   1.703
 7160WAT     H221723   1.832   5.476   1.562
 7161WAT      O21724   1.426   9.325   5.653
 7161WAT     H121725   1.382   9.237   5.670
 7161WAT     H221726   1.490   9.346   5.728
 7162WAT      O21727   4.073   0.994   9.755
 7162WAT     H121728   4.058   0.935   9.834
 7162WAT     H221729   4.152   1.053   9.771
 7163WAT      O21730   6.637   3.995   8.502
 7163WAT     H121731   6.544   3.994   8.466
 7163WAT     H221732   6.687   4.074   8.465
 7164WAT      O21733   5.278   5.888   5.206
 7164WAT     H121734   5.264   5.860   5.111
 7164WAT     H221735   5.287   5.807   5.264
 7165WAT      O21736   7.405   6.832   3.981
 7165WAT     H121737   7.428   6.753   3.924
 7165WAT     H221738   7.318   6.871   3.950
 7166WAT      O21739   5.183   0.520   7.734
 7166WAT     H121740   5.244   0.572   7.795
 7166WAT     H221741   5.219   0.427   7.723
 7167WAT      O21742   1.183   8.040   6.353
 7167WAT     H121743   1.097   8.085   6.328
 7167WAT     H221744   1.216   7.989   6.274
 7168WAT      O21745   5.939   0.339   5.419
 7168WAT     H121746   5.874   0.329   5.494
 7168WAT     H221747   5.890   0.369   5.337
 7169WAT      O21748   6.933   4.191   6.093
 7169WAT     H121749   6.969   4.212   6.183
 7169WAT     H221750   6.937   4.093   6.077
 7170WAT      O21751   9.616   6.426   8.716
 7170WAT     H121752   9.572   6.501   8.668
 7170WAT     H221753   9.564   6.342   8.702
 7171WAT      O21754   0.979   3.557   7.228
 7171WAT     H121755   0.957   3.587   7.321
 7171WAT     H221756   1.073   3.583   7.205
 7172WAT      O21757   9.063   0.570   5.909
 7172WAT     H121758   9.076   0.510   5.988
 7172WAT     H221759   9.039   0.662   5.940
 7173WAT      O21760   8.876   7.325   2.474
 7173WAT     H121761   8.915   7.363   2.558
 7173WAT     H221762   8.792   7.276   2.496
 7174WAT      O21763   4.265   4.807   1.813
 7174WAT     H121764   4.220   4.821   1.901
 7174WAT     H221765   4.211   4.848   1.740
 7175WAT      O21766   1.726   5.171   9.870
 7175WAT     H121767   1.764   5.257   9.902
 7175WAT     H221768   1.654   5.189   9.802
 7176WAT      O21769   0.782   0.963   1.250
 7176WAT     H121770   0.861   0.943   1.308
 7176WAT     H221771   0.760   0.882   1.196
 7177WAT      O21772   4.759   3.741   0.963
 7177WAT     H121773   4.763   3.759   1.062
 7177WAT     H221774   4.744   3.828   0.915
 7178WAT      O21775   0.726   6.625   8.456
 7178WAT     H121776   0.708   6.721   8.475
 7178WAT     H221777   0.656   6.589   8.395
 7179WAT      O21778   0.885   4.643   5.742
 7179WAT     H121779   0.811   4.672   5.683
 7179WAT     H221780   0.973   4.673   5.703
 7180WAT      O21781   8.507   7.054   7.934
 7180WAT     H121782   8.437   7.055   7.862
 7180WAT     H221783   8.478   6.995   8.009
 7181WAT      O21784   2.048   9.050   6.177
 7181WAT     H121785   2.004   9.071   6.090
 7181WAT     H221786   1.979   9.016   6.241
 7182WAT      O21787   8.438   9.065   2.831
 7182WAT     H121788   8.372   9.131   2.868
 7182WAT     H221789   8.507   9.114   2.777
 7183WAT      O21790   9.021   5.272   2.290
 7183WAT     H121791   8.924   5.257   2.310
 7183WAT     H221792   9.029   5.328   2.207
 7184WAT      O21793   9.425   9.721   5.199
 7184WAT     H121794   9.344   9.680   5.158
 7184WAT     H221795   9.449   9.671   5.282
 7185WAT      O21796   5.581   2.434   6.062
 7185WAT     H121797   5.499   2.479   6.096
 7185WAT     H221798   5.662   2.485   6.094
 7186WAT      O21799   6.516   0.637   0.119
 7186WAT     H121800   6.512   0.703   0.044
 7186WAT     H221801   6.436   0.647   0.177
 7187WAT      O21802   5.348   9.372   8.873
 7187WAT     H121803   5.266   9.427   8.882
 7187WAT     H221804   5.426   9.430   8.851
 7188WAT      O21805   9.204   5.610   5.205
 7188WAT     H121806   9.259   5.567   5.277
 7188WAT     H221807   9.107   5.601   5.227
 7189WAT      O21808   4.144   2.115   6.797
 7189WAT     H121809   4.197   2.161   6.868
 7189WAT     H221810   4.206   2.075   6.730
 7190WAT      O21811   5.844   1.537   2.252
 7190WAT     H121812   5.811   1.446   2.230
 7190WAT     H221813   5.803   1.568   2.338
 7191WAT      O21814   0.625   6.883   8.493
 7191WAT     H121815   0.564   6.863   8.570
 7191WAT     H221816   0.571   6.913   8.415
 7192WAT      O21817   5.780   0.877   0.582
 7192WAT     H121818   5.800   0.851   0.487
 7192WAT     H221819   5.854   0.846   0.641
 7193WAT      O21820   8.281   4.844   7.273
 7193WAT     H121821   8.212   4.916   7.269
 7193WAT     H221822   8.238   4.755   7.261
 7194WAT      O21823   0.025   2.839   6.632
 7194WAT     H121824   0.022   2.740   6.625
 7194WAT     H221825   0.078   2.866   6.713
 7195WAT      O21826   1.159   3.799   8.602
 7195WAT     H121827   1.202   3.847   8.678
 7195WAT     H221828   1.060   3.794   8.618
 7196WAT      O21829   6.647   7.306   1.193
 7196WAT     H121830   6.557   7.320   1.233
 7196WAT     H221831   6.637   7.260   1.104
 7197WAT      O21832   1.918   4.995   0.814
 7197WAT     H121833   1.849   4.987   0.742
 7197WAT     H221834   1.913   5.086   0.855
 7198WAT      O21835   1.553   1.211   7.732
 7198WAT     H121836   1.552   1.309   7.712
 7198WAT     H221837   1.483   1.166   7.677
 7199WAT      O21838   6.613   7.481   4.100
 7199WAT     H121839   6.595   7.444   4.191
 7199WAT     H221840   6.697   7.440   4.064
 7200WAT      O21841   8.207   1.585   5.558
 7200WAT     H121842   8.159   1.568   5.471
 7200WAT     H221843   8.228   1.683   5.565
 7201WAT      O21844   8.002   5.747   7.292
 7201WAT     H121845   8.015   5.667   7.349
 7201WAT     H221846   8.055   5.824   7.329
 7202WAT      O21847   0.763   9.801   8.751
 7202WAT     H121848   0.856   9.764   8.746
 7202WAT     H221849   0.756   9.880   8.691
 7203WAT      O21850   2.271   1.031   0.803
 7203WAT     H121851   2.235   1.009   0.893
 7203WAT     H221852   2.354   0.978   0.786
 7204WAT      O21853   5.649   1.129   4.211
 7204WAT     H121854   5.580   1.071   4.170
 7204WAT     H221855   5.721   1.149   4.144
 7205WAT      O21856   6.221   2.305   2.759
 7205WAT     H121857   6.292   2.296   2.829
 7205WAT     H221858   6.132   2.315   2.804
 7206WAT      O21859   2.500   7.036   0.567
 7206WAT     H121860   2.406   7.001   0.577
 7206WAT     H221861   2.526   7.034   0.471
 7207WAT      O21862   6.153   8.773   5.805
 7207WAT     H121863   6.112   8.826   5.880
 7207WAT     H221864   6.176   8.681   5.838
 7208WAT      O21865   8.078   8.428   7.222
 7208WAT     H121866   8.018   8.349   7.235
 7208WAT     H221867   8.148   8.405   7.153
 7209WAT      O21868   0.408   2.204   1.659
 7209WAT     H121869   0.369   2.128   1.712
 7209WAT     H221870   0.495   2.231   1.700
 7210WAT      O21871   1.875   6.690   8.731
 7210WAT     H121872   1.871   6.721   8.636
 7210WAT     H221873   1.933   6.752   8.784
 7211WAT      O21874   9.592   5.664   6.302
 7211WAT     H121875   9.558   5.623   6.387
 7211WAT     H221876   9.590   5.595   6.229
 7212WAT      O21877   2.167   3.502   1.819
 7212WAT     H121878   2.096   3.572   1.810
 7212WAT     H221879   2.244   3.525   1.760
 7213WAT      O21880   5.546   5.796   9.239
 7213WAT     H121881   5.553   5.872   9.173
 7213WAT     H221882   5.635   5.751   9.246
 7214WAT      O21883   7.945   5.380   5.342
 7214WAT     H121884   7.997   5.421   5.417
 7214WAT     H221885   7.999   5.307   5.300
 7215WAT      O21886   0.921   7.872   4.237
 7215WAT     H121887   0.843   7.813   4.214
 7215WAT     H221888   0.994   7.817   4.276
 7216WAT      O21889   9.001   0.978   4.170
 7216WAT     H121890   9.002   0.884   4.205
 7216WAT     H221891   8.906   1.010   4.163
 7217WAT      O21892   4.965   4.022   0.691
 7217WAT     H121893   5.027   3.982   0.758
 7217WAT     H221894   5.015   4.085   0.632
 7218WAT      O21895   8.649   1.122   3.697
 7218WAT     H121896   8.721   1.161   3.755
 7218WAT     H221897   8.631   1.028   3.727
 7219WAT      O21898   5.453   3.323   4.643
 7219WAT     H121899   5.417   3.281   4.559
 7219WAT     H221900   5.390   3.394   4.673
 7220WAT      O21901   8.846   0.600   5.410
 7220WAT     H121902   8.873   0.607   5.506
 7220WAT     H221903   8.879   0.514   5.372
 7221WAT      O21904   7.312   7.557   6.474
 7221WAT     H121905   7.243   7.629   6.479
 7221WAT     H221906   7.305   7.499   6.556
 7222WAT      O21907   6.406   7.007   8.838
 7222WAT     H121908   6.484   6.945   8.845
 7222WAT     H221909   6.326   6.956   8.807
 7223WAT      O21910   7.936   4.566   4.982
 7223WAT     H121911   7.878   4.631   4.933
 7223WAT     H221912   7.902   4.556   5.076
 7224WAT      O21913   2.733   2.685   0.563
 7224WAT     H121914   2.665   2.621   0.528
 7224WAT     H221915   2.760   2.748   0.490
 7225WAT      O21916   6.912   4.684   1.287
 7225WAT     H121917   6.923   4.772   1.332
 7225WAT     H221918   6.856   4.695   1.205
 7226WAT      O21919   1.040   6.052   6.862
 7226WAT     H121920   1.094   5.996   6.800
 7226WAT     H221921   0.944   6.021   6.861
 7227WAT      O21922   3.682   9.761   7.705
 7227WAT     H121923   3.655   9.847   7.661
 7227WAT     H221924   3.637   9.753   7.793
 7228WAT      O21925   8.027   0.500   2.848
 7228WAT     H121926   8.082   0.431   2.799
 7228WAT     H221927   8.082   0.539   2.922
 7229WAT      O21928   7.524   0.400   2.826
 7229WAT     H121929   7.608   0.388   2.773
 7229WAT     H221930   7.477   0.312   2.834
 7230WAT      O21931   6.643   6.115   6.037
 7230WAT     H121932   6.594   6.181   5.980
 7230WAT     H221933   6.578   6.051   6.077
 7231WAT      O21934   2.400   1.943   7.384
 7231WAT     H121935   2.462   2.016   7.415
 7231WAT     H221936   2.370   1.963   7.290
 7232WAT      O21937   6.273   6.399   7.737
 7232WAT     H121938   6.291   6.483   7.788
 7232WAT     H221939   6.345   6.384   7.670
 7233WAT      O21940   2.808   3.866   6.188
 7233WAT     H121941   2.833   3.940   6.127
 7233WAT     H221942   2.874   3.861   6.263
 7234WAT      O21943   8.952   1.539   0.127
 7234WAT     H121944   8.885   1.486   0.075
 7234WAT     H221945   8.996   1.480   0.195
 7235WAT      O21946   2.405   5.130   7.379
 7235WAT     H121947   2.463   5.206   7.408
 7235WAT     H221948   2.339   5.162   7.310
 7236WAT      O21949   0.290   7.835   2.024
 7236WAT     H121950   0.270   7.743   1.992
 7236WAT     H221951   0.241   7.852   2.110
 7237WAT      O21952   4.110   3.312   6.691
 7237WAT     H121953   4.058   3.328   6.774
 7237WAT     H221954   4.123   3.398   6.642
 7238WAT      O21955   9.793   1.414   1.081
 7238WAT     H121956   9.784   1.334   1.141
 7238WAT     H221957   9.758   1.391   0.990
 7239WAT      O21958   6.926   2.520   0.071
 7239WAT     H121959   6.986   2.486   0.143
 7239WAT     H221960   6.958   2.608   0.038
 7240WAT      O21961   1.327   5.208   6.769
 7240WAT     H121962   1.247   5.262   6.796
 7240WAT     H221963   1.395   5.210   6.842
 7241WAT      O21964   7.993   9.778   9.611
 7241WAT     H121965   7.906   9.822   9.589
 7241WAT     H221966   7.979   9.679   9.620
 7242WAT      O21967   6.485   8.216   6.908
 7242WAT     H121968   6.530   8.209   6.997
 7242WAT     H221969   6.494   8.128   6.860
 7243WAT      O21970   6.162   7.290   7.520
 7243WAT     H121971   6.096   7.215   7.512
 7243WAT     H221972   6.233   7.265   7.586
 7244WAT      O21973   4.074   2.923   1.305
 7244WAT     H121974   4.078   2.991   1.378
 7244WAT     H221975   4.125   2.956   1.226
 7245WAT      O21976   2.104   2.961   6.560
 7245WAT     H121977   2.046   2.986   6.482
 7245WAT     H221978   2.048   2.950   6.641
 7246WAT      O21979   8.504   5.339   1.856
 7246WAT     H121980   8.480   5.273   1.785
 7246WAT     H221981   8.426   5.351   1.918
 7247WAT      O21982   3.067   3.754   0.766
 7247WAT     H121983   3.079   3.850   0.739
 7247WAT     H221984   3.049   3.699   0.685
 7248WAT      O21985   4.593   8.602   6.676
 7248WAT     H121986   4.509   8.656   6.665
 7248WAT     H221987   4.634   8.622   6.765
 7249WAT      O21988   2.992   7.287   5.865
 7249WAT     H121989   2.992   7.370   5.811
 7249WAT     H221990   2.940   7.216   5.818
 7250WAT      O21991   6.244   1.472   0.853
 7250WAT     H121992   6.178   1.415   0.903
 7250WAT     H221993   6.334   1.428   0.854
 7251WAT      O21994   5.107   3.238   5.494
 7251WAT     H121995   5.096   3.140   5.478
 7251WAT     H221996   5.188   3.254   5.551
 7252WAT      O21997   6.179   7.315   8.327
 7252WAT     H121998   6.158   7.403   8.370
 7252WAT     H221999   6.097   7.278   8.284
 7253WAT      O22000   3.783   5.739   1.400
 7253WAT     H122001   3.709   5.740   1.332
 7253WAT     H222002   3.752   5.693   1.483
 7254WAT      O22003   3.689   4.889   8.762
 7254WAT     H122004   3.647   4.801   8.786
 7254WAT     H222005   3.663   4.914   8.669
 7255WAT      O22006   3.827   3.554   4.170
 7255WAT     H122007   3.898   3.491   4.137
 7255WAT     H222008   3.738   3.509   4.166
 7256WAT      O22009   8.908   1.370   2.693
 7256WAT     H122010   8.922   1.299   2.762
 7256WAT     H222011   8.847   1.336   2.622
 7257WAT      O22012   4.560   1.640   8.562
 7257WAT     H122013   4.647   1.632   8.512
 7257WAT     H222014   4.538   1.737   8.575
 7258WAT      O22015   4.579   7.775   0.154
 7258WAT     H122016   4.601   7.853   0.213
 7258WAT     H222017   4.654   7.709   0.157
 7259WAT      O22018   7.315   8.934   4.621
 7259WAT     H122019   7.383   9.002   4.649
 7259WAT     H222020   7.247   8.924   4.693
 7260WAT      O22021   4.682   6.743   4.708
 7260WAT     H122022   4.755   6.752   4.640
 7260WAT     H222023   4.595   6.730   4.661
 7261WAT      O22024   4.624   6.790   1.480
 7261WAT     H122025   4.616   6.738   1.565
 7261WAT     H222026   4.546   6.852   1.471
 7262WAT      O22027   1.955   4.184   1.214
 7262WAT     H122028   1.869   4.196   1.164
 7262WAT     H222029   1.990   4.092   1.198
 7263WAT      O22030   3.037   2.162   2.952
 7263WAT     H122031   2.973   2.191   3.024
 7263WAT     H222032   3.103   2.234   2.935
 7264WAT      O22033   1.717   8.589   9.576
 7264WAT     H122034   1.661   8.573   9.658
 7264WAT     H222035   1.719   8.506   9.521
 7265WAT      O22036   2.261   3.505   4.075
 7265WAT     H122037   2.313   3.583   4.044
 7265WAT     H222038   2.174   3.500   4.026
 7266WAT      O22039   8.894   0.321   1.453
 7266WAT     H122040   8.983   0.366   1.464
 7266WAT     H222041   8.837   0.339   1.533
 7267WAT      O22042   1.793   2.230   0.826
 7267WAT     H122043   1.830   2.181   0.905
 7267WAT     H222044   1.843   2.203   0.744
 7268WAT      O22045   6.922   7.450   7.367
 7268WAT     H122046   7.002   7.397   7.397
 7268WAT     H222047   6.941   7.492   7.278
 7269WAT      O22048   1.854   1.502   1.345
 7269WAT     H122049   1.759   1.533   1.356
 7269WAT     H222050   1.856   1.402   1.347
 7270WAT      O22051   9.550   9.754   8.171
 7270WAT     H122052   9.578   9.793   8.259
 7270WAT     H222053   9.475   9.689   8.186
 7271WAT      O22054   0.143   5.811   7.360
 7271WAT     H122055   0.159   5.851   7.270
 7271WAT     H222056   0.190   5.723   7.366
 7272WAT      O22057   1.931   9.693   4.449
 7272WAT     H122058   1.860   9.764   4.454
 7272WAT     H222059   1.975   9.684   4.538
 7273WAT      O22060   4.577   6.653   1.807
 7273WAT     H122061   4.546   6.584   1.741
 7273WAT     H222062   4.667   6.628   1.841
 7274WAT      O22063   9.128   1.205   2.563
 7274WAT     H122064   9.128   1.105   2.552
 7274WAT     H222065   9.037   1.241   2.546
 7275WAT      O22066   8.651   8.568   7.873
 7275WAT     H122067   8.643   8.666   7.892
 7275WAT     H222068   8.601   8.517   7.943
 7276WAT      O22069   8.024   4.604   0.394
 7276WAT     H122070   7.930   4.576   0.413
 7276WAT     H222071   8.059   4.656   0.471
 7277WAT      O22072   7.304   3.345   8.371
 7277WAT     H122073   7.264   3.434   8.347
 7277WAT     H222074   7.379   3.358   8.436
 7278WAT      O22075   5.141   2.470   9.479
 7278WAT     H122076   5.165   2.487   9.575
 7278WAT     H222077   5.070   2.399   9.475
 7279WAT      O22078   5.593   0.310   0.326
 7279WAT     H122079   5.510   0.364   0.307
 7279WAT     H222080   5.664   0.370   0.361
 7280WAT      O22081   5.920   6.436   7.052
 7280WAT     H122082   5.937   6.475   6.961
 7280WAT     H222083   5.860   6.357   7.044
 7281WAT      O22084   6.228   7.505   5.012
 7281WAT     H122085   6.200   7.600   5.008
 7281WAT     H222086   6.213   7.469   5.105
 7282WAT      O22087   4.430   7.665   4.900
 7282WAT     H122088   4.357   7.624   4.955
 7282WAT     H222089   4.446   7.759   4.930
 7283WAT      O22090   6.242   2.705   7.327
 7283WAT     H122091   6.177   2.629   7.320
 7283WAT     H222092   6.245   2.755   7.240
 7284WAT      O22093   0.232   5.943   5.885
 7284WAT     H122094   0.201   5.882   5.958
 7284WAT     H222095   0.156   5.998   5.852
 7285WAT      O22096   3.820   2.804   3.640
 7285WAT     H122097   3.888   2.878   3.632
 7285WAT     H222098   3.759   2.824   3.716
 7286WAT      O22099   2.239   5.687   3.557
 7286WAT     H122100   2.214   5.711   3.651
 7286WAT     H222101   2.333   5.653   3.556
 7287WAT      O22102   8.445   3.267   7.234
 7287WAT     H122103   8.426   3.197   7.303
 7287WAT     H222104   8.511   3.232   7.168
 7288WAT      O22105   6.003   6.970   4.841
 7288WAT     H122106   6.025   6.884   4.887
 7288WAT     H222107   5.922   7.010   4.884
 7289WAT      O22108   4.532   2.306   7.928
 7289WAT     H122109   4.631   2.294   7.937
 7289WAT     H222110   4.512   2.341   7.836
 7290WAT      O22111   0.293   2.078   4.034
 7290WAT     H122112   0.389   2.108   4.035
 7290WAT     H222113   0.255   2.086   4.126
 7291WAT      O22114   2.782   2.639   1.731
 7291WAT     H122115   2.790   2.568   1.801
 7291WAT     H222116   2.838   2.614   1.652
 7292WAT      O22117   1.691   9.638   7.015
 7292WAT     H122118   1.703   9.607   7.109
 7292WAT     H222119   1.708   9.736   7.010
 7293WAT      O22120   0.642   3.561   3.978
 7293WAT     H122121   0.572   3.496   3.950
 7293WAT     H222122   0.642   3.640   3.916
 7294WAT      O22123   0.521   7.785   1.592
 7294WAT     H122124   0.601   7.831   1.630
 7294WAT     H222125   0.458   7.853   1.553
 7295WAT      O22126   3.386   8.024   4.424
 7295WAT     H122127   3.323   7.956   4.385
 7295WAT     H222128   3.413   8.088   4.352
 7296WAT      O22129   1.457   5.936   3.245
 7296WAT     H122130   1.524   5.929   3.320
 7296WAT     H222131   1.374   5.887   3.271
 7297WAT      O22132   3.134   8.347   6.467
 7297WAT     H122133   3.122   8.252   6.497
 7297WAT     H222134   3.231   8.364   6.447
 7298WAT      O22135   1.262   2.099   6.921
 7298WAT     H122136   1.329   2.094   6.846
 7298WAT     H222137   1.181   2.148   6.890
 7299WAT      O22138   9.763   0.090   4.517
 7299WAT     H122139   9.788   0.176   4.474
 7299WAT     H222140   9.827   0.019   4.488
 7300WAT      O22141   9.244   0.716   7.116
 7300WAT     H122142   9.300   0.797   7.096
 7300WAT     H222143   9.155   0.745   7.152
 7301WAT      O22144   9.479   9.565   9.571
 7301WAT     H122145   9.501   9.618   9.490
 7301WAT     H222146   9.479   9.467   9.548
 7302WAT      O22147   3.204   6.823   1.760
 7302WAT     H122148   3.152   6.841   1.843
 7302WAT     H222149   3.142   6.797   1.686
 7303WAT      O22150   3.321   5.329   1.083
 7303WAT     H122151   3.252   5.260   1.060
 7303WAT     H222152   3.376   5.350   1.002
 7304WAT      O22153   4.287   0.120   5.598
 7304WAT     H122154   4.282   0.102   5.696
 7304WAT     H222155   4.196   0.136   5.561
 7305WAT      O22156   2.755   6.197   8.123
 7305WAT     H122157   2.765   6.296   8.119
 7305WAT     H222158   2.835   6.157   8.169
 7306WAT      O22159   4.997   6.747   1.999
 7306WAT     H122160   5.001   6.711   2.092
 7306WAT     H222161   4.921   6.704   1.950
 7307WAT      O22162   6.811   2.878   0.060
 7307WAT     H122163   6.741   2.949   0.070
 7307WAT     H222164   6.849   2.882  -0.033
 7308WAT      O22165   4.378   9.391   2.382
 7308WAT     H122166   4.422   9.360   2.466
 7308WAT     H222167   4.443   9.386   2.306
 7309WAT      O22168   1.504   0.563   3.041
 7309WAT     H122169   1.551   0.586   2.956
 7309WAT     H222170   1.407   0.585   3.032
 7310WAT      O22171   6.449   3.783   8.298
 7310WAT     H122172   6.403   3.859   8.344
 7310WAT     H222173   6.523   3.819   8.241
 7311WAT      O22174   7.972   7.442   8.000
 7311WAT     H122175   7.974   7.527   7.947
 7311WAT     H222176   7.895   7.446   8.065
 7312WAT      O22177   8.460   9.450   3.285
 7312WAT     H122178   8.463   9.513   3.208
 7312WAT     H222179   8.416   9.495   3.363
 7313WAT      O22180   5.361   0.606   9.842
 7313WAT     H122181   5.459   0.602   9.856
 7313WAT     H222182   5.327   0.697   9.864
 7314WAT      O22183   4.105   7.542   5.087
 7314WAT     H122184   4.130   7.486   5.167
 7314WAT     H222185   4.107   7.638   5.112
 7315WAT      O22186   4.892   2.833   1.838
 7315WAT     H122187   4.842   2.799   1.917
 7315WAT     H222188   4.985   2.796   1.839
 7316WAT      O22189   0.259   5.731   8.636
 7316WAT     H122190   0.308   5.778   8.563
 7316WAT     H222191   0.325   5.684   8.695
 7317WAT      O22192   5.127   4.202   5.459
 7317WAT     H122193   5.150   4.107   5.436
 7317WAT     H222194   5.055   4.203   5.528
 7318WAT      O22195   9.372   6.129   4.659
 7318WAT     H122196   9.444   6.090   4.716
 7318WAT     H222197   9.406   6.143   4.566
 7319WAT      O22198   8.353   3.480   4.994
 7319WAT     H122199   8.431   3.441   5.042
 7319WAT     H222200   8.290   3.408   4.969
 7320WAT      O22201   3.051   4.517   8.506
 7320WAT     H122202   3.094   4.606   8.487
 7320WAT     H222203   3.109   4.444   8.470
 7321WAT      O22204   9.059   9.671   0.895
 7321WAT     H122205   9.128   9.620   0.845
 7321WAT     H222206   9.049   9.762   0.855
 7322WAT      O22207   0.795   1.432   2.351
 7322WAT     H122208   0.702   1.421   2.385
 7322WAT     H222209   0.813   1.528   2.331
 7323WAT      O22210   9.753   0.872   0.410
 7323WAT     H122211   9.686   0.809   0.448
 7323WAT     H222212   9.778   0.841   0.318
 7324WAT      O22213   9.236   3.243   5.311
 7324WAT     H122214   9.139   3.234   5.288
 7324WAT     H222215   9.290   3.185   5.250
 7325WAT      O22216   8.237   3.909   4.603
 7325WAT     H122217   8.207   3.816   4.623
 7325WAT     H222218   8.268   3.953   4.687
 7326WAT      O22219   7.204   1.251   5.749
 7326WAT     H122220   7.183   1.244   5.651
 7326WAT     H222221   7.131   1.301   5.795
 7327WAT      O22222   0.437   1.285   7.962
 7327WAT     H122223   0.497   1.296   8.041
 7327WAT     H222224   0.388   1.370   7.945
 7328WAT      O22225   1.087   8.172   3.672
 7328WAT     H122226   1.151   8.181   3.748
 7328WAT     H222227   1.016   8.241   3.679
 7329WAT      O22228   3.767   1.042   2.385
 7329WAT     H122229   3.772   1.015   2.481
 7329WAT     H222230   3.752   0.961   2.328
 7330WAT      O22231   0.786   3.652   3.736
 7330WAT     H122232   0.754   3.741   3.702
 7330WAT     H222233   0.868   3.624   3.686
 7331WAT      O22234   3.341   4.059   6.158
 7331WAT     H122235   3.410   4.077   6.088
 7331WAT     H222236   3.377   3.992   6.223
 7332WAT      O22237   2.031   7.266   8.305
 7332WAT     H122238   2.081   7.191   8.348
 7332WAT     H222239   1.935   7.239   8.292
 7333WAT      O22240   4.874   5.169   4.278
 7333WAT     H122241   4.846   5.223   4.198
 7333WAT     H222242   4.877   5.072   4.253
 7334WAT      O22243   3.276   0.030   4.340
 7334WAT     H122244   3.303  -0.051   4.392
 7334WAT     H222245   3.290   0.112   4.395
 7335WAT      O22246   2.410  -0.004   1.247
 7335WAT     H122247   2.328   0.046   1.273
 7335WAT     H222248   2.487   0.059   1.239
 7336WAT      O22249   0.127   1.673   4.573
 7336WAT     H122250   0.149   1.764   4.537
 7336WAT     H222251   0.212   1.621   4.585
 7337WAT      O22252   4.084   4.292   8.963
 7337WAT     H122253   4.101   4.234   8.884
 7337WAT     H222254   4.145   4.372   8.960
 7338WAT      O22255   6.058   1.182   3.270
 7338WAT     H122256   6.022   1.224   3.353
 7338WAT     H222257   6.071   1.252   3.200
 7339WAT      O22258   7.515   9.659   3.104
 7339WAT     H122259   7.557   9.626   3.020
 7339WAT     H222260   7.461   9.586   3.146
 7340WAT      O22261   0.646   8.305   3.378
 7340WAT     H122262   0.658   8.369   3.453
 7340WAT     H222263   0.715   8.233   3.383
 7341WAT      O22264   5.407   8.732   6.308
 7341WAT     H122265   5.389   8.827   6.283
 7341WAT     H222266   5.322   8.679   6.302
 7342WAT      O22267   0.339   2.764   7.252
 7342WAT     H122268   0.430   2.724   7.239
 7342WAT     H222269   0.333   2.851   7.203
 7343WAT      O22270   2.587   9.147   5.554
 7343WAT     H122271   2.603   9.066   5.611
 7343WAT     H222272   2.601   9.230   5.609
 7344WAT      O22273   1.728   4.515   2.198
 7344WAT     H122274   1.671   4.458   2.258
 7344WAT     H222275   1.676   4.596   2.171
 7345WAT      O22276   1.829   3.896   2.326
 7345WAT     H122277   1.800   3.986   2.296
 7345WAT     H222278   1.801   3.883   2.422
 7346WAT      O22279   6.432   6.195   6.897
 7346WAT     H122280   6.416   6.253   6.817
 7346WAT     H222281   6.346   6.151   6.923
 7347WAT      O22282   8.015   9.264   3.801
 7347WAT     H122283   7.925   9.232   3.829
 7347WAT     H222284   8.009   9.301   3.708
 7348WAT      O22285   5.193   1.123   5.565
 7348WAT     H122286   5.105   1.084   5.536
 7348WAT     H222287   5.267   1.077   5.515
 7349WAT      O22288   7.062   7.102   4.589
 7349WAT     H122289   7.142   7.044   4.578
 7349WAT     H222290   7.018   7.083   4.677
 7350WAT      O22291   1.826   3.494   6.179
 7350WAT     H122292   1.738   3.509   6.135
 7350WAT     H222293   1.814   3.446   6.265
 7351WAT      O22294   3.794   9.677   8.218
 7351WAT     H122295   3.742   9.662   8.303
 7351WAT     H222296   3.891   9.665   8.236
 7352WAT      O22297   0.946   2.483   0.237
 7352WAT     H122298   1.010   2.477   0.160
 7352WAT     H222299   0.988   2.534   0.311
 7353WAT      O22300   6.866   7.076   3.189
 7353WAT     H122301   6.792   7.100   3.127
 7353WAT     H222302   6.953   7.107   3.151
 7354WAT      O22303   7.938   8.744   0.776
 7354WAT     H122304   7.926   8.693   0.691
 7354WAT     H222305   7.924   8.841   0.759
 7355WAT      O22306   3.444   9.156   8.966
 7355WAT     H122307   3.425   9.138   8.869
 7355WAT     H222308   3.393   9.091   9.022
 7356WAT      O22309   6.868   0.345   4.413
 7356WAT     H122310   6.887   0.278   4.341
 7356WAT     H222311   6.952   0.367   4.461
 7357WAT      O22312   4.255   1.294   2.119
 7357WAT     H122313   4.213   1.276   2.208
 7357WAT     H222314   4.297   1.385   2.119
 7358WAT      O22315   0.136   8.939   7.886
 7358WAT     H122316   0.051   8.931   7.938
 7358WAT     H222317   0.181   9.025   7.909
 7359WAT      O22318   8.401   7.803   1.016
 7359WAT     H122319   8.484   7.843   1.056
 7359WAT     H222320   8.400   7.821   0.918
 7360WAT      O22321   6.634   3.440   2.569
 7360WAT     H122322   6.587   3.487   2.495
 7360WAT     H222323   6.694   3.369   2.532
 7361WAT      O22324   9.274   6.250   9.596
 7361WAT     H122325   9.271   6.240   9.496
 7361WAT     H222326   9.181   6.249   9.633
 7362WAT      O22327   2.595   4.581   6.100
 7362WAT     H122328   2.531   4.589   6.176
 7362WAT     H222329   2.684   4.616   6.126
 7363WAT      O22330   2.116   4.122   4.204
 7363WAT     H122331   2.156   4.211   4.223
 7363WAT     H222332   2.186   4.051   4.214
 7364WAT      O22333   7.170   4.690   1.026
 7364WAT     H122334   7.071   4.703   1.027
 7364WAT     H222335   7.197   4.636   1.106
 7365WAT      O22336   3.967   2.599   0.880
 7365WAT     H122337   4.001   2.584   0.787
 7365WAT     H222338   3.977   2.696   0.904
 7366WAT      O22339   4.654   8.874   8.218
 7366WAT     H122340   4.666   8.968   8.251
 7366WAT     H222341   4.557   8.855   8.206
 7367WAT      O22342   1.314   7.828   6.938
 7367WAT     H122343   1.328   7.915   6.890
 7367WAT     H222344   1.391   7.768   6.920
 7368WAT      O22345   6.512   7.582   5.744
 7368WAT     H122346   6.544   7.551   5.833
 7368WAT     H222347   6.525   7.510   5.676
 7369WAT      O22348   8.352   9.718   8.229
 7369WAT     H122349   8.288   9.777   8.179
 7369WAT     H222350   8.336   9.728   8.327
 7370WAT      O22351   7.245   7.359   6.699
 7370WAT     H122352   7.304   7.361   6.780
 7370WAT     H222353   7.272   7.283   6.640
 7371WAT      O22354   1.298   6.199   6.539
 7371WAT     H122355   1.239   6.261   6.487
 7371WAT     H222356   1.387   6.191   6.492
 7372WAT      O22357   4.829   2.853   3.245
 7372WAT     H122358   4.916   2.834   3.199
 7372WAT     H222359   4.762   2.783   3.219
 7373WAT      O22360   9.335   1.172   2.758
 7373WAT     H122361   9.359   1.261   2.796
 7373WAT     H222362   9.259   1.183   2.694
 7374WAT      O22363   6.352   7.519   6.248
 7374WAT     H122364   6.408   7.568   6.315
 7374WAT     H222365   6.325   7.430   6.285
 7375WAT      O22366   1.868   0.473   3.605
 7375WAT     H122367   1.819   0.413   3.669
 7375WAT     H222368   1.917   0.543   3.656
 7376WAT      O22369   6.790   1.986   4.713
 7376WAT     H122370   6.757   2.015   4.624
 7376WAT     H222371   6.877   1.937   4.703
 7377WAT      O22372   7.095   4.704   8.300
 7377WAT     H122373   7.088   4.793   8.345
 7377WAT     H222374   7.150   4.642   8.356
 7378WAT      O22375   9.605   3.822   6.083
 7378WAT     H122376   9.581   3.767   6.002
 7378WAT     H222377   9.529   3.882   6.106
 7379WAT      O22378   7.445   3.235   0.958
 7379WAT     H122379   7.528   3.222   1.013
 7379WAT     H222380   7.460   3.308   0.892
 7380WAT      O22381   0.078   2.624   7.686
 7380WAT     H122382   0.172   2.630   7.721
 7380WAT     H222383   0.023   2.698   7.726
 7381WAT      O22384   3.659   3.460   1.263
 7381WAT     H122385   3.674   3.556   1.238
 7381WAT     H222386   3.725   3.402   1.215
 7382WAT      O22387   6.192   3.118   3.497
 7382WAT     H122388   6.124   3.045   3.502
 7382WAT     H222389   6.225   3.126   3.403
 7383WAT      O22390   0.393   2.807   6.736
 7383WAT     H122391   0.469   2.872   6.728
 7383WAT     H222392   0.324   2.843   6.799
 7384WAT      O22393   2.754   1.146   6.581
 7384WAT     H122394   2.761   1.236   6.537
 7384WAT     H222395   2.771   1.075   6.513
 7385WAT      O22396   9.654   1.232   3.151
 7385WAT     H122397   9.700   1.175   3.082
 7385WAT     H222398   9.680   1.201   3.242
 7386WAT      O22399   3.764   2.630   2.704
 7386WAT     H122400   3.756   2.685   2.787
 7386WAT     H222401   3.691   2.561   2.703
 7387WAT      O22402   1.659   8.904   9.095
 7387WAT     H122403   1.646   8.988   9.148
 7387WAT     H222404   1.638   8.922   8.999
 7388WAT      O22405   0.791   9.129   1.521
 7388WAT     H122406   0.740   9.115   1.605
 7388WAT     H222407   0.734   9.107   1.442
 7389WAT      O22408   6.967   2.419   1.922
 7389WAT     H122409   6.928   2.492   1.977
 7389WAT     H222410   7.036   2.369   1.976
 7390WAT      O22411   9.604   5.900   3.322
 7390WAT     H122412   9.589   5.927   3.417
 7390WAT     H222413   9.613   5.800   3.316
 7391WAT      O22414   0.764   3.754   5.723
 7391WAT     H122415   0.666   3.743   5.706
 7391WAT     H222416   0.777   3.789   5.816
 7392WAT      O22417   7.594   8.485   6.130
 7392WAT     H122418   7.523   8.466   6.063
 7392WAT     H222419   7.684   8.465   6.090
 7393WAT      O22420   4.966   7.933   9.791
 7393WAT     H122421   5.017   8.018   9.785
 7393WAT     H222422   4.893   7.932   9.723
 7394WAT      O22423   4.229   0.786   3.721
 7394WAT     H122424   4.255   0.701   3.768
 7394WAT     H222425   4.273   0.864   3.766
 7395WAT      O22426   5.081   2.640   9.081
 7395WAT     H122427   5.074   2.662   8.984
 7395WAT     H222428   4.990   2.633   9.121
 7396WAT      O22429   0.099   8.819   2.709
 7396WAT     H122430   0.155   8.788   2.785
 7396WAT     H222431   0.082   8.743   2.646
 7397WAT      O22432   5.133   7.920   1.074
 7397WAT     H122433   5.041   7.959   1.082
 7397WAT     H222434   5.197   7.975   1.127
 7398WAT      O22435   4.587   9.445   9.780
 7398WAT     H122436   4.548   9.407   9.696
 7398WAT     H222437   4.522   9.507   9.822
 7399WAT      O22438   0.433   4.210   0.155
 7399WAT     H122439   0.391   4.199   0.065
 7399WAT     H222440   0.434   4.122   0.202
 7400WAT      O22441   6.216   0.381   1.455
 7400WAT     H122442   6.242   0.380   1.551
 7400WAT     H222443   6.152   0.456   1.438
 7401WAT      O22444   2.113   0.593   6.637
 7401WAT     H122445   2.101   0.661   6.565
 7401WAT     H222446   2.074   0.628   6.722
 7402WAT      O22447   1.765   1.834   4.609
 7402WAT     H122448   1.850   1.884   4.623
 7402WAT     H222449   1.780   1.737   4.628
 7403WAT      O22450   2.196   2.143   4.531
 7403WAT     H122451   2.256   2.153   4.452
 7403WAT     H222452   2.192   2.047   4.558
 7404WAT      O22453   6.647   7.840   2.110
 7404WAT     H122454   6.739   7.819   2.075
 7404WAT     H222455   6.639   7.938   2.125
 7405WAT      O22456   0.585   4.184   2.817
 7405WAT     H122457   0.617   4.128   2.741
 7405WAT     H222458   0.653   4.183   2.890
 7406WAT      O22459   5.660   3.548   7.139
 7406WAT     H122460   5.745   3.507   7.171
 7406WAT     H222461   5.639   3.514   7.047
 7407WAT      O22462   0.880   7.492   6.706
 7407WAT     H122463   0.902   7.500   6.609
 7407WAT     H222464   0.804   7.428   6.718
 7408WAT      O22465   4.239   4.887   3.000
 7408WAT     H122466   4.166   4.901   2.933
 7408WAT     H222467   4.277   4.976   3.027
 7409WAT      O22468   4.282   5.541   2.894
 7409WAT     H122469   4.331   5.625   2.871
 7409WAT     H222470   4.338   5.462   2.868
 7410WAT      O22471   4.629   0.832   1.729
 7410WAT     H122472   4.549   0.772   1.720
 7410WAT     H222473   4.683   0.804   1.808
 7411WAT      O22474   6.859   7.212   2.106
 7411WAT     H122475   6.872   7.117   2.076
 7411WAT     H222476   6.866   7.273   2.028
 7412WAT      O22477   3.130   2.200   8.844
 7412WAT     H122478   3.064   2.247   8.903
 7412WAT     H222479   3.081   2.144   8.777
 7413WAT      O22480   4.073   8.389   9.200
 7413WAT     H122481   4.018   8.373   9.282
 7413WAT     H222482   4.133   8.468   9.215
 7414WAT      O22483   8.419   7.412   2.410
 7414WAT     H122484   8.427   7.344   2.337
 7414WAT     H222485   8.322   7.432   2.427
 7415WAT      O22486   4.069   9.220   4.294
 7415WAT     H122487   4.082   9.274   4.212
 7415WAT     H222488   3.976   9.231   4.327
 7416WAT      O22489   7.503   0.122   0.613
 7416WAT     H122490   7.452   0.121   0.526
 7416WAT     H222491   7.439   0.110   0.689
 7417WAT      O22492   7.562   0.479   6.408
 7417WAT     H122493   7.532   0.459   6.314
 7417WAT     H222494   7.602   0.397   6.448
 7418WAT      O22495   2.860   1.916   9.197
 7418WAT     H122496   2.864   1.826   9.240
 7418WAT     H222497   2.945   1.965   9.214
 7419WAT      O22498   0.571   2.554   6.524
 7419WAT     H122499   0.651   2.510   6.484
 7419WAT     H222500   0.518   2.600   6.452
 7420WAT      O22501   0.613   8.917   6.134
 7420WAT     H122502   0.688   8.870   6.088
 7420WAT     H222503   0.558   8.850   6.185
 7421WAT      O22504   2.389   7.397   0.895
 7421WAT     H122505   2.294   7.420   0.876
 7421WAT     H222506   2.409   7.305   0.860
 7422WAT      O22507   5.652   3.921   3.778
 7422WAT     H122508   5.629   3.824   3.773
 7422WAT     H222509   5.615   3.960   3.862
 7423WAT      O22510   2.621   7.234   9.159
 7423WAT     H122511   2.633   7.138   9.137
 7423WAT     H222512   2.529   7.263   9.132
 7424WAT      O22513   6.578   9.325   8.889
 7424WAT     H122514   6.641   9.402   8.883
 7424WAT     H222515   6.561   9.289   8.798
 7425WAT      O22516   6.592   5.329   5.825
 7425WAT     H122517   6.682   5.366   5.804
 7425WAT     H222518   6.562   5.269   5.751
 7426WAT      O22519   0.415   7.947   7.791
 7426WAT     H122520   0.427   8.023   7.727
 7426WAT     H222521   0.349   7.972   7.861
 7427WAT      O22522   2.546   5.973   8.602
 7427WAT     H122523   2.491   6.049   8.636
 7427WAT     H222524   2.583   5.921   8.680
 7428WAT      O22525   1.191   2.622   2.935
 7428WAT     H122526   1.274   2.583   2.975
 7428WAT     H222527   1.165   2.705   2.985
 7429WAT      O22528   0.844   3.318   6.141
 7429WAT     H122529   0.747   3.338   6.127
 7429WAT     H222530   0.871   3.244   6.080
 7430WAT      O22531   0.930   8.176   7.523
 7430WAT     H122532   0.983   8.224   7.593
 7430WAT     H222533   0.979   8.094   7.494
 7431WAT      O22534   6.342   7.519   2.647
 7431WAT     H122535   6.288   7.503   2.565
 7431WAT     H222536   6.345   7.617   2.667
 7432WAT      O22537   4.744   1.309   8.431
 7432WAT     H122538   4.649   1.278   8.437
 7432WAT     H222539   4.800   1.235   8.393
 7433WAT      O22540   6.466   9.638   1.513
 7433WAT     H122541   6.536   9.593   1.568
 7433WAT     H222542   6.509   9.676   1.431
 7434WAT      O22543   2.448   1.449   5.261
 7434WAT     H122544   2.351   1.428   5.249
 7434WAT     H222545   2.493   1.375   5.311
 7435WAT      O22546   0.140   8.979   8.210
 7435WAT     H122547   0.061   8.949   8.157
 7435WAT     H222548   0.130   9.076   8.232
 7436WAT      O22549   3.391   4.453   7.119
 7436WAT     H122550   3.345   4.514   7.054
 7436WAT     H222551   3.366   4.479   7.212
 7437WAT      O22552   0.259   6.240   8.461
 7437WAT     H122553   0.251   6.173   8.535
 7437WAT     H222554   0.344   6.292   8.472
 7438WAT      O22555   5.738   7.795   9.748
 7438WAT     H122556   5.682   7.776   9.667
 7438WAT     H222557   5.692   7.759   9.829
 7439WAT      O22558   6.720   4.394   7.139
 7439WAT     H122559   6.762   4.340   7.211
 7439WAT     H222560   6.627   4.361   7.122
 7440WAT      O22561   2.275   6.866   3.238
 7440WAT     H122562   2.326   6.825   3.162
 7440WAT     H222563   2.335   6.873   3.318
 7441WAT      O22564   7.922   6.376   7.869
 7441WAT     H122565   7.884   6.425   7.791
 7441WAT     H222566   7.850   6.363   7.938
 7442WAT      O22567   1.587   8.643   2.858
 7442WAT     H122568   1.561   8.662   2.953
 7442WAT     H222569   1.504   8.638   2.802
 7443WAT      O22570   8.129   7.423   6.095
 7443WAT     H122571   8.100   7.477   6.175
 7443WAT     H222572   8.157   7.332   6.126
 7444WAT      O22573   3.827   1.288   6.992
 7444WAT     H122574   3.873   1.268   6.905
 7444WAT     H222575   3.833   1.208   7.051
 7445WAT      O22576   5.420   2.323   5.527
 7445WAT     H122577   5.460   2.243   5.484
 7445WAT     H222578   5.456   2.332   5.620
 7446WAT      O22579   4.319   9.512   9.417
 7446WAT     H122580   4.304   9.575   9.341
 7446WAT     H222581   4.250   9.528   9.488
 7447WAT      O22582   4.392   5.220   2.576
 7447WAT     H122583   4.313   5.182   2.528
 7447WAT     H222584   4.445   5.276   2.513
 7448WAT      O22585   5.343   2.563   1.864
 7448WAT     H122586   5.415   2.629   1.887
 7448WAT     H222587   5.367   2.518   1.778
 7449WAT      O22588   1.363   7.648   9.843
 7449WAT     H122589   1.309   7.722   9.881
 7449WAT     H222590   1.322   7.617   9.757
 7450WAT      O22591   6.775   7.005   7.195
 7450WAT     H122592   6.737   7.065   7.265
 7450WAT     H222593   6.874   7.020   7.188
 7451WAT      O22594   0.708   3.759   2.907
 7451WAT     H122595   0.611   3.741   2.896
 7451WAT     H222596   0.722   3.828   2.978
 7452WAT      O22597   9.330   3.682   4.505
 7452WAT     H122598   9.405   3.646   4.561
 7452WAT     H222599   9.326   3.781   4.514
 7453WAT      O22600   2.028   9.362   3.631
 7453WAT     H122601   2.090   9.288   3.656
 7453WAT     H222602   2.081   9.446   3.614
 7454WAT      O22603   0.305   8.358   4.683
 7454WAT     H122604   0.271   8.386   4.773
 7454WAT     H222605   0.395   8.399   4.668
 7455WAT      O22606   3.522   6.794   0.199
 7455WAT     H122607   3.433   6.748   0.202
 7455WAT     H222608   3.578   6.763   0.276
 7456WAT      O22609   5.573   7.379   8.565
 7456WAT     H122610   5.601   7.434   8.486
 7456WAT     H222611   5.569   7.283   8.539
 7457WAT      O22612   0.261   1.913   0.165
 7457WAT     H122613   0.294   1.985   0.226
 7457WAT     H222614   0.161   1.910   0.168
 7458WAT      O22615   3.670   4.905   9.356
 7458WAT     H122616   3.660   4.834   9.286
 7458WAT     H222617   3.639   4.869   9.444
 7459WAT      O22618   8.561   6.092   9.751
 7459WAT     H122619   8.574   6.109   9.849
 7459WAT     H222620   8.505   6.165   9.712
 7460WAT      O22621   6.516   2.574   3.390
 7460WAT     H122622   6.558   2.663   3.369
 7460WAT     H222623   6.538   2.549   3.484
 7461WAT      O22624   5.911   8.313   1.371
 7461WAT     H122625   5.969   8.265   1.437
 7461WAT     H222626   5.816   8.313   1.404
 7462WAT      O22627   0.410   9.576   4.226
 7462WAT     H122628   0.487   9.637   4.206
 7462WAT     H222629   0.410   9.501   4.160
 7463WAT      O22630   5.216   3.100   0.056
 7463WAT     H122631   5.233   3.136  -0.036
 7463WAT     H222632   5.130   3.137   0.090
 7464WAT      O22633   3.149   1.287   8.446
 7464WAT     H122634   3.153   1.368   8.505
 7464WAT     H222635   3.183   1.208   8.495
 7465WAT      O22636   0.179   8.542   0.178
 7465WAT     H122637   0.145   8.528   0.086
 7465WAT     H222638   0.112   8.596   0.231
 7466WAT      O22639   0.817   3.031   2.832
 7466WAT     H122640   0.910   2.996   2.822
 7466WAT     H222641   0.772   2.983   2.907
 7467WAT      O22642   1.445   0.827   2.327
 7467WAT     H122643   1.361   0.878   2.345
 7467WAT     H222644   1.459   0.761   2.401
 7468WAT      O22645   8.189   2.260   7.729
 7468WAT     H122646   8.204   2.236   7.825
 7468WAT     H222647   8.274   2.294   7.689
 7469WAT      O22648   2.581   5.863   9.002
 7469WAT     H122649   2.490   5.827   8.980
 7469WAT     H222650   2.645   5.838   8.930
 7470WAT      O22651   6.626   9.036   0.203
 7470WAT     H122652   6.650   9.024   0.299
 7470WAT     H222653   6.677   8.971   0.147
 7471WAT      O22654   8.712   2.065   0.455
 7471WAT     H122655   8.748   1.975   0.431
 7471WAT     H222656   8.788   2.125   0.480
 7472WAT      O22657   1.277   9.558   6.549
 7472WAT     H122658   1.361   9.517   6.584
 7472WAT     H222659   1.253   9.637   6.605
 7473WAT      O22660   1.737   7.547   4.940
 7473WAT     H122661   1.699   7.587   5.023
 7473WAT     H222662   1.685   7.579   4.861
 7474WAT      O22663   2.330   4.900   6.701
 7474WAT     H122664   2.272   4.826   6.667
 7474WAT     H222665   2.381   4.867   6.781
 7475WAT      O22666   2.456   9.557   2.937
 7475WAT     H122667   2.521   9.555   3.013
 7475WAT     H222668   2.483   9.488   2.869
 7476WAT      O22669   4.086   2.292   8.285
 7476WAT     H122670   4.167   2.343   8.312
 7476WAT     H222671   4.029   2.275   8.366
 7477WAT      O22672   8.859   7.018   2.260
 7477WAT     H122673   8.867   6.989   2.165
 7477WAT     H222674   8.872   7.117   2.266
 7478WAT      O22675   1.831   2.914   8.968
 7478WAT     H122676   1.911   2.964   8.936
 7478WAT     H222677   1.750   2.971   8.958
 7479WAT      O22678   2.675   2.365   1.396
 7479WAT     H122679   2.773   2.381   1.383
 7479WAT     H222680   2.659   2.322   1.484
 7480WAT      O22681   3.862   0.633   2.114
 7480WAT     H122682   3.886   0.582   2.197
 7480WAT     H222683   3.903   0.724   2.118
 7481WAT      O22684   7.324   0.194   8.734
 7481WAT     H122685   7.228   0.200   8.761
 7481WAT     H222686   7.331   0.197   8.634
 7482WAT      O22687   5.201   2.588   1.110
 7482WAT     H122688   5.266   2.647   1.157
 7482WAT     H222689   5.162   2.637   1.031
 7483WAT      O22690   2.075   5.129   1.042
 7483WAT     H122691   2.102   5.055   1.102
 7483WAT     H222692   2.138   5.133   0.964
 7484WAT      O22693   2.901   4.195   9.648
 7484WAT     H122694   2.838   4.153   9.712
 7484WAT     H222695   2.850   4.235   9.572
 7485WAT      O22696   8.490   3.290   1.802
 7485WAT     H122697   8.573   3.237   1.782
 7485WAT     H222698   8.411   3.246   1.759
 7486WAT      O22699   9.473   9.350   5.543
 7486WAT     H122700   9.527   9.311   5.618
 7486WAT     H222701   9.449   9.278   5.478
 7487WAT      O22702   5.331   2.677   3.365
 7487WAT     H122703   5.273   2.657   3.444
 7487WAT     H222704   5.415   2.721   3.395
 7488WAT      O22705   0.650   9.768   6.377
 7488WAT     H122706   0.562   9.808   6.351
 7488WAT     H222707   0.646   9.669   6.366
 7489WAT      O22708   3.237   2.274   0.201
 7489WAT     H122709   3.160   2.248   0.259
 7489WAT     H222710   3.294   2.340   0.250
 7490WAT      O22711   5.820   2.479   6.743
 7490WAT     H122712   5.758   2.495   6.819
 7490WAT     H222713   5.901   2.537   6.753
 7491WAT      O22714   1.644   9.651   5.738
 7491WAT     H122715   1.663   9.718   5.666
 7491WAT     H222716   1.699   9.569   5.722
 7492WAT      O22717   9.188   0.559   2.559
 7492WAT     H122718   9.112   0.581   2.498
 7492WAT     H222719   9.235   0.643   2.586
 7493WAT      O22720   6.945   1.702   1.206
 7493WAT     H122721   6.945   1.681   1.303
 7493WAT     H222722   6.984   1.625   1.155
 7494WAT      O22723   6.886   5.578   8.395
 7494WAT     H122724   6.921   5.488   8.370
 7494WAT     H222725   6.858   5.577   8.491
 7495WAT      O22726   1.744   2.619   1.370
 7495WAT     H122727   1.735   2.631   1.469
 7495WAT     H222728   1.840   2.627   1.344
 7496WAT      O22729   5.594   4.173   7.070
 7496WAT     H122730   5.547   4.196   7.155
 7496WAT     H222731   5.597   4.074   7.058
 7497WAT      O22732   4.466   6.156   1.084
 7497WAT     H122733   4.482   6.134   0.988
 7497WAT     H222734   4.523   6.098   1.142
 7498WAT      O22735   5.303   5.345   0.922
 7498WAT     H122736   5.359   5.322   0.842
 7498WAT     H222737   5.362   5.352   1.003
 7499WAT      O22738   8.129   4.072   3.410
 7499WAT     H122739   8.176   3.984   3.400
 7499WAT     H222740   8.113   4.090   3.507
 7500WAT      O22741   4.681   6.861   7.506
 7500WAT     H122742   4.606   6.926   7.516
 7500WAT     H222743   4.723   6.872   7.416
 7501WAT      O22744   6.012   9.087   8.040
 7501WAT     H122745   5.918   9.108   8.011
 7501WAT     H222746   6.024   8.988   8.044
 7502WAT      O22747   6.796   9.056   3.641
 7502WAT     H122748   6.848   9.121   3.585
 7502WAT     H222749   6.848   8.972   3.651
 7503WAT      O22750   3.134   0.194   7.530
 7503WAT     H122751   3.063   0.263   7.522
 7503WAT     H222752   3.177   0.200   7.620
 7504WAT      O22753   7.536   9.614   9.406
 7504WAT     H122754   7.531   9.598   9.505
 7504WAT     H222755   7.618   9.571   9.369
 7505WAT      O22756   0.589   9.724   8.483
 7505WAT     H122757   0.619   9.719   8.579
 7505WAT     H222758   0.636   9.653   8.431
 7506WAT      O22759   8.913   8.379   2.615
 7506WAT     H122760   8.927   8.280   2.626
 7506WAT     H222761   8.844   8.410   2.680
 7507WAT      O22762   1.579   4.871   3.335
 7507WAT     H122763   1.659   4.819   3.305
 7507WAT     H222764   1.535   4.914   3.256
 7508WAT      O22765   3.712   6.049   2.467
 7508WAT     H122766   3.755   6.114   2.530
 7508WAT     H222767   3.664   5.979   2.520
 7509WAT      O22768   2.141   5.404   8.066
 7509WAT     H122769   2.185   5.316   8.047
 7509WAT     H222770   2.190   5.450   8.140
 7510WAT      O22771   4.104   5.669   2.662
 7510WAT     H122772   4.097   5.595   2.730
 7510WAT     H222773   4.125   5.755   2.708
 7511WAT      O22774   2.522   4.249   9.617
 7511WAT     H122775   2.508   4.180   9.688
 7511WAT     H222776   2.536   4.339   9.660
 7512WAT      O22777   4.607   2.877   7.955
 7512WAT     H122778   4.621   2.790   8.003
 7512WAT     H222779   4.572   2.858   7.863
 7513WAT      O22780   7.115   2.623   1.440
 7513WAT     H122781   7.045   2.582   1.383
 7513WAT     H222782   7.072   2.685   1.506
 7514WAT      O22783   4.149   7.270   4.364
 7514WAT     H122784   4.187   7.333   4.297
 7514WAT     H222785   4.213   7.260   4.441
 7515WAT      O22786   3.364   6.020   4.257
 7515WAT     H122787   3.418   6.101   4.231
 7515WAT     H222788   3.325   6.034   4.348
 7516WAT      O22789   3.384   2.939   5.660
 7516WAT     H122790   3.445   2.927   5.738
 7516WAT     H222791   3.395   3.031   5.622
 7517WAT      O22792   8.508   7.704   8.181
 7517WAT     H122793   8.426   7.758   8.201
 7517WAT     H222794   8.481   7.614   8.146
 7518WAT      O22795   9.405   5.963   8.980
 7518WAT     H122796   9.383   5.866   8.967
 7518WAT     H222797   9.430   5.979   9.075
 7519WAT      O22798   4.392   1.854   7.402
 7519WAT     H122799   4.486   1.850   7.437
 7519WAT     H222800   4.377   1.778   7.338
 7520WAT      O22801   2.726   8.024   9.353
 7520WAT     H122802   2.664   7.996   9.427
 7520WAT     H222803   2.788   8.095   9.386
 7521WAT      O22804   3.826   8.843   4.209
 7521WAT     H122805   3.913   8.890   4.218
 7521WAT     H222806   3.825   8.791   4.124
 7522WAT      O22807   9.541   9.534   1.015
 7522WAT     H122808   9.609   9.511   1.086
 7522WAT     H222809   9.471   9.462   1.012
 7523WAT      O22810   7.978   1.957   2.170
 7523WAT     H122811   7.952   2.046   2.134
 7523WAT     H222812   8.051   1.918   2.114
 7524WAT      O22813   1.162   5.142   4.059
 7524WAT     H122814   1.229   5.071   4.081
 7524WAT     H222815   1.078   5.099   4.024
 7525WAT      O22816   0.473   9.427   1.403
 7525WAT     H122817   0.570   9.438   1.384
 7525WAT     H222818   0.455   9.333   1.434
 7526WAT      O22819   7.184   4.009   4.734
 7526WAT     H122820   7.216   4.097   4.770
 7526WAT     H222821   7.262   3.947   4.724
 7527WAT      O22822   7.737   1.940   5.151
 7527WAT     H122823   7.820   1.887   5.164
 7527WAT     H222824   7.678   1.895   5.084
 7528WAT      O22825   6.330   0.767   8.174
 7528WAT     H122826   6.286   0.812   8.251
 7528WAT     H222827   6.425   0.744   8.198
 7529WAT      O22828   4.263   0.618   8.518
 7529WAT     H122829   4.293   0.676   8.594
 7529WAT     H222830   4.180   0.569   8.544
 7530WAT      O22831   8.433   7.871   9.216
 7530WAT     H122832   8.490   7.810   9.161
 7530WAT     H222833   8.369   7.920   9.156
 7531WAT      O22834   2.200   8.786   7.213
 7531WAT     H122835   2.150   8.700   7.203
 7531WAT     H222836   2.186   8.822   7.305
 7532WAT      O22837   1.807   6.653   4.856
 7532WAT     H122838   1.881   6.676   4.792
 7532WAT     H222839   1.816   6.709   4.938
 7533WAT      O22840   0.296   0.526   0.241
 7533WAT     H122841   0.349   0.493   0.320
 7533WAT     H222842   0.354   0.525   0.160
 7534WAT      O22843   3.650   8.910   5.602
 7534WAT     H122844   3.735   8.947   5.639
 7534WAT     H222845   3.671   8.830   5.545
 7535WAT      O22846   4.761   1.683   1.861
 7535WAT     H122847   4.829   1.641   1.800
 7535WAT     H222848   4.784   1.780   1.873
 7536WAT      O22849   3.811   4.068   8.876
 7536WAT     H122850   3.721   4.027   8.858
 7536WAT     H222851   3.881   4.015   8.827
 7537WAT      O22852   5.198   2.348   4.521
 7537WAT     H122853   5.234   2.384   4.608
 7537WAT     H222854   5.110   2.304   4.537
 7538WAT      O22855   8.231   1.581   1.221
 7538WAT     H122856   8.326   1.553   1.210
 7538WAT     H222857   8.176   1.543   1.147
 7539WAT      O22858   5.687   6.777   8.287
 7539WAT     H122859   5.717   6.760   8.381
 7539WAT     H222860   5.766   6.784   8.227
 7540WAT      O22861   7.452   8.665   7.537
 7540WAT     H122862   7.426   8.679   7.441
 7540WAT     H222863   7.459   8.567   7.555
 7541WAT      O22864   6.896   0.662   3.587
 7541WAT     H122865   6.922   0.634   3.495
 7541WAT     H222866   6.958   0.733   3.619
 7542WAT      O22867   6.210   7.330   1.129
 7542WAT     H122868   6.214   7.427   1.153
 7542WAT     H222869   6.247   7.317   1.038
 7543WAT      O22870   8.591   0.250   9.616
 7543WAT     H122871   8.493   0.256   9.634
 7543WAT     H222872   8.609   0.177   9.551
 7544WAT      O22873   2.705   0.190   8.149
 7544WAT     H122874   2.783   0.249   8.167
 7544WAT     H222875   2.731   0.095   8.163
 7545WAT      O22876   9.335   8.707   2.636
 7545WAT     H122877   9.280   8.791   2.639
 7545WAT     H222878   9.275   8.630   2.615
 7546WAT      O22879   0.108   7.351   5.290
 7546WAT     H122880   0.019   7.309   5.307
 7546WAT     H222881   0.110   7.442   5.331
 7547WAT      O22882   8.309   6.214   8.259
 7547WAT     H122883   8.314   6.115   8.272
 7547WAT     H222884   8.266   6.234   8.171
 7548WAT      O22885   8.305   5.035   8.183
 7548WAT     H122886   8.265   4.964   8.241
 7548WAT     H222887   8.296   5.124   8.228
 7549WAT      O22888   1.769   6.371   6.183
 7549WAT     H122889   1.750   6.467   6.203
 7549WAT     H222890   1.839   6.365   6.112
 7550WAT      O22891   8.221   8.389   0.268
 7550WAT     H122892   8.250   8.410   0.175
 7550WAT     H222893   8.214   8.290   0.280
 7551WAT      O22894   5.585   2.053   9.807
 7551WAT     H122895   5.666   2.023   9.758
 7551WAT     H222896   5.538   1.974   9.846
 7552WAT      O22897   5.834   1.780   1.364
 7552WAT     H122898   5.737   1.761   1.348
 7552WAT     H222899   5.859   1.865   1.317
 7553WAT      O22900   8.425   8.518   3.726
 7553WAT     H122901   8.518   8.527   3.690
 7553WAT     H222902   8.428   8.491   3.822
 7554WAT      O22903   5.951   4.149   6.683
 7554WAT     H122904   5.940   4.188   6.775
 7554WAT     H222905   5.869   4.099   6.658
 7555WAT      O22906   1.391   2.361   8.022
 7555WAT     H122907   1.426   2.276   8.059
 7555WAT     H222908   1.307   2.343   7.971
 7556WAT      O22909   7.511   9.408   5.704
 7556WAT     H122910   7.517   9.474   5.629
 7556WAT     H222911   7.481   9.455   5.787
 7557WAT      O22912   9.409   7.550   4.392
 7557WAT     H122913   9.354   7.584   4.468
 7557WAT     H222914   9.349   7.511   4.322
 7558WAT      O22915   7.465   7.861   1.508
 7558WAT     H122916   7.460   7.898   1.601
 7558WAT     H222917   7.394   7.792   1.497
 7559WAT      O22918   3.332   8.033   1.973
 7559WAT     H122919   3.334   8.022   1.873
 7559WAT     H222920   3.301   7.948   2.015
 7560WAT      O22921   0.388   8.171   7.602
 7560WAT     H122922   0.301   8.217   7.622
 7560WAT     H222923   0.463   8.237   7.612
 7561WAT      O22924   9.362   2.408   0.247
 7561WAT     H122925   9.284   2.366   0.293
 7561WAT     H222926   9.447   2.376   0.291
 7562WAT      O22927   4.723   6.666   8.335
 7562WAT     H122928   4.658   6.617   8.392
 7562WAT     H222929   4.742   6.613   8.253
 7563WAT      O22930   2.056   7.072   5.103
 7563WAT     H122931   2.022   7.123   5.024
 7563WAT     H222932   2.127   7.126   5.149
 7564WAT      O22933   6.324   0.289   6.970
 7564WAT     H122934   6.314   0.362   7.038
 7564WAT     H222935   6.314   0.327   6.878
 7565WAT      O22936   8.793   4.515   2.245
 7565WAT     H122937   8.792   4.599   2.192
 7565WAT     H222938   8.886   4.498   2.280
 7566WAT      O22939   3.707   2.926   7.697
 7566WAT     H122940   3.792   2.965   7.732
 7566WAT     H222941   3.635   2.936   7.766
 7567WAT      O22942   6.871   1.465   8.240
 7567WAT     H122943   6.937   1.390   8.246
 7567WAT     H222944   6.799   1.452   8.308
 7568WAT      O22945   0.723   8.523   9.324
 7568WAT     H122946   0.646   8.464   9.350
 7568WAT     H222947   0.799   8.466   9.292
 7569WAT      O22948   5.983   8.521   3.220
 7569WAT     H122949   5.935   8.559   3.141
 7569WAT     H222950   6.064   8.576   3.239
 7570WAT      O22951   8.790   5.709   4.530
 7570WAT     H122952   8.752   5.735   4.619
 7570WAT     H222953   8.860   5.639   4.544
 7571WAT      O22954   4.011   1.302   1.993
 7571WAT     H122955   4.098   1.286   2.041
 7571WAT     H222956   3.971   1.388   2.024
 7572WAT      O22957   5.707   3.710   0.245
 7572WAT     H122958   5.710   3.752   0.336
 7572WAT     H222959   5.777   3.639   0.238
 7573WAT      O22960   4.515   7.058   9.703
 7573WAT     H122961   4.554   7.027   9.789
 7573WAT     H222962   4.574   7.127   9.663
 7574WAT      O22963   7.628   0.953   2.686
 7574WAT     H122964   7.722   0.933   2.714
 7574WAT     H222965   7.568   0.948   2.766
 7575WAT      O22966   0.112   6.832   7.638
 7575WAT     H122967   0.135   6.893   7.715
 7575WAT     H222968   0.083   6.887   7.560
 7576WAT      O22969   0.921   5.293   4.118
 7576WAT     H122970   0.853   5.267   4.050
 7576WAT     H222971   0.998   5.229   4.114
 7577WAT      O22972   7.595   0.750   2.493
 7577WAT     H122973   7.521   0.756   2.427
 7577WAT     H222974   7.601   0.836   2.545
 7578WAT      O22975   2.104   3.286   4.647
 7578WAT     H122976   2.034   3.357   4.653
 7578WAT     H222977   2.081   3.211   4.709
 7579WAT      O22978   7.965   0.962   0.043
 7579WAT     H122979   7.981   0.877  -0.007
 7579WAT     H222980   7.914   0.942   0.126
 7580WAT      O22981   7.528   2.049   1.898
 7580WAT     H122982   7.494   2.119   1.836
 7580WAT     H222983   7.548   2.091   1.987
 7581WAT      O22984   3.655   8.404   6.514
 7581WAT     H122985   3.741   8.406   6.464
 7581WAT     H222986   3.620   8.311   6.517
 7582WAT      O22987   6.686   6.241   3.485
 7582WAT     H122988   6.594   6.205   3.468
 7582WAT     H222989   6.745   6.217   3.408
 7583WAT      O22990   0.935   9.572   0.318
 7583WAT     H122991   0.957   9.663   0.354
 7583WAT     H222992   0.927   9.507   0.395
 7584WAT      O22993   2.267   1.531   6.168
 7584WAT     H122994   2.364   1.511   6.155
 7584WAT     H222995   2.214   1.447   6.157
 7585WAT      O22996   4.341   8.596   0.581
 7585WAT     H122997   4.419   8.605   0.520
 7585WAT     H222998   4.306   8.503   0.578
 7586WAT      O22999   6.401   4.806   5.064
 7586WAT     H123000   6.466   4.882   5.072
 7586WAT     H223001   6.310   4.842   5.045
 7587WAT      O23002   2.851   6.891   3.889
 7587WAT     H123003   2.836   6.881   3.987
 7587WAT     H223004   2.866   6.988   3.867
 7588WAT      O23005   5.117   5.815   4.605
 7588WAT     H123006   5.128   5.870   4.522
 7588WAT     H223007   5.112   5.876   4.685
 7589WAT      O23008   3.561   8.174   3.185
 7589WAT     H123009   3.601   8.084   3.201
 7589WAT     H223010   3.462   8.163   3.169
 7590WAT      O23011   7.723   5.384   5.728
 7590WAT     H123012   7.638   5.427   5.698
 7590WAT     H223013   7.767   5.339   5.649
 7591WAT      O23014   8.152   7.171   6.163
 7591WAT     H123015   8.158   7.157   6.064
 7591WAT     H223016   8.126   7.084   6.206
 7592WAT      O23017   3.063   6.683   6.646
 7592WAT     H123018   3.138   6.725   6.594
 7592WAT     H223019   3.043   6.593   6.608
 7593WAT      O23020   3.041   4.822   2.288
 7593WAT     H123021   3.124   4.774   2.318
 7593WAT     H223022   2.997   4.770   2.215
 7594WAT      O23023   2.137   9.565   0.959
 7594WAT     H123024   2.200   9.629   0.914
 7594WAT     H223025   2.187   9.484   0.989
 7595WAT      O23026   9.111   8.140   6.426
 7595WAT     H123027   9.052   8.190   6.363
 7595WAT     H223028   9.160   8.068   6.377
 7596WAT      O23029   8.685   9.255   2.212
 7596WAT     H123030   8.677   9.159   2.238
 7596WAT     H223031   8.780   9.284   2.219
 7597WAT      O23032   5.379   9.114   0.020
 7597WAT     H123033   5.367   9.206   0.058
 7597WAT     H223034   5.476   9.093   0.014
 7598WAT      O23035   8.143   9.700   2.320
 7598WAT     H123036   8.195   9.639   2.379
 7598WAT     H223037   8.046   9.678   2.325
 7599WAT      O23038   8.086   4.096   9.376
 7599WAT     H123039   8.157   4.072   9.310
 7599WAT     H223040   8.097   4.041   9.459
 7600WAT      O23041   8.410   2.580   7.902
 7600WAT     H123042   8.415   2.582   8.002
 7600WAT     H223043   8.315   2.588   7.873
 7601WAT      O23044   3.337   0.311   5.620
 7601WAT     H123045   3.324   0.235   5.684
 7601WAT     H223046   3.426   0.303   5.576
 7602WAT      O23047   3.520   6.469   8.360
 7602WAT     H123048   3.500   6.475   8.458
 7602WAT     H223049   3.462   6.535   8.311
 7603WAT      O23050   6.639   8.607   1.252
 7603WAT     H123051   6.696   8.665   1.194
 7603WAT     H223052   6.558   8.658   1.280
 7604WAT      O23053   0.528   3.155   5.544
 7604WAT     H123054   0.597   3.205   5.493
 7604WAT     H223055   0.442   3.154   5.493
 7605WAT      O23056   5.433   2.562   2.538
 7605WAT     H123057   5.358   2.514   2.492
 7605WAT     H223058   5.472   2.630   2.477
 7606WAT      O23059   4.744   7.294   0.847
 7606WAT     H123060   4.719   7.227   0.916
 7606WAT     H223061   4.813   7.357   0.883
 7607WAT      O23062   1.657   6.256   2.527
 7607WAT     H123063   1.706   6.268   2.440
 7607WAT     H223064   1.606   6.340   2.548
 7608WAT      O23065   8.212   4.941   4.002
 7608WAT     H123066   8.160   4.968   4.083
 7608WAT     H223067   8.203   4.842   3.988
 7609WAT      O23068   5.834   1.903   7.008
 7609WAT     H123069   5.909   1.924   6.947
 7609WAT     H223070   5.827   1.804   7.020
 7610WAT      O23071   8.752   3.144   9.781
 7610WAT     H123072   8.828   3.195   9.741
 7610WAT     H223073   8.666   3.190   9.760
 7611WAT      O23074   1.300   0.906   8.935
 7611WAT     H123075   1.391   0.946   8.919
 7611WAT     H223076   1.234   0.948   8.874
 7612WAT      O23077   0.202   7.500   7.682
 7612WAT     H123078   0.233   7.492   7.776
 7612WAT     H223079   0.230   7.588   7.645
 7613WAT      O23080   5.963   5.361   7.691
 7613WAT     H123081   5.871   5.379   7.725
 7613WAT     H223082   5.962   5.279   7.633
 7614WAT      O23083   5.257   3.108   9.657
 7614WAT     H123084   5.213   3.020   9.636
 7614WAT     H223085   5.232   3.175   9.587
 7615WAT      O23086   1.287   1.626   9.429
 7615WAT     H123087   1.229   1.696   9.471
 7615WAT     H223088   1.230   1.566   9.372
 7616WAT      O23089   4.627   2.144   6.929
 7616WAT     H123090   4.631   2.044   6.936
 7616WAT     H223091   4.592   2.169   6.838
 7617WAT      O23092   1.238   1.346   0.670
 7617WAT     H123093   1.247   1.247   0.668
 7617WAT     H223094   1.187   1.377   0.590
 7618WAT      O23095   9.257   0.271   7.243
 7618WAT     H123096   9.158   0.276   7.241
 7618WAT     H223097   9.295   0.339   7.180
 7619WAT      O23098   9.785   8.968   4.961
 7619WAT     H123099   9.790   9.068   4.968
 7619WAT     H223100   9.796   8.928   5.051
 7620WAT      O23101   7.422   8.692   6.893
 7620WAT     H123102   7.355   8.618   6.889
 7620WAT     H223103   7.434   8.721   6.988
 7621WAT      O23104   9.798   5.135   9.108
 7621WAT     H123105   9.867   5.114   9.178
 7621WAT     H223106   9.750   5.051   9.083
 7622WAT      O23107   6.035   5.168   4.842
 7622WAT     H123108   6.101   5.233   4.880
 7622WAT     H223109   5.952   5.217   4.815
 7623WAT      O23110   7.280   7.666   0.667
 7623WAT     H123111   7.330   7.693   0.584
 7623WAT     H223112   7.209   7.600   0.644
 7624WAT      O23113   9.731   2.006   9.497
 7624WAT     H123114   9.652   1.979   9.552
 7624WAT     H223115   9.720   1.972   9.403
 7625WAT      O23116   1.682   2.958   9.245
 7625WAT     H123117   1.684   2.859   9.257
 7625WAT     H223118   1.668   2.980   9.148
 7626WAT      O23119   8.453   8.936   0.973
 7626WAT     H123120   8.386   8.900   0.908
 7626WAT     H223121   8.524   8.985   0.923
 7627WAT      O23122   0.892   5.341   4.955
 7627WAT     H123123   0.822   5.412   4.968
 7627WAT     H223124   0.905   5.324   4.857
 7628WAT      O23125   7.914   3.523   4.589
 7628WAT     H123126   7.904   3.426   4.567
 7628WAT     H223127   7.871   3.579   4.518
 7629WAT      O23128   1.211   6.214   7.381
 7629WAT     H123129   1.192   6.309   7.356
 7629WAT     H223130   1.210   6.206   7.481
 7630WAT      O23131   4.642   7.539   4.093
 7630WAT     H123132   4.729   7.556   4.047
 7630WAT     H223133   4.619   7.618   4.151
 7631WAT      O23134   3.585   7.689   0.504
 7631WAT     H123135   3.637   7.649   0.580
 7631WAT     H223136   3.599   7.633   0.422
 7632WAT      O23137   9.036   5.450   7.837
 7632WAT     H123138   9.028   5.369   7.895
 7632WAT     H223139   8.981   5.437   7.754
 7633WAT      O23140   4.266   7.775   5.697
 7633WAT     H123141   4.204   7.841   5.742
 7633WAT     H223142   4.217   7.689   5.682
 7634WAT      O23143   7.288   7.046   7.336
 7634WAT     H123144   7.328   7.058   7.427
 7634WAT     H223145   7.361   7.041   7.269
 7635WAT      O23146   9.780   9.059   9.279
 7635WAT     H123147   9.783   9.158   9.265
 7635WAT     H223148   9.866   9.029   9.320
 7636WAT      O23149   5.754   1.051   0.219
 7636WAT     H123150   5.816   0.973   0.213
 7636WAT     H223151   5.660   1.018   0.231
 7637WAT      O23152   4.604   7.399   2.027
 7637WAT     H123153   4.597   7.304   2.057
 7637WAT     H223154   4.530   7.419   1.962
 7638WAT      O23155   4.185   5.653   2.399
 7638WAT     H123156   4.160   5.637   2.494
 7638WAT     H223157   4.158   5.574   2.344
 7639WAT      O23158   5.414   4.370   1.469
 7639WAT     H123159   5.459   4.365   1.558
 7639WAT     H223160   5.388   4.465   1.451
 7640WAT      O23161   8.571   3.506   9.595
 7640WAT     H123162   8.493   3.541   9.647
 7640WAT     H223163   8.593   3.414   9.627
 7641WAT      O23164   4.001   2.103   5.260
 7641WAT     H123165   3.937   2.060   5.323
 7641WAT     H223166   4.036   2.188   5.299
 7642WAT      O23167   1.006   4.716   6.915
 7642WAT     H123168   1.069   4.682   6.985
 7642WAT     H223169   0.914   4.681   6.932
 7643WAT      O23170   6.982   6.231   5.141
 7643WAT     H123171   6.979   6.132   5.154
 7643WAT     H223172   7.000   6.251   5.044
 7644WAT      O23173   2.861   6.746   7.104
 7644WAT     H123174   2.876   6.671   7.039
 7644WAT     H223175   2.849   6.707   7.196
 7645WAT      O23176   3.785   5.792   2.249
 7645WAT     H123177   3.749   5.774   2.341
 7645WAT     H223178   3.799   5.890   2.237
 7646WAT      O23179   3.299   0.478   6.094
 7646WAT     H123180   3.396   0.471   6.071
 7646WAT     H223181   3.280   0.421   6.174
 7647WAT      O23182   8.838   9.703   0.607
 7647WAT     H123183   8.815   9.628   0.670
 7647WAT     H223184   8.787   9.692   0.522
 7648WAT      O23185   1.282   4.760   4.726
 7648WAT     H123186   1.277   4.702   4.807
 7648WAT     H223187   1.310   4.852   4.752
 7649WAT      O23188   1.670   0.708   5.776
 7649WAT     H123189   1.612   0.766   5.833
 7649WAT     H223190   1.624   0.620   5.761
 7650WAT      O23191   5.813   4.389   2.372
 7650WAT     H123192   5.862   4.475   2.366
 7650WAT     H223193   5.846   4.326   2.302
 7651WAT      O23194   2.600   4.823   0.010
 7651WAT     H123195   2.508   4.784   0.011
 7651WAT     H223196   2.643   4.809   0.100
 7652WAT      O23197   2.705   0.429   7.580
 7652WAT     H123198   2.746   0.384   7.660
 7652WAT     H223199   2.615   0.390   7.563
 7653WAT      O23200   2.742   2.211   9.870
 7653WAT     H123201   2.781   2.244   9.785
 7653WAT     H223202   2.765   2.274   9.945
 7654WAT      O23203   5.121   9.784   3.154
 7654WAT     H123204   5.191   9.773   3.225
 7654WAT     H223205   5.147   9.858   3.093
 7655WAT      O23206   8.132   3.593   2.055
 7655WAT     H123207   8.192   3.547   2.121
 7655WAT     H223208   8.171   3.682   2.031
 7656WAT      O23209   5.623   8.750   9.721
 7656WAT     H123210   5.562   8.673   9.705
 7656WAT     H223211   5.676   8.769   9.639
 7657WAT      O23212   8.110   4.853   3.113
 7657WAT     H123213   8.182   4.838   3.045
 7657WAT     H223214   8.040   4.782   3.104
 7658WAT      O23215   8.022   6.327   4.584
 7658WAT     H123216   7.952   6.394   4.607
 7658WAT     H223217   8.060   6.288   4.668
 7659WAT      O23218   4.925   4.353   2.735
 7659WAT     H123219   4.988   4.413   2.686
 7659WAT     H223220   4.976   4.278   2.776
 7660WAT      O23221   8.076   7.994   7.220
 7660WAT     H123222   8.128   7.918   7.261
 7660WAT     H223223   8.137   8.048   7.162
 7661WAT      O23224   3.060   0.275   1.997
 7661WAT     H123225   3.043   0.206   1.926
 7661WAT     H223226   3.156   0.274   2.023
 7662WAT      O23227   4.072   9.837   9.115
 7662WAT     H123228   3.995   9.779   9.141
 7662WAT     H223229   4.088   9.828   9.016
 7663WAT      O23230   8.370   0.443   0.037
 7663WAT     H123231   8.438   0.514   0.058
 7663WAT     H223232   8.357   0.438  -0.062
 7664WAT      O23233   9.167   7.906   7.548
 7664WAT     H123234   9.229   7.953   7.611
 7664WAT     H223235   9.177   7.807   7.559
 7665WAT      O23236   5.204   2.611   8.482
 7665WAT     H123237   5.133   2.652   8.424
 7665WAT     H223238   5.242   2.680   8.543
 7666WAT      O23239   2.905   9.425   9.606
 7666WAT     H123240   2.841   9.475   9.547
 7666WAT     H223241   2.874   9.431   9.701
 7667WAT      O23242   7.841   6.325   8.305
 7667WAT     H123243   7.900   6.277   8.370
 7667WAT     H223244   7.838   6.422   8.328
 7668WAT      O23245   7.170   8.646   7.307
 7668WAT     H123246   7.184   8.589   7.388
 7668WAT     H223247   7.254   8.646   7.252
 7669WAT      O23248   4.914   6.087   1.212
 7669WAT     H123249   4.820   6.062   1.235
 7669WAT     H223250   4.929   6.072   1.114
 7670WAT      O23251   1.605   5.538   5.471
 7670WAT     H123252   1.584   5.477   5.548
 7670WAT     H223253   1.614   5.483   5.388
 7671WAT      O23254   0.413   2.127   2.126
 7671WAT     H123255   0.341   2.158   2.064
 7671WAT     H223256   0.501   2.162   2.095
 7672WAT      O23257   3.602   4.147   6.938
 7672WAT     H123258   3.505   4.157   6.917
 7672WAT     H223259   3.629   4.052   6.924
 7673WAT      O23260   7.875   8.503   1.252
 7673WAT     H123261   7.854   8.523   1.157
 7673WAT     H223262   7.958   8.551   1.279
 7674WAT      O23263   7.506   6.811   9.882
 7674WAT     H123264   7.593   6.857   9.899
 7674WAT     H223265   7.435   6.879   9.864
 7675WAT      O23266   1.535   6.843   5.592
 7675WAT     H123267   1.444   6.808   5.613
 7675WAT     H223268   1.542   6.938   5.624
 7676WAT      O23269   6.412   1.732   7.082
 7676WAT     H123270   6.356   1.740   6.999
 7676WAT     H223271   6.377   1.796   7.151
 7677WAT      O23272   1.831   2.028   2.492
 7677WAT     H123273   1.931   2.041   2.498
 7677WAT     H223274   1.786   2.096   2.550
 7678WAT      O23275   0.762   0.583   3.626
 7678WAT     H123276   0.664   0.605   3.623
 7678WAT     H223277   0.802   0.619   3.710
 7679WAT      O23278   8.689   2.228   1.972
 7679WAT     H123279   8.705   2.307   2.032
 7679WAT     H223280   8.747   2.152   2.001
 7680WAT      O23281   6.584   6.112   2.861
 7680WAT     H123282   6.636   6.101   2.777
 7680WAT     H223283   6.618   6.049   2.931
 7681WAT      O23284   7.405   7.740   7.635
 7681WAT     H123285   7.476   7.809   7.645
 7681WAT     H223286   7.386   7.698   7.723
 7682WAT      O23287   2.085   3.281   9.590
 7682WAT     H123288   2.178   3.256   9.564
 7682WAT     H223289   2.083   3.309   9.686
 7683WAT      O23290   9.688   5.801   2.925
 7683WAT     H123291   9.707   5.852   2.841
 7683WAT     H223292   9.602   5.833   2.965
 7684WAT      O23293   0.459   3.745   5.764
 7684WAT     H123294   0.446   3.838   5.730
 7684WAT     H223295   0.381   3.719   5.820
 7685WAT      O23296   2.892   8.977   7.065
 7685WAT     H123297   2.856   8.998   6.975
 7685WAT     H223298   2.822   8.993   7.134
 7686WAT      O23299   5.194   3.674   7.837
 7686WAT     H123300   5.227   3.751   7.891
 7686WAT     H223301   5.192   3.592   7.893
 7687WAT      O23302   7.743   7.796   9.065
 7687WAT     H123303   7.661   7.793   9.008
 7687WAT     H223304   7.782   7.704   9.073
 7688WAT      O23305   7.698   1.690   1.644
 7688WAT     H123306   7.622   1.745   1.610
 7688WAT     H223307   7.783   1.719   1.601
 7689WAT      O23308   4.680   8.849   9.217
 7689WAT     H123309   4.615   8.774   9.227
 7689WAT     H223310   4.658   8.901   9.134
 7690WAT      O23311   6.044   5.881   8.628
 7690WAT     H123312   6.032   5.970   8.583
 7690WAT     H223313   5.958   5.832   8.629
 7691WAT      O23314   5.537   0.705   7.050
 7691WAT     H123315   5.619   0.757   7.028
 7691WAT     H223316   5.460   0.741   6.997
 7692WAT      O23317   5.292   1.439   7.717
 7692WAT     H123318   5.252   1.457   7.627
 7692WAT     H223319   5.256   1.353   7.753
 7693WAT      O23320   0.814   9.405   4.596
 7693WAT     H123321   0.783   9.320   4.639
 7693WAT     H223322   0.807   9.480   4.661
 7694WAT      O23323   4.584   9.419   3.326
 7694WAT     H123324   4.512   9.485   3.302
 7694WAT     H223325   4.671   9.466   3.333
 7695WAT      O23326   4.483   4.141   0.286
 7695WAT     H123327   4.538   4.119   0.367
 7695WAT     H223328   4.386   4.130   0.308
 7696WAT      O23329   7.529   2.926   8.958
 7696WAT     H123330   7.597   2.890   9.022
 7696WAT     H223331   7.560   3.014   8.922
 7697WAT      O23332   1.196   2.022   4.958
 7697WAT     H123333   1.286   1.989   4.985
 7697WAT     H223334   1.164   1.971   4.878
 7698WAT      O23335   1.731   7.155   7.822
 7698WAT     H123336   1.712   7.100   7.903
 7698WAT     H223337   1.799   7.109   7.765
 7699WAT      O23338   2.000   4.627   2.592
 7699WAT     H123339   2.061   4.633   2.671
 7699WAT     H223340   2.050   4.646   2.508
 7700WAT      O23341   2.562   0.895   3.274
 7700WAT     H123342   2.601   0.955   3.343
 7700WAT     H223343   2.603   0.804   3.283
 7701WAT      O23344   8.461   6.085   5.855
 7701WAT     H123345   8.463   6.146   5.775
 7701WAT     H223346   8.431   5.994   5.827
 7702WAT      O23347   5.505   1.773   2.951
 7702WAT     H123348   5.465   1.704   2.890
 7702WAT     H223349   5.591   1.738   2.988
 7703WAT      O23350   3.604   1.367   6.417
 7703WAT     H123351   3.571   1.273   6.425
 7703WAT     H223352   3.616   1.407   6.508
 7704WAT      O23353   0.238   8.469   2.934
 7704WAT     H123354   0.177   8.442   2.860
 7704WAT     H223355   0.246   8.568   2.936
 7705WAT      O23356   6.689   2.041   8.706
 7705WAT     H123357   6.740   2.019   8.623
 7705WAT     H223358   6.667   1.957   8.756
 7706WAT      O23359   9.381   5.457   9.451
 7706WAT     H123360   9.296   5.508   9.442
 7706WAT     H223361   9.456   5.520   9.467
 7707WAT      O23362   7.751   3.872   4.677
 7707WAT     H123363   7.753   3.946   4.610
 7707WAT     H223364   7.703   3.793   4.638
 7708WAT      O23365   5.448   4.811   0.612
 7708WAT     H123366   5.460   4.727   0.665
 7708WAT     H223367   5.534   4.835   0.567
 7709WAT      O23368   0.480   4.196   0.843
 7709WAT     H123369   0.513   4.102   0.853
 7709WAT     H223370   0.443   4.209   0.751
 7710WAT      O23371   6.553   1.816   0.289
 7710WAT     H123372   6.493   1.889   0.257
 7710WAT     H223373   6.521   1.783   0.378
 7711WAT      O23374   5.513   3.043   9.631
 7711WAT     H123375   5.413   3.045   9.629
 7711WAT     H223376   5.546   2.957   9.593
 7712WAT      O23377   3.164   9.093   3.992
 7712WAT     H123378   3.184   9.190   3.978
 7712WAT     H223379   3.243   9.048   4.033
 7713WAT      O23380   5.038   2.490   0.601
 7713WAT     H123381   5.047   2.477   0.502
 7713WAT     H223382   5.128   2.482   0.643
 7714WAT      O23383   6.170   6.750   6.577
 7714WAT     H123384   6.207   6.745   6.484
 7714WAT     H223385   6.072   6.726   6.575
 7715WAT      O23386   5.459   5.600   6.351
 7715WAT     H123387   5.545   5.616   6.302
 7715WAT     H223388   5.386   5.585   6.285
 7716WAT      O23389   8.664   3.046   4.220
 7716WAT     H123390   8.722   3.120   4.254
 7716WAT     H223391   8.612   3.006   4.296
 7717WAT      O23392   0.088   0.802   1.941
 7717WAT     H123393   0.161   0.753   1.896
 7717WAT     H223394   0.126   0.874   2.000
 7718WAT      O23395   1.091   4.738   9.516
 7718WAT     H123396   1.189   4.755   9.504
 7718WAT     H223397   1.064   4.663   9.455
 7719WAT      O23398   0.322   3.772   6.647
 7719WAT     H123399   0.402   3.771   6.587
 7719WAT     H223400   0.269   3.854   6.630
 7720WAT      O23401   5.426   8.249   9.031
 7720WAT     H123402   5.464   8.160   9.005
 7720WAT     H223403   5.459   8.319   8.968
 7721WAT      O23404   7.746   2.107   5.563
 7721WAT     H123405   7.783   2.032   5.616
 7721WAT     H223406   7.683   2.071   5.493
 7722WAT      O23407   5.597   4.771   2.081
 7722WAT     H123408   5.669   4.840   2.092
 7722WAT     H223409   5.571   4.736   2.171
 7723WAT      O23410   6.764   1.461   3.529
 7723WAT     H123411   6.835   1.396   3.504
 7723WAT     H223412   6.675   1.427   3.500
 7724WAT      O23413   1.323   0.519   0.373
 7724WAT     H123414   1.242   0.516   0.431
 7724WAT     H223415   1.403   0.543   0.428
 7725WAT      O23416   7.221   7.021   2.858
 7725WAT     H123417   7.263   7.104   2.820
 7725WAT     H223418   7.181   7.042   2.947
 7726WAT      O23419   2.055   5.391   3.660
 7726WAT     H123420   2.084   5.310   3.609
 7726WAT     H223421   1.963   5.417   3.630
 7727WAT      O23422   3.730   0.140   0.863
 7727WAT     H123423   3.715   0.226   0.814
 7727WAT     H223424   3.644   0.088   0.866
 7728WAT      O23425   7.537   3.713   8.635
 7728WAT     H123426   7.452   3.749   8.673
 7728WAT     H223427   7.516   3.631   8.581
 7729WAT      O23428   3.670   6.217   7.345
 7729WAT     H123429   3.662   6.309   7.308
 7729WAT     H223430   3.647   6.150   7.274
 7730WAT      O23431   1.012   8.204   6.237
 7730WAT     H123432   1.069   8.273   6.280
 7730WAT     H223433   0.928   8.247   6.202
 7731WAT      O23434   2.125   5.139   0.117
 7731WAT     H123435   2.054   5.210   0.122
 7731WAT     H223436   2.212   5.182   0.091
 7732WAT      O23437   5.143   7.013   6.424
 7732WAT     H123438   5.091   6.960   6.491
 7732WAT     H223439   5.240   6.990   6.432
 7733WAT      O23440   3.875   4.622   2.629
 7733WAT     H123441   3.926   4.705   2.653
 7733WAT     H223442   3.777   4.642   2.629
 7734WAT      O23443   5.173   0.524   4.612
 7734WAT     H123444   5.200   0.555   4.521
 7734WAT     H223445   5.255   0.517   4.670
 7735WAT      O23446   5.584   9.204   9.569
 7735WAT     H123447   5.635   9.194   9.655
 7735WAT     H223448   5.487   9.189   9.586
 7736WAT      O23449   3.586   5.234   1.348
 7736WAT     H123450   3.575   5.174   1.268
 7736WAT     H223451   3.679   5.227   1.383
 7737WAT      O23452   1.106   4.401   6.528
 7737WAT     H123453   1.143   4.439   6.612
 7737WAT     H223454   1.008   4.384   6.540
 7738WAT      O23455   7.756   5.875   3.274
 7738WAT     H123456   7.808   5.955   3.300
 7738WAT     H223457   7.722   5.886   3.180
 7739WAT      O23458   3.660   5.327   9.720
 7739WAT     H123459   3.667   5.351   9.816
 7739WAT     H223460   3.595   5.389   9.674
 7740WAT      O23461   2.574   1.553   0.155
 7740WAT     H123462   2.544   1.466   0.194
 7740WAT     H223463   2.643   1.536   0.085
 7741WAT      O23464   8.285   5.257   6.591
 7741WAT     H123465   8.293   5.189   6.664
 7741WAT     H223466   8.363   5.319   6.595
 7742WAT      O23467   2.169   6.534   3.011
 7742WAT     H123468   2.089   6.593   3.018
 7742WAT     H223469   2.150   6.459   2.947
 7743WAT      O23470   1.709   3.698   4.092
 7743WAT     H123471   1.652   3.699   4.174
 7743WAT     H223472   1.662   3.646   4.020
 7744WAT      O23473   5.881   6.067   1.066
 7744WAT     H123474   5.790   6.025   1.063
 7744WAT     H223475   5.889   6.120   1.151
 7745WAT      O23476   7.425   5.160   7.167
 7745WAT     H123477   7.415   5.082   7.228
 7745WAT     H223478   7.518   5.161   7.130
 7746WAT      O23479   2.796   7.631   6.905
 7746WAT     H123480   2.864   7.558   6.911
 7746WAT     H223481   2.709   7.592   6.876
 7747WAT      O23482   3.573   2.507   4.830
 7747WAT     H123483   3.576   2.559   4.916
 7747WAT     H223484   3.593   2.411   4.850
 7748WAT      O23485   0.510   1.974   5.909
 7748WAT     H123486   0.484   1.986   5.813
 7748WAT     H223487   0.430   1.989   5.967
 7749WAT      O23488   9.035   6.226   5.782
 7749WAT     H123489   9.012   6.159   5.853
 7749WAT     H223490   9.120   6.272   5.805
 7750WAT      O23491   4.006   5.820   6.537
 7750WAT     H123492   4.076   5.891   6.546
 7750WAT     H223493   3.990   5.778   6.626
 7751WAT      O23494   5.779   8.840   8.037
 7751WAT     H123495   5.803   8.906   7.966
 7751WAT     H223496   5.784   8.883   8.126
 7752WAT      O23497   5.715   4.257   6.415
 7752WAT     H123498   5.712   4.244   6.316
 7752WAT     H223499   5.623   4.277   6.449
 7753WAT      O23500   2.641   9.692   4.799
 7753WAT     H123501   2.553   9.646   4.804
 7753WAT     H223502   2.698   9.648   4.730
 7754WAT      O23503   1.474   2.655   4.379
 7754WAT     H123504   1.547   2.646   4.446
 7754WAT     H223505   1.442   2.750   4.377
 7755WAT      O23506   5.953   5.701   2.731
 7755WAT     H123507   6.013   5.770   2.691
 7755WAT     H223508   5.981   5.610   2.699
 7756WAT      O23509   2.298   8.774   7.982
 7756WAT     H123510   2.370   8.837   8.010
 7756WAT     H223511   2.339   8.691   7.943
 7757WAT      O23512   8.329   3.676   6.910
 7757WAT     H123513   8.418   3.722   6.913
 7757WAT     H223514   8.309   3.635   6.999
 7758WAT      O23515   5.144   4.303   6.774
 7758WAT     H123516   5.094   4.286   6.859
 7758WAT     H223517   5.092   4.367   6.717
 7759WAT      O23518   5.647   6.830   5.482
 7759WAT     H123519   5.669   6.743   5.525
 7759WAT     H223520   5.725   6.892   5.491
 7760WAT      O23521   9.313   3.645   1.714
 7760WAT     H123522   9.301   3.642   1.614
 7760WAT     H223523   9.271   3.564   1.755
 7761WAT      O23524   2.615   9.050   2.092
 7761WAT     H123525   2.567   9.020   2.010
 7761WAT     H223526   2.708   9.078   2.067
 7762WAT      O23527   8.952   7.203   1.371
 7762WAT     H123528   8.922   7.188   1.277
 7762WAT     H223529   9.050   7.221   1.371
 7763WAT      O23530   0.347   4.766   9.157
 7763WAT     H123531   0.249   4.764   9.139
 7763WAT     H223532   0.372   4.854   9.197
 7764WAT      O23533   6.702   4.196   0.959
 7764WAT     H123534   6.606   4.179   0.935
 7764WAT     H223535   6.716   4.176   1.055
 7765WAT      O23536   0.702   5.569   3.941
 7765WAT     H123537   0.720   5.510   3.862
 7765WAT     H223538   0.637   5.524   4.002
 7766WAT      O23539   5.410   0.662   3.677
 7766WAT     H123540   5.391   0.607   3.595
 7766WAT     H223541   5.462   0.743   3.651
 7767WAT      O23542   3.192   5.847   2.750
 7767WAT     H123543   3.231   5.895   2.671
 7767WAT     H223544   3.123   5.905   2.794
 7768WAT      O23545   5.354   8.038   8.530
 7768WAT     H123546   5.446   8.010   8.558
 7768WAT     H223547   5.322   8.112   8.589
 7769WAT      O23548   7.424   4.070   6.176
 7769WAT     H123549   7.329   4.040   6.173
 7769WAT     H223550   7.471   4.040   6.093
 7770WAT      O23551   0.593   5.809   7.588
 7770WAT     H123552   0.563   5.879   7.523
 7770WAT     H223553   0.518   5.786   7.649
 7771WAT      O23554   6.726   2.410   7.266
 7771WAT     H123555   6.793   2.399   7.339
 7771WAT     H223556   6.638   2.438   7.306
 7772WAT      O23557   2.155   1.057   6.071
 7772WAT     H123558   2.242   1.095   6.103
 7772WAT     H223559   2.085   1.068   6.142
 7773WAT      O23560   8.218   1.279   0.808
 7773WAT     H123561   8.247   1.190   0.772
 7773WAT     H223562   8.126   1.299   0.774
 7774WAT      O23563   1.059   3.681   4.442
 7774WAT     H123564   1.031   3.598   4.393
 7774WAT     H223565   1.046   3.668   4.540
 7775WAT      O23566   0.121   1.089   7.352
 7775WAT     H123567   0.049   1.140   7.398
 7775WAT     H223568   0.142   1.132   7.264
 7776WAT      O23569   1.992   2.671   7.506
 7776WAT     H123570   2.004   2.572   7.494
 7776WAT     H223571   2.078   2.710   7.540
 7777WAT      O23572   4.122   2.165   2.757
 7777WAT     H123573   4.073   2.079   2.773
 7777WAT     H223574   4.104   2.227   2.832
 7778WAT      O23575   9.781   4.141   9.436
 7778WAT     H123576   9.851   4.079   9.401
 7778WAT     H223577   9.807   4.236   9.415
 7779WAT      O23578   1.040   9.004   4.176
 7779WAT     H123579   1.075   8.966   4.261
 7779WAT     H223580   1.006   8.930   4.118
 7780WAT      O23581   4.229   8.824   0.447
 7780WAT     H123582   4.210   8.800   0.352
 7780WAT     H223583   4.258   8.742   0.496
 7781WAT      O23584   8.674   6.603   5.089
 7781WAT     H123585   8.668   6.583   5.187
 7781WAT     H223586   8.588   6.575   5.045
 7782WAT      O23587   4.702   5.356   0.887
 7782WAT     H123588   4.655   5.423   0.944
 7782WAT     H223589   4.786   5.326   0.932
 7783WAT      O23590   3.911   3.351   2.478
 7783WAT     H123591   3.903   3.412   2.557
 7783WAT     H223592   3.837   3.369   2.414
 7784WAT      O23593   9.527   2.297   7.064
 7784WAT     H123594   9.496   2.298   6.969
 7784WAT     H223595   9.449   2.316   7.124
 7785WAT      O23596   2.068   0.750   2.039
 7785WAT     H123597   2.110   0.815   1.976
 7785WAT     H223598   2.044   0.666   1.990
 7786WAT      O23599   2.592   0.525   6.507
 7786WAT     H123600   2.630   0.436   6.484
 7786WAT     H223601   2.518   0.514   6.573
 7787WAT      O23602   1.809   9.064   2.499
 7787WAT     H123603   1.772   9.079   2.407
 7787WAT     H223604   1.791   9.144   2.556
 7788WAT      O23605   4.085   1.835   6.100
 7788WAT     H123606   4.066   1.846   6.003
 7788WAT     H223607   4.181   1.853   6.118
 7789WAT      O23608   4.149   9.327   3.458
 7789WAT     H123609   4.189   9.388   3.526
 7789WAT     H223610   4.052   9.347   3.447
 7790WAT      O23611   4.530   1.847   1.627
 7790WAT     H123612   4.556   1.914   1.557
 7790WAT     H223613   4.568   1.876   1.716
 7791WAT      O23614   0.112   2.746   6.988
 7791WAT     H123615   0.105   2.658   6.940
 7791WAT     H223616   0.020   2.781   7.005
 7792WAT      O23617   8.850   3.961   2.540
 7792WAT     H123618   8.827   3.921   2.451
 7792WAT     H223619   8.801   3.912   2.612
 7793WAT      O23620   8.521   5.489   5.409
 7793WAT     H123621   8.453   5.426   5.371
 7793WAT     H223622   8.575   5.528   5.334
 7794WAT      O23623   5.485   9.719   3.664
 7794WAT     H123624   5.442   9.799   3.706
 7794WAT     H223625   5.575   9.704   3.706
 7795WAT      O23626   9.222   6.059   3.955
 7795WAT     H123627   9.127   6.087   3.954
 7795WAT     H223628   9.237   5.989   3.885
 7796WAT      O23629   0.127   6.350   4.604
 7796WAT     H123630   0.209   6.406   4.618
 7796WAT     H223631   0.148   6.274   4.543
 7797WAT      O23632   0.958   8.518   1.532
 7797WAT     H123633   0.991   8.486   1.621
 7797WAT     H223634   1.021   8.587   1.496
 7798WAT      O23635   7.053   1.941   8.321
 7798WAT     H123636   7.022   1.857   8.275
 7798WAT     H223637   7.153   1.944   8.318
 7799WAT      O23638   1.815   4.108   2.135
 7799WAT     H123639   1.798   4.200   2.100
 7799WAT     H223640   1.910   4.082   2.115
 7800WAT      O23641   3.677   3.123   6.880
 7800WAT     H123642   3.693   3.078   6.793
 7800WAT     H223643   3.589   3.094   6.917
 7801WAT      O23644   8.599   7.451   1.324
 7801WAT     H123645   8.675   7.513   1.342
 7801WAT     H223646   8.536   7.452   1.401
 7802WAT      O23647   5.278   6.944   2.519
 7802WAT     H123648   5.350   7.002   2.557
 7802WAT     H223649   5.319   6.878   2.456
 7803WAT      O23650   3.700   9.412   0.297
 7803WAT     H123651   3.733   9.364   0.215
 7803WAT     H223652   3.759   9.489   0.317
 7804WAT      O23653   9.658   1.342   9.265
 7804WAT     H123654   9.574   1.290   9.283
 7804WAT     H223655   9.661   1.423   9.324
 7805WAT      O23656   5.345   0.038   6.348
 7805WAT     H123657   5.359  -0.030   6.276
 7805WAT     H223658   5.421   0.034   6.413
 7806WAT      O23659   2.807   9.672   2.888
 7806WAT     H123660   2.874   9.733   2.930
 7806WAT     H223661   2.835   9.650   2.795
 7807WAT      O23662   2.568   3.867   3.372
 7807WAT     H123663   2.593   3.790   3.313
 7807WAT     H223664   2.482   3.846   3.420
 7808WAT      O23665   8.246   9.826   0.798
 7808WAT     H123666   8.296   9.766   0.735
 7808WAT     H223667   8.156   9.787   0.816
 7809WAT      O23668   9.103   9.392   8.120
 7809WAT     H123669   9.132   9.300   8.148
 7809WAT     H223670   9.162   9.424   8.046
 7810WAT      O23671   0.713   4.557   1.300
 7810WAT     H123672   0.756   4.586   1.385
 7810WAT     H223673   0.625   4.513   1.320
 7811WAT      O23674   9.179   8.095   2.428
 7811WAT     H123675   9.095   8.074   2.378
 7811WAT     H223676   9.241   8.146   2.368
 7812WAT      O23677   8.010   5.732   3.219
 7812WAT     H123678   8.027   5.761   3.125
 7812WAT     H223679   7.940   5.792   3.259
 7813WAT      O23680   2.408   6.045   3.439
 7813WAT     H123681   2.431   6.014   3.531
 7813WAT     H223682   2.389   6.143   3.441
 7814WAT      O23683   7.912   1.427   7.442
 7814WAT     H123684   7.821   1.403   7.475
 7814WAT     H223685   7.909   1.449   7.345
 7815WAT      O23686   0.831   4.314   0.775
 7815WAT     H123687   0.810   4.412   0.770
 7815WAT     H223688   0.802   4.270   0.690
 7816WAT      O23689   9.390   3.789   7.106
 7816WAT     H123690   9.349   3.783   7.197
 7816WAT     H223691   9.326   3.754   7.038
 7817WAT      O23692   8.845   3.194   9.194
 7817WAT     H123693   8.763   3.180   9.139
 7817WAT     H223694   8.848   3.126   9.268
 7818WAT      O23695   1.866   1.657   7.294
 7818WAT     H123696   1.786   1.616   7.250
 7818WAT     H223697   1.926   1.585   7.330
 7819WAT      O23698   6.822   7.089   9.084
 7819WAT     H123699   6.838   7.152   9.160
 7819WAT     H223700   6.782   7.139   9.008
 7820WAT      O23701   1.859   2.018   5.973
 7820WAT     H123702   1.823   2.077   6.045
 7820WAT     H223703   1.957   2.036   5.961
 7821WAT      O23704   2.531   4.299   8.552
 7821WAT     H123705   2.467   4.372   8.527
 7821WAT     H223706   2.527   4.285   8.651
 7822WAT      O23707   7.075   3.236   5.886
 7822WAT     H123708   7.007   3.164   5.899
 7822WAT     H223709   7.033   3.313   5.838
 7823WAT      O23710   4.675   7.014   4.812
 7823WAT     H123711   4.581   7.017   4.778
 7823WAT     H223712   4.703   6.918   4.819
 7824WAT      O23713   9.501   1.205   6.659
 7824WAT     H123714   9.421   1.242   6.611
 7824WAT     H223715   9.584   1.226   6.608
 7825WAT      O23716   7.969   7.874   4.122
 7825WAT     H123717   7.963   7.921   4.034
 7825WAT     H223718   8.058   7.829   4.130
 7826WAT      O23719   7.205   5.530   0.886
 7826WAT     H123720   7.293   5.551   0.928
 7826WAT     H223721   7.137   5.596   0.915
 7827WAT      O23722   3.817   7.334   8.478
 7827WAT     H123723   3.827   7.318   8.576
 7827WAT     H223724   3.851   7.425   8.455
 7828WAT      O23725   0.173   4.717   5.138
 7828WAT     H123726   0.187   4.648   5.068
 7828WAT     H223727   0.075   4.726   5.157
 7829WAT      O23728   2.049   2.605   3.676
 7829WAT     H123729   2.047   2.622   3.577
 7829WAT     H223730   2.007   2.683   3.724
 7830WAT      O23731   0.791   8.300   1.513
 7830WAT     H123732   0.838   8.387   1.525
 7830WAT     H223733   0.804   8.267   1.419
 7831WAT      O23734   6.132   1.622   5.170
 7831WAT     H123735   6.212   1.568   5.198
 7831WAT     H223736   6.136   1.712   5.213
 7832WAT      O23737   2.541   0.960   0.763
 7832WAT     H123738   2.625   0.907   0.756
 7832WAT     H223739   2.554   1.036   0.827
 7833WAT      O23740   2.821   2.330   9.228
 7833WAT     H123741   2.808   2.247   9.282
 7833WAT     H223742   2.744   2.391   9.241
 7834WAT      O23743   8.570   3.798   4.696
 7834WAT     H123744   8.648   3.854   4.668
 7834WAT     H223745   8.583   3.704   4.664
 7835WAT      O23746   9.746   0.381   2.565
 7835WAT     H123747   9.730   0.289   2.528
 7835WAT     H223748   9.774   0.442   2.491
 7836WAT      O23749   2.212   0.224   2.252
 7836WAT     H123750   2.231   0.127   2.271
 7836WAT     H223751   2.251   0.249   2.163
 7837WAT      O23752   8.456   6.930   7.374
 7837WAT     H123753   8.403   7.013   7.390
 7837WAT     H223754   8.395   6.850   7.374
 7838WAT      O23755   7.613   1.048   9.884
 7838WAT     H123756   7.702   1.092   9.878
 7838WAT     H223757   7.613   0.964   9.830
 7839WAT      O23758   9.414   0.568   9.831
 7839WAT     H123759   9.511   0.594   9.831
 7839WAT     H223760   9.396   0.507   9.754
 7840WAT      O23761   7.653   8.162   8.600
 7840WAT     H123762   7.735   8.110   8.576
 7840WAT     H223763   7.575   8.100   8.605
 7841WAT      O23764   7.736   7.108   6.847
 7841WAT     H123765   7.720   7.035   6.781
 7841WAT     H223766   7.731   7.196   6.801
 7842WAT      O23767   5.409   6.781   6.202
 7842WAT     H123768   5.340   6.746   6.264
 7842WAT     H223769   5.373   6.782   6.109
 7843WAT      O23770   6.193   5.629   1.831
 7843WAT     H123771   6.230   5.668   1.915
 7843WAT     H223772   6.244   5.665   1.752
 7844WAT      O23773   1.267   3.231   7.683
 7844WAT     H123774   1.260   3.137   7.718
 7844WAT     H223775   1.256   3.230   7.584
 7845WAT      O23776   2.826   4.630   6.212
 7845WAT     H123777   2.846   4.532   6.221
 7845WAT     H223778   2.886   4.682   6.273
 7846WAT      O23779   9.284   3.380   6.039
 7846WAT     H123780   9.346   3.325   6.094
 7846WAT     H223781   9.296   3.477   6.061
 7847WAT      O23782   7.976   7.246   5.230
 7847WAT     H123783   7.911   7.212   5.162
 7847WAT     H223784   8.005   7.339   5.205
 7848WAT      O23785   9.031   2.126   4.571
 7848WAT     H123786   9.080   2.142   4.657
 7848WAT     H223787   9.082   2.165   4.495
 7849WAT      O23788   4.595   9.760   8.348
 7849WAT     H123789   4.510   9.756   8.399
 7849WAT     H223790   4.584   9.823   8.270
 7850WAT      O23791   9.080   7.562   2.543
 7850WAT     H123792   9.110   7.644   2.592
 7850WAT     H223793   9.102   7.481   2.598
 7851WAT      O23794   1.094   1.222   2.286
 7851WAT     H123795   1.098   1.276   2.370
 7851WAT     H223796   1.161   1.257   2.220
 7852WAT      O23797   2.166   5.379   2.055
 7852WAT     H123798   2.212   5.293   2.033
 7852WAT     H223799   2.109   5.407   1.978
 7853WAT      O23800   6.516   6.666   7.192
 7853WAT     H123801   6.508   6.741   7.127
 7853WAT     H223802   6.451   6.594   7.167
 7854WAT      O23803   9.097   4.230   1.314
 7854WAT     H123804   9.138   4.236   1.405
 7854WAT     H223805   9.028   4.301   1.303
 7855WAT      O23806   2.097   3.530   6.222
 7855WAT     H123807   2.004   3.541   6.188
 7855WAT     H223808   2.162   3.541   6.147
 7856WAT      O23809   7.958   2.978   0.914
 7856WAT     H123810   8.027   3.049   0.907
 7856WAT     H223811   7.990   2.906   0.976
 7857WAT      O23812   8.831   6.729   5.421
 7857WAT     H123813   8.917   6.727   5.471
 7857WAT     H223814   8.771   6.656   5.455
 7858WAT      O23815   2.624   5.296   2.796
 7858WAT     H123816   2.621   5.389   2.760
 7858WAT     H223817   2.560   5.238   2.745
 7859WAT      O23818   2.795   0.963   8.293
 7859WAT     H123819   2.791   0.992   8.389
 7859WAT     H223820   2.826   1.039   8.237
 7860WAT      O23821   9.881   2.836   7.847
 7860WAT     H123822   9.807   2.901   7.865
 7860WAT     H223823   9.969   2.881   7.864
 7861WAT      O23824   4.913   9.522   7.005
 7861WAT     H123825   4.926   9.505   6.907
 7861WAT     H223826   5.001   9.511   7.052
 7862WAT      O23827   6.970   2.577   2.457
 7862WAT     H123828   6.886   2.541   2.499
 7862WAT     H223829   6.948   2.660   2.406
 7863WAT      O23830   6.973   2.266   9.844
 7863WAT     H123831   7.069   2.242   9.834
 7863WAT     H223832   6.966   2.355   9.890
 7864WAT      O23833   6.375   7.783   4.958
 7864WAT     H123834   6.389   7.692   4.919
 7864WAT     H223835   6.454   7.808   5.014
 7865WAT      O23836   3.085   1.286   8.181
 7865WAT     H123837   3.154   1.249   8.119
 7865WAT     H223838   3.110   1.265   8.275
 7866WAT      O23839   6.221   0.583   4.631
 7866WAT     H123840   6.244   0.660   4.571
 7866WAT     H223841   6.196   0.617   4.721
 7867WAT      O23842   5.850   1.128   1.110
 7867WAT     H123843   5.770   1.163   1.160
 7867WAT     H223844   5.929   1.186   1.129
 7868WAT      O23845   8.050   2.395   6.361
 7868WAT     H123846   7.951   2.383   6.358
 7868WAT     H223847   8.089   2.334   6.430
 7869WAT      O23848   6.721   2.209   4.132
 7869WAT     H123849   6.668   2.203   4.047
 7869WAT     H223850   6.702   2.296   4.177
 7870WAT      O23851   8.123   2.326   1.013
 7870WAT     H123852   8.029   2.313   1.043
 7870WAT     H223853   8.124   2.362   0.920
 7871WAT      O23854   6.340   4.020   9.124
 7871WAT     H123855   6.434   4.023   9.159
 7871WAT     H223856   6.281   4.074   9.184
 7872WAT      O23857   4.046   3.028   1.583
 7872WAT     H123858   3.997   3.114   1.592
 7872WAT     H223859   4.015   2.964   1.654
 7873WAT      O23860   5.076   8.009   7.318
 7873WAT     H123861   5.007   7.979   7.384
 7873WAT     H223862   5.032   8.031   7.231
 7874WAT      O23863   7.108   0.287   6.696
 7874WAT     H123864   7.204   0.315   6.692
 7874WAT     H223865   7.051   0.366   6.715
 7875WAT      O23866   2.637   4.273   8.156
 7875WAT     H123867   2.635   4.195   8.218
 7875WAT     H223868   2.699   4.254   8.080
 7876WAT      O23869   8.920   3.640   6.096
 7876WAT     H123870   8.916   3.616   6.193
 7876WAT     H223871   8.994   3.704   6.080
 7877WAT      O23872   0.763   3.918   3.116
 7877WAT     H123873   0.723   3.880   3.199
 7877WAT     H223874   0.766   4.018   3.123
 7878WAT      O23875   8.304   6.959   7.737
 7878WAT     H123876   8.335   6.876   7.784
 7878WAT     H223877   8.257   6.934   7.652
 7879WAT      O23878   8.566   3.838   4.047
 7879WAT     H123879   8.535   3.931   4.024
 7879WAT     H223880   8.501   3.772   4.010
 7880WAT      O23881   9.255   0.638   0.622
 7880WAT     H123882   9.238   0.735   0.640
 7880WAT     H223883   9.332   0.607   0.677
 7881WAT      O23884   8.182   6.371   0.723
 7881WAT     H123885   8.280   6.374   0.742
 7881WAT     H223886   8.151   6.276   0.724
 7882WAT      O23887   8.710   8.681   4.382
 7882WAT     H123888   8.729   8.632   4.297
 7882WAT     H223889   8.641   8.752   4.365
 7883WAT      O23890   5.227   6.821   1.673
 7883WAT     H123891   5.207   6.878   1.593
 7883WAT     H223892   5.192   6.866   1.755
 7884WAT      O23893   4.262   2.568   2.013
 7884WAT     H123894   4.244   2.610   1.924
 7884WAT     H223895   4.183   2.515   2.042
 7885WAT      O23896   3.170   7.217   3.204
 7885WAT     H123897   3.221   7.137   3.234
 7885WAT     H223898   3.138   7.203   3.110
 7886WAT      O23899   0.625   7.054   0.236
 7886WAT     H123900   0.527   7.071   0.246
 7886WAT     H223901   0.668   7.134   0.195
 7887WAT      O23902   1.848   3.355   4.000
 7887WAT     H123903   1.871   3.450   3.979
 7887WAT     H223904   1.910   3.320   4.070
 7888WAT      O23905   3.070   5.519   7.371
 7888WAT     H123906   3.100   5.454   7.441
 7888WAT     H223907   3.100   5.487   7.281
 7889WAT      O23908   3.774   5.385   2.932
 7889WAT     H123909   3.825   5.302   2.955
 7889WAT     H223910   3.708   5.404   3.006
 7890WAT      O23911   5.934   3.620   6.851
 7890WAT     H123912   5.926   3.692   6.783
 7890WAT     H223913   5.928   3.659   6.943
 7891WAT      O23914   5.851   2.327   4.910
 7891WAT     H123915   5.943   2.349   4.942
 7891WAT     H223916   5.808   2.408   4.871
 7892WAT      O23917   1.604   7.369   5.667
 7892WAT     H123918   1.610   7.439   5.595
 7892WAT     H223919   1.516   7.378   5.715
 7893WAT      O23920   4.709   2.040   5.725
 7893WAT     H123921   4.746   2.116   5.671
 7893WAT     H223922   4.623   2.068   5.768
 7894WAT      O23923   1.285   4.227   2.563
 7894WAT     H123924   1.217   4.250   2.493
 7894WAT     H223925   1.243   4.233   2.654
 7895WAT      O23926   7.061   9.553   4.326
 7895WAT     H123927   7.108   9.641   4.317
 7895WAT     H223928   6.974   9.556   4.276
 7896WAT      O23929   5.044   4.300   9.599
 7896WAT     H123930   4.972   4.299   9.669
 7896WAT     H223931   5.117   4.362   9.626
 7897WAT      O23932   7.293   8.026   9.503
 7897WAT     H123933   7.202   7.999   9.537
 7897WAT     H223934   7.292   8.025   9.403
 7898WAT      O23935   0.155   3.600   1.064
 7898WAT     H123936   0.102   3.572   0.984
 7898WAT     H223937   0.099   3.591   1.146
 7899WAT      O23938   5.284   0.165   9.034
 7899WAT     H123939   5.355   0.218   9.079
 7899WAT     H223940   5.319   0.129   8.947
 7900WAT      O23941   0.859   7.208   9.295
 7900WAT     H123942   0.939   7.235   9.242
 7900WAT     H223943   0.866   7.111   9.319
 7901WAT      O23944   6.424   6.679   5.740
 7901WAT     H123945   6.471   6.673   5.653
 7901WAT     H223946   6.491   6.687   5.814
 7902WAT      O23947   5.764   1.342   5.245
 7902WAT     H123948   5.730   1.328   5.338
 7902WAT     H223949   5.735   1.432   5.212
 7903WAT      O23950   0.058   2.975   5.147
 7903WAT     H123951   0.099   2.910   5.211
 7903WAT     H223952   0.103   2.968   5.058
 7904WAT      O23953   6.327   8.645   1.472
 7904WAT     H123954   6.371   8.722   1.425
 7904WAT     H223955   6.396   8.590   1.519
 7905WAT      O23956   1.151   9.184   9.633
 7905WAT     H123957   1.060   9.223   9.643
 7905WAT     H223958   1.146   9.097   9.585
 7906WAT      O23959   8.709   4.536   4.435
 7906WAT     H123960   8.717   4.616   4.376
 7906WAT     H223961   8.626   4.485   4.411
 7907WAT      O23962   5.281   2.496   0.796
 7907WAT     H123963   5.280   2.410   0.847
 7907WAT     H223964   5.201   2.551   0.821
 7908WAT      O23965   3.491   5.601   2.296
 7908WAT     H123966   3.506   5.528   2.228
 7908WAT     H223967   3.479   5.688   2.249
 7909WAT      O23968   1.954   2.449   3.976
 7909WAT     H123969   1.940   2.451   4.075
 7909WAT     H223970   2.031   2.388   3.954
 7910WAT      O23971   3.325   4.535   3.328
 7910WAT     H123972   3.345   4.632   3.323
 7910WAT     H223973   3.401   4.487   3.372
 7911WAT      O23974   1.610   3.835   3.723
 7911WAT     H123975   1.617   3.792   3.632
 7911WAT     H223976   1.701   3.840   3.764
 7912WAT      O23977   7.841   6.826   5.696
 7912WAT     H123978   7.760   6.768   5.701
 7912WAT     H223979   7.919   6.777   5.736
 7913WAT      O23980   0.088   9.802   4.436
 7913WAT     H123981   0.140   9.720   4.460
 7913WAT     H223982   0.139   9.855   4.368
 7914WAT      O23983   0.213   6.847   4.051
 7914WAT     H123984   0.192   6.945   4.051
 7914WAT     H223985   0.228   6.817   3.957
 7915WAT      O23986   4.458   6.727   7.355
 7915WAT     H123987   4.412   6.673   7.285
 7915WAT     H223988   4.547   6.758   7.320
 7916WAT      O23989   0.318   7.425   3.895
 7916WAT     H123990   0.273   7.487   3.960
 7916WAT     H223991   0.413   7.454   3.882
 7917WAT      O23992   3.720   7.263   0.890
 7917WAT     H123993   3.732   7.342   0.950
 7917WAT     H223994   3.703   7.294   0.797
 7918WAT      O23995   7.285   5.210   9.238
 7918WAT     H123996   7.373   5.174   9.207
 7918WAT     H223997   7.225   5.135   9.265
 7919WAT      O23998   4.436   3.840   9.205
 7919WAT     H123999   4.451   3.819   9.302
 7919WAT     H224000   4.434   3.939   9.193
 7920WAT      O24001   7.101   4.649   6.618
 7920WAT     H124002   7.155   4.642   6.534
 7920WAT     H224003   7.112   4.740   6.657
 7921WAT      O24004   8.801   1.797   0.394
 7921WAT     H124005   8.725   1.755   0.345
 7921WAT     H224006   8.864   1.839   0.328
 7922WAT      O24007   2.073   9.369   9.819
 7922WAT     H124008   2.169   9.390   9.837
 7922WAT     H224009   2.060   9.356   9.721
 7923WAT      O24010   4.050   3.501   7.297
 7923WAT     H124011   4.059   3.447   7.380
 7923WAT     H224012   4.061   3.598   7.319
 7924WAT      O24013   3.964   0.533   2.345
 7924WAT     H124014   3.960   0.481   2.431
 7924WAT     H224015   3.996   0.626   2.364
 7925WAT      O24016   9.502   1.030   9.803
 7925WAT     H124017   9.459   0.957   9.750
 7925WAT     H224018   9.592   1.050   9.765
 7926WAT      O24019   5.589   8.187   2.071
 7926WAT     H124020   5.550   8.250   2.003
 7926WAT     H224021   5.682   8.216   2.093
 7927WAT      O24022   4.277   8.729   9.833
 7927WAT     H124023   4.356   8.743   9.773
 7927WAT     H224024   4.193   8.740   9.780
 7928WAT      O24025   7.928   1.280   0.733
 7928WAT     H124026   7.862   1.252   0.663
 7928WAT     H224027   7.903   1.370   0.769
 7929WAT      O24028   1.255   6.499   0.256
 7929WAT     H124029   1.335   6.493   0.315
 7929WAT     H224030   1.224   6.406   0.234
 7930WAT      O24031   1.797   7.467   7.783
 7930WAT     H124032   1.758   7.439   7.871
 7930WAT     H224033   1.740   7.434   7.709
 7931WAT      O24034   3.810   6.800   7.641
 7931WAT     H124035   3.881   6.738   7.607
 7931WAT     H224036   3.850   6.870   7.700
 7932WAT      O24037   0.091   1.870   5.460
 7932WAT     H124038   0.087   1.872   5.560
 7932WAT     H224039   0.185   1.848   5.431
 7933WAT      O24040   7.116   4.603   4.242
 7933WAT     H124041   7.189   4.603   4.310
 7933WAT     H224042   7.100   4.696   4.211
 7934WAT      O24043   0.817   0.468   4.681
 7934WAT     H124044   0.727   0.425   4.690
 7934WAT     H224045   0.819   0.553   4.734
 7935WAT      O24046   0.904   2.769   6.089
 7935WAT     H124047   0.970   2.701   6.056
 7935WAT     H224048   0.948   2.858   6.094
 7936WAT      O24049   6.254   6.450   2.330
 7936WAT     H124050   6.184   6.382   2.308
 7936WAT     H224051   6.289   6.491   2.246
 7937WAT      O24052   9.799   0.349   9.067
 7937WAT     H124053   9.708   0.383   9.090
 7937WAT     H224054   9.796   0.250   9.055
 7938WAT      O24055   6.418   6.694   8.263
 7938WAT     H124056   6.359   6.768   8.230
 7938WAT     H224057   6.454   6.719   8.354
 7939WAT      O24058   5.841   8.932   8.941
 7939WAT     H124059   5.777   8.982   9.000
 7939WAT     H224060   5.841   8.972   8.850
 7940WAT      O24061   4.839   9.399   2.315
 7940WAT     H124062   4.924   9.361   2.350
 7940WAT     H224063   4.849   9.421   2.218
 7941WAT      O24064   8.950   8.061   2.210
 7941WAT     H124065   8.988   8.070   2.118
 7941WAT     H224066   8.895   8.142   2.231
 7942WAT      O24067   5.051   7.737   2.515
 7942WAT     H124068   4.961   7.694   2.507
 7942WAT     H224069   5.042   7.835   2.499
 7943WAT      O24070   7.276   2.882   1.039
 7943WAT     H124071   7.207   2.874   0.967
 7943WAT     H224072   7.364   2.904   0.997
 7944WAT      O24073   7.534   7.037   9.196
 7944WAT     H124074   7.503   7.115   9.251
 7944WAT     H224075   7.538   6.956   9.254
 7945WAT      O24076   7.472   1.499   1.871
 7945WAT     H124077   7.455   1.597   1.862
 7945WAT     H224078   7.398   1.448   1.827
 7946WAT      O24079   7.934   1.641   0.442
 7946WAT     H124080   7.840   1.665   0.468
 7946WAT     H224081   7.955   1.680   0.352
 7947WAT      O24082   3.845   6.219   5.774
 7947WAT     H124083   3.912   6.222   5.699
 7947WAT     H224084   3.884   6.170   5.851
 7948WAT      O24085   2.156   1.955   0.898
 7948WAT     H124086   2.187   2.021   0.828
 7948WAT     H224087   2.088   1.894   0.858
 7949WAT      O24088   4.732   5.841   3.711
 7949WAT     H124089   4.749   5.940   3.713
 7949WAT     H224090   4.643   5.824   3.669
 7950WAT      O24091   6.419   6.391   7.127
 7950WAT     H124092   6.452   6.356   7.040
 7950WAT     H224093   6.320   6.383   7.132
 7951WAT      O24094   3.278   5.739   9.597
 7951WAT     H124095   3.201   5.688   9.637
 7951WAT     H224096   3.293   5.706   9.503
 7952WAT      O24097   8.937   0.643   2.302
 7952WAT     H124098   9.003   0.578   2.262
 7952WAT     H224099   8.879   0.679   2.229
 7953WAT      O24100   6.210   1.244   1.576
 7953WAT     H124101   6.166   1.177   1.635
 7953WAT     H224102   6.281   1.199   1.522
 7954WAT      O24103   1.694   8.871   6.246
 7954WAT     H124104   1.614   8.815   6.264
 7954WAT     H224105   1.748   8.881   6.330
 7955WAT      O24106   4.575   6.260   3.452
 7955WAT     H124107   4.545   6.319   3.527
 7955WAT     H224108   4.652   6.204   3.483
 7956WAT      O24109   2.827   2.958   4.175
 7956WAT     H124110   2.896   2.907   4.124
 7956WAT     H224111   2.802   3.041   4.124
 7957WAT      O24112   1.217   7.563   0.960
 7957WAT     H124113   1.210   7.470   0.925
 7957WAT     H224114   1.311   7.580   0.992
 7958WAT      O24115   0.370   8.005   1.448
 7958WAT     H124116   0.462   8.041   1.431
 7958WAT     H224117   0.311   8.079   1.482
 7959WAT      O24118   5.116   1.184   2.395
 7959WAT     H124119   5.154   1.106   2.345
 7959WAT     H224120   5.071   1.246   2.330
 7960WAT      O24121   6.204   8.857   4.914
 7960WAT     H124122   6.138   8.796   4.958
 7960WAT     H224123   6.185   8.951   4.942
 7961WAT      O24124   3.062   5.286   4.291
 7961WAT     H124125   3.038   5.363   4.231
 7961WAT     H224126   3.022   5.301   4.381
 7962WAT      O24127   6.548   1.629   1.377
 7962WAT     H124128   6.477   1.672   1.433
 7962WAT     H224129   6.511   1.610   1.286
 7963WAT      O24130   9.677   1.291   2.523
 7963WAT     H124131   9.693   1.297   2.425
 7963WAT     H224132   9.725   1.212   2.561
 7964WAT      O24133   0.972   1.870   9.348
 7964WAT     H124134   0.883   1.907   9.324
 7964WAT     H224135   0.980   1.777   9.312
 7965WAT      O24136   8.218   5.541   8.548
 7965WAT     H124137   8.200   5.580   8.638
 7965WAT     H224138   8.150   5.471   8.527
 7966WAT      O24139   7.695   0.802   4.039
 7966WAT     H124140   7.769   0.776   4.100
 7966WAT     H224141   7.692   0.739   3.961
 7967WAT      O24142   3.517   6.796   9.402
 7967WAT     H124143   3.507   6.894   9.422
 7967WAT     H224144   3.497   6.743   9.485
 7968WAT      O24145   4.464   0.361   8.859
 7968WAT     H124146   4.540   0.358   8.793
 7968WAT     H224147   4.434   0.455   8.871
 7969WAT      O24148   2.903   8.551   7.271
 7969WAT     H124149   2.896   8.493   7.352
 7969WAT     H224150   2.843   8.515   7.199
 7970WAT      O24151   3.126   7.670   2.224
 7970WAT     H124152   3.037   7.636   2.194
 7970WAT     H224153   3.115   7.763   2.260
 7971WAT      O24154   0.355   3.450   8.452
 7971WAT     H124155   0.407   3.524   8.495
 7971WAT     H224156   0.258   3.477   8.446
 7972WAT      O24157   2.796   8.916   8.184
 7972WAT     H124158   2.730   8.951   8.119
 7972WAT     H224159   2.824   8.824   8.157
 7973WAT      O24160   9.029   2.094   6.357
 7973WAT     H124161   8.982   2.080   6.445
 7973WAT     H224162   9.112   2.149   6.372
 7974WAT      O24163   3.972   4.320   1.372
 7974WAT     H124164   4.016   4.241   1.330
 7974WAT     H224165   3.973   4.397   1.308
 7975WAT      O24166   5.845   6.821   2.419
 7975WAT     H124167   5.776   6.774   2.364
 7975WAT     H224168   5.921   6.759   2.436
 7976WAT      O24169   1.491   5.531   4.624
 7976WAT     H124170   1.479   5.444   4.673
 7976WAT     H224171   1.589   5.550   4.614
 7977WAT      O24172   8.741   4.661   1.198
 7977WAT     H124173   8.783   4.571   1.205
 7977WAT     H224174   8.810   4.731   1.213
 7978WAT      O24175   3.095   4.875   8.978
 7978WAT     H124176   3.139   4.796   9.022
 7978WAT     H224177   3.053   4.845   8.892
 7979WAT      O24178   3.452   0.073   2.794
 7979WAT     H124179   3.461   0.142   2.866
 7979WAT     H224180   3.512  -0.004   2.814
 7980WAT      O24181   2.077   2.853   9.643
 7980WAT     H124182   2.134   2.870   9.562
 7980WAT     H224183   2.003   2.920   9.647
 7981WAT      O24184   5.020   5.851   3.844
 7981WAT     H124185   4.953   5.892   3.782
 7981WAT     H224186   5.020   5.752   3.832
 7982WAT      O24187   8.155   7.089   7.935
 7982WAT     H124188   8.207   7.060   7.855
 7982WAT     H224189   8.057   7.072   7.920
 7983WAT      O24190   8.261   0.154   8.344
 7983WAT     H124191   8.259   0.254   8.345
 7983WAT     H224192   8.258   0.121   8.249
 7984WAT      O24193   7.922   0.411   1.692
 7984WAT     H124194   7.998   0.350   1.715
 7984WAT     H224195   7.878   0.442   1.777
 7985WAT      O24196   8.154   7.280   0.775
 7985WAT     H124197   8.204   7.230   0.704
 7985WAT     H224198   8.113   7.215   0.839
 7986WAT      O24199   5.597   2.718   0.274
 7986WAT     H124200   5.612   2.620   0.291
 7986WAT     H224201   5.499   2.737   0.276
 7987WAT      O24202   9.784   5.581   2.813
 7987WAT     H124203   9.738   5.653   2.865
 7987WAT     H224204   9.815   5.617   2.725
 7988WAT      O24205   9.714   0.416   1.452
 7988WAT     H124206   9.629   0.438   1.406
 7988WAT     H224207   9.695   0.384   1.545
 7989WAT      O24208   9.801   3.579   4.926
 7989WAT     H124209   9.781   3.677   4.928
 7989WAT     H224210   9.716   3.527   4.918
 7990WAT      O24211   6.807   3.220   7.736
 7990WAT     H124212   6.743   3.175   7.673
 7990WAT     H224213   6.859   3.151   7.786
 7991WAT      O24214   4.141   9.547   7.574
 7991WAT     H124215   4.062   9.608   7.580
 7991WAT     H224216   4.180   9.534   7.665
 7992WAT      O24217   8.286   5.096   6.802
 7992WAT     H124218   8.362   5.031   6.802
 7992WAT     H224219   8.200   5.046   6.813
 7993WAT      O24220   2.598   4.626   0.394
 7993WAT     H124221   2.598   4.545   0.452
 7993WAT     H224222   2.542   4.698   0.436
 7994WAT      O24223   4.847   3.074   1.762
 7994WAT     H124224   4.784   3.137   1.807
 7994WAT     H224225   4.854   2.989   1.814
 7995WAT      O24226   3.676   0.899   5.737
 7995WAT     H124227   3.710   0.885   5.644
 7995WAT     H224228   3.618   0.980   5.739
 7996WAT      O24229   5.044   4.361   0.627
 7996WAT     H124230   5.091   4.350   0.540
 7996WAT     H224231   5.112   4.372   0.700
 7997WAT      O24232   8.729   3.202   0.455
 7997WAT     H124233   8.776   3.113   0.448
 7997WAT     H224234   8.709   3.236   0.363
 7998WAT      O24235   1.650   6.264   2.980
 7998WAT     H124236   1.733   6.208   2.985
 7998WAT     H224237   1.604   6.264   3.069
 7999WAT      O24238   3.597   3.615   2.156
 7999WAT     H124239   3.593   3.540   2.222
 7999WAT     H224240   3.505   3.642   2.130
 8000WAT      O24241   4.431   1.231   7.871
 8000WAT     H124242   4.399   1.296   7.940
 8000WAT     H224243   4.522   1.199   7.895
 8001WAT      O24244   9.756   0.330   4.361
 8001WAT     H124245   9.710   0.386   4.430
 8001WAT     H224246   9.693   0.313   4.285
 8002WAT      O24247   0.820   5.657   6.827
 8002WAT     H124248   0.751   5.628   6.893
 8002WAT     H224249   0.818   5.756   6.818
 8003WAT      O24250   7.657   4.838   8.936
 8003WAT     H124251   7.684   4.823   9.031
 8003WAT     H224252   7.575   4.784   8.916
 8004WAT      O24253   8.044   0.100   3.895
 8004WAT     H124254   7.955   0.141   3.878
 8004WAT     H224255   8.060   0.026   3.829
 8005WAT      O24256   9.814   5.414   1.324
 8005WAT     H124257   9.723   5.403   1.285
 8005WAT     H224258   9.872   5.337   1.295
 8006WAT      O24259   8.662   7.151   1.792
 8006WAT     H124260   8.750   7.172   1.749
 8006WAT     H224261   8.598   7.118   1.722
 8007WAT      O24262   8.067   1.655   7.513
 8007WAT     H124263   8.014   1.738   7.527
 8007WAT     H224264   8.005   1.578   7.499
 8008WAT      O24265   7.968   5.455   7.985
 8008WAT     H124266   7.874   5.488   7.981
 8008WAT     H224267   8.016   5.497   8.062
 8009WAT      O24268   5.528   1.090   5.674
 8009WAT     H124269   5.559   1.014   5.730
 8009WAT     H224270   5.568   1.175   5.709
 8010WAT      O24271   0.290   4.699   3.300
 8010WAT     H124272   0.246   4.614   3.330
 8010WAT     H224273   0.386   4.697   3.328
 8011WAT      O24274   6.241   0.935   2.327
 8011WAT     H124275   6.177   0.932   2.404
 8011WAT     H224276   6.266   1.029   2.308
 8012WAT      O24277   2.754   3.981   1.849
 8012WAT     H124278   2.776   3.907   1.913
 8012WAT     H224279   2.655   3.993   1.846
 8013WAT      O24280   1.998   9.506   8.825
 8013WAT     H124281   2.012   9.459   8.913
 8013WAT     H224282   1.962   9.441   8.758
 8014WAT      O24283   7.079   0.787   4.147
 8014WAT     H124284   7.001   0.769   4.208
 8014WAT     H224285   7.105   0.883   4.154
 8015WAT      O24286   3.372   5.603   4.224
 8015WAT     H124287   3.408   5.527   4.169
 8015WAT     H224288   3.395   5.588   4.320
 8016WAT      O24289   4.964   0.082   5.214
 8016WAT     H124290   4.876   0.058   5.254
 8016WAT     H224291   4.956   0.169   5.166
 8017WAT      O24292   4.032   5.053   2.836
 8017WAT     H124293   3.976   5.081   2.914
 8017WAT     H224294   4.089   5.130   2.806
 8018WAT      O24295   0.561   2.763   5.336
 8018WAT     H124296   0.597   2.673   5.360
 8018WAT     H224297   0.514   2.802   5.416
 8019WAT      O24298   5.637   4.698   8.162
 8019WAT     H124299   5.547   4.671   8.128
 8019WAT     H224300   5.705   4.686   8.090
 8020WAT      O24301   1.561   6.222   9.072
 8020WAT     H124302   1.490   6.179   9.128
 8020WAT     H224303   1.531   6.226   8.977
 8021WAT      O24304   3.223   9.584   9.434
 8021WAT     H124305   3.199   9.582   9.531
 8021WAT     H224306   3.177   9.661   9.389
 8022WAT      O24307   3.712   1.928   7.594
 8022WAT     H124308   3.733   2.008   7.539
 8022WAT     H224309   3.777   1.922   7.670
 8023WAT      O24310   8.471   2.087   1.083
 8023WAT     H124311   8.387   2.072   1.033
 8023WAT     H224312   8.527   2.004   1.082
 8024WAT      O24313   0.567   3.139   7.803
 8024WAT     H124314   0.538   3.221   7.853
 8024WAT     H224315   0.487   3.096   7.761
 8025WAT      O24316   2.416   2.120   0.831
 8025WAT     H124317   2.342   2.187   0.833
 8025WAT     H224318   2.457   2.114   0.922
 8026WAT      O24319   2.854   7.429   1.781
 8026WAT     H124320   2.765   7.473   1.785
 8026WAT     H224321   2.844   7.331   1.796
 8027WAT      O24322   2.483   9.189   1.733
 8027WAT     H124323   2.467   9.216   1.638
 8027WAT     H224324   2.421   9.115   1.758
 8028WAT      O24325   4.411   3.880   2.745
 8028WAT     H124326   4.440   3.970   2.715
 8028WAT     H224327   4.325   3.855   2.699
 8029WAT      O24328   7.243   1.709   1.400
 8029WAT     H124329   7.218   1.705   1.304
 8029WAT     H224330   7.199   1.787   1.443
 8030WAT      O24331   2.367   3.194   0.717
 8030WAT     H124332   2.300   3.187   0.791
 8030WAT     H224333   2.401   3.104   0.693
 8031WAT      O24334   0.752   6.647   0.933
 8031WAT     H124335   0.823   6.712   0.907
 8031WAT     H224336   0.681   6.695   0.986
 8032WAT      O24337   2.877   9.709   2.194
 8032WAT     H124338   2.906   9.685   2.101
 8032WAT     H224339   2.903   9.803   2.213
 8033WAT      O24340   3.941   1.555   0.355
 8033WAT     H124341   3.911   1.577   0.448
 8033WAT     H224342   4.023   1.607   0.333
 8034WAT      O24343   8.252   6.500   4.385
 8034WAT     H124344   8.285   6.553   4.307
 8034WAT     H224345   8.159   6.467   4.367
 8035WAT      O24346   9.481   5.418   8.408
 8035WAT     H124347   9.499   5.368   8.324
 8035WAT     H224348   9.392   5.463   8.402
 8036WAT      O24349   0.904   7.510   5.414
 8036WAT     H124350   0.936   7.422   5.378
 8036WAT     H224351   0.979   7.557   5.460
 8037WAT      O24352   1.307   1.408   3.757
 8037WAT     H124353   1.404   1.432   3.753
 8037WAT     H224354   1.253   1.485   3.724
 8038WAT      O24355   7.132   0.596   0.815
 8038WAT     H124356   7.049   0.548   0.788
 8038WAT     H224357   7.212   0.551   0.774
 8039WAT      O24358   3.400   5.804   4.633
 8039WAT     H124359   3.438   5.819   4.542
 8039WAT     H224360   3.449   5.861   4.699
 8040WAT      O24361   5.583   7.833   1.782
 8040WAT     H124362   5.597   7.738   1.812
 8040WAT     H224363   5.551   7.888   1.859
 8041WAT      O24364   1.282   5.638   4.841
 8041WAT     H124365   1.191   5.662   4.808
 8041WAT     H224366   1.347   5.637   4.764
 8042WAT      O24367   1.989   7.635   0.308
 8042WAT     H124368   2.042   7.682   0.237
 8042WAT     H224369   1.955   7.701   0.374
 8043WAT      O24370   4.770   4.395   4.940
 8043WAT     H124371   4.740   4.485   4.911
 8043WAT     H224372   4.700   4.327   4.917
 8044WAT      O24373   8.085   7.167   4.152
 8044WAT     H124374   8.057   7.202   4.063
 8044WAT     H224375   8.172   7.119   4.143
 8045WAT      O24376   5.674   2.074   0.247
 8045WAT     H124377   5.710   2.163   0.277
 8045WAT     H224378   5.648   2.080   0.150
 8046WAT      O24379   2.738   8.056   2.115
 8046WAT     H124380   2.669   8.124   2.089
 8046WAT     H224381   2.724   7.973   2.063
 8047WAT      O24382   2.186   0.038   1.527
 8047WAT     H124383   2.167   0.053   1.430
 8047WAT     H224384   2.224  -0.053   1.540
 8048WAT      O24385   8.472   6.583   6.396
 8048WAT     H124386   8.466   6.656   6.464
 8048WAT     H224387   8.532   6.611   6.322
 8049WAT      O24388   3.729   1.967   2.858
 8049WAT     H124389   3.791   2.000   2.929
 8049WAT     H224390   3.742   2.021   2.775
 8050WAT      O24391   8.995   7.825   8.254
 8050WAT     H124392   9.088   7.807   8.285
 8050WAT     H224393   8.995   7.840   8.155
 8051WAT      O24394   8.876   5.037   9.117
 8051WAT     H124395   8.891   5.133   9.137
 8051WAT     H224396   8.921   4.981   9.186
 8052WAT      O24397   0.566   5.441   2.992
 8052WAT     H124398   0.630   5.381   2.945
 8052WAT     H224399   0.530   5.396   3.074
 8053WAT      O24400   0.243   2.965   2.854
 8053WAT     H124401   0.159   2.913   2.838
 8053WAT     H224402   0.297   2.967   2.770
 8054WAT      O24403   4.298   3.631   7.666
 8054WAT     H124404   4.301   3.646   7.567
 8054WAT     H224405   4.375   3.574   7.693
 8055WAT      O24406   5.369   7.992   8.119
 8055WAT     H124407   5.306   7.916   8.132
 8055WAT     H224408   5.330   8.075   8.158
 8056WAT      O24409   1.767   0.544   1.432
 8056WAT     H124410   1.736   0.463   1.482
 8056WAT     H224411   1.687   0.597   1.402
 8057WAT      O24412   9.859   2.030   6.951
 8057WAT     H124413   9.800   2.028   6.870
 8057WAT     H224414   9.841   2.112   7.004
 8058WAT      O24415   0.938   0.870   4.741
 8058WAT     H124416   0.897   0.866   4.650
 8058WAT     H224417   1.035   0.890   4.733
 8059WAT      O24418   6.261   9.164   8.783
 8059WAT     H124419   6.169   9.196   8.761
 8059WAT     H224420   6.280   9.181   8.880
 8060WAT      O24421   8.139   3.196   1.308
 8060WAT     H124422   8.061   3.254   1.286
 8060WAT     H224423   8.218   3.225   1.253
 8061WAT      O24424   0.847   1.986   3.533
 8061WAT     H124425   0.776   1.931   3.490
 8061WAT     H224426   0.848   1.968   3.631
 8062WAT      O24427   8.273   2.953   8.725
 8062WAT     H124428   8.312   3.032   8.679
 8062WAT     H224429   8.200   2.914   8.669
 8063WAT      O24430   3.800   2.812   5.337
 8063WAT     H124431   3.801   2.791   5.239
 8063WAT     H224432   3.825   2.730   5.388
 8064WAT      O24433   0.426   8.180   3.292
 8064WAT     H124434   0.512   8.215   3.327
 8064WAT     H224435   0.376   8.135   3.366
 8065WAT      O24436   1.306   3.494   1.888
 8065WAT     H124437   1.277   3.589   1.898
 8065WAT     H224438   1.282   3.461   1.796
 8066WAT      O24439   9.197   3.755   3.028
 8066WAT     H124440   9.235   3.665   3.049
 8066WAT     H224441   9.137   3.783   3.103
 8067WAT      O24442   9.860   9.437   2.266
 8067WAT     H124443   9.912   9.403   2.344
 8067WAT     H224444   9.801   9.512   2.296
 8068WAT      O24445   4.691   6.586   6.948
 8068WAT     H124446   4.692   6.517   7.020
 8068WAT     H224447   4.770   6.646   6.959
 8069WAT      O24448   5.272   5.203   0.514
 8069WAT     H124449   5.244   5.107   0.525
 8069WAT     H224450   5.193   5.263   0.526
 8070WAT      O24451   0.362   4.897   3.616
 8070WAT     H124452   0.266   4.923   3.617
 8070WAT     H224453   0.374   4.812   3.669
 8071WAT      O24454   4.871   0.528   8.418
 8071WAT     H124455   4.882   0.627   8.413
 8071WAT     H224456   4.839   0.493   8.330
 8072WAT      O24457   7.113   5.347   9.053
 8072WAT     H124458   7.185   5.313   9.114
 8072WAT     H224459   7.072   5.429   9.093
 8073WAT      O24460   4.216   2.158   0.076
 8073WAT     H124461   4.208   2.059   0.085
 8073WAT     H224462   4.150   2.203   0.136
 8074WAT      O24463   2.739   0.694   8.344
 8074WAT     H124464   2.827   0.664   8.380
 8074WAT     H224465   2.742   0.793   8.326
 8075WAT      O24466   4.321   1.123   0.683
 8075WAT     H124467   4.398   1.065   0.656
 8075WAT     H224468   4.282   1.167   0.602
 8076WAT      O24469   0.084   5.508   7.680
 8076WAT     H124470   0.176   5.544   7.696
 8076WAT     H224471   0.090   5.410   7.657
 8077WAT      O24472   0.593   5.243   8.598
 8077WAT     H124473   0.614   5.257   8.501
 8077WAT     H224474   0.556   5.151   8.611
 8078WAT      O24475   4.669   1.035   9.302
 8078WAT     H124476   4.666   0.988   9.214
 8078WAT     H224477   4.712   0.976   9.370
 8079WAT      O24478   4.678   1.755   9.119
 8079WAT     H124479   4.686   1.782   9.022
 8079WAT     H224480   4.598   1.697   9.130
 8080WAT      O24481   8.864   2.364   3.451
 8080WAT     H124482   8.850   2.414   3.365
 8080WAT     H224483   8.805   2.401   3.522
 8081WAT      O24484   5.409   1.852   0.014
 8081WAT     H124485   5.393   1.760  -0.022
 8081WAT     H224486   5.351   1.867   0.095
 8082WAT      O24487   5.246   5.092   0.995
 8082WAT     H124488   5.244   5.175   0.939
 8082WAT     H224489   5.197   5.019   0.947
 8083WAT      O24490   3.142   9.399   9.189
 8083WAT     H124491   3.048   9.367   9.191
 8083WAT     H224492   3.167   9.436   9.278
 8084WAT      O24493   6.995   4.549   3.874
 8084WAT     H124494   6.997   4.615   3.799
 8084WAT     H224495   7.087   4.535   3.908
 8085WAT      O24496   3.545   5.791   6.743
 8085WAT     H124497   3.547   5.773   6.841
 8085WAT     H224498   3.575   5.709   6.694
 8086WAT      O24499   0.956   8.389   4.349
 8086WAT     H124500   0.864   8.349   4.348
 8086WAT     H224501   1.024   8.317   4.363
 8087WAT      O24502   3.642   2.890   1.701
 8087WAT     H124503   3.616   2.957   1.771
 8087WAT     H224504   3.672   2.938   1.619
 8088WAT      O24505   6.270   1.699   1.564
 8088WAT     H124506   6.245   1.712   1.468
 8088WAT     H224507   6.254   1.784   1.614
 8089WAT      O24508   4.042   2.570   0.094
 8089WAT     H124509   4.093   2.484   0.093
 8089WAT     H224510   3.977   2.571   0.018
 8090WAT      O24511   5.631   6.186   9.570
 8090WAT     H124512   5.544   6.170   9.617
 8090WAT     H224513   5.691   6.107   9.584
 8091WAT      O24514   5.293   6.379   4.209
 8091WAT     H124515   5.354   6.305   4.179
 8091WAT     H224516   5.198   6.350   4.198
 8092WAT      O24517   1.434   3.134   2.721
 8092WAT     H124518   1.395   3.181   2.642
 8092WAT     H224519   1.413   3.184   2.805
 8093WAT      O24520   2.402   8.938   7.123
 8093WAT     H124521   2.325   8.882   7.154
 8093WAT     H224522   2.412   9.018   7.182
 8094WAT      O24523   8.565   8.806   7.634
 8094WAT     H124524   8.570   8.773   7.728
 8094WAT     H224525   8.556   8.728   7.571
 8095WAT      O24526   5.306   1.170   9.316
 8095WAT     H124527   5.340   1.240   9.253
 8095WAT     H224528   5.354   1.084   9.298
 8096WAT      O24529   8.737   3.135   1.832
 8096WAT     H124530   8.780   3.214   1.790
 8096WAT     H224531   8.804   3.085   1.887
 8097WAT      O24532   9.059   1.641   1.094
 8097WAT     H124533   9.057   1.710   1.022
 8097WAT     H224534   9.114   1.675   1.171
 8098WAT      O24535   9.354   1.496   5.446
 8098WAT     H124536   9.355   1.498   5.546
 8098WAT     H224537   9.407   1.573   5.410
 8099WAT      O24538   9.395   4.891   8.660
 8099WAT     H124539   9.326   4.820   8.676
 8099WAT     H224540   9.405   4.947   8.742
 8100WAT      O24541   5.418   5.644   1.589
 8100WAT     H124542   5.510   5.637   1.627
 8100WAT     H224543   5.380   5.734   1.612
 8101WAT      O24544   6.987   0.865   0.082
 8101WAT     H124545   6.924   0.919   0.138
 8101WAT     H224546   7.073   0.853   0.132
 8102WAT      O24547   2.301   2.124   9.065
 8102WAT     H124548   2.370   2.195   9.077
 8102WAT     H224549   2.277   2.118   8.968
 8103WAT      O24550   0.046   4.252   3.388
 8103WAT     H124551   0.122   4.198   3.350
 8103WAT     H224552  -0.037   4.235   3.335
 8104WAT      O24553   6.355   2.007   0.287
 8104WAT     H124554   6.312   2.042   0.205
 8104WAT     H224555   6.359   2.079   0.357
 8105WAT      O24556   6.708   5.494   1.235
 8105WAT     H124557   6.692   5.536   1.324
 8105WAT     H224558   6.632   5.433   1.213
 8106WAT      O24559   4.981   2.249   5.423
 8106WAT     H124560   4.925   2.281   5.499
 8106WAT     H224561   5.053   2.316   5.404
 8107WAT      O24562   9.632   0.092   2.212
 8107WAT     H124563   9.679   0.006   2.231
 8107WAT     H224564   9.654   0.122   2.119
 8108WAT      O24565   5.492   0.968   0.223
 8108WAT     H124566   5.477   0.920   0.136
 8108WAT     H224567   5.408   0.963   0.278
 8109WAT      O24568   5.266   2.757   5.670
 8109WAT     H124569   5.313   2.701   5.602
 8109WAT     H224570   5.223   2.697   5.738
 8110WAT      O24571   8.686   3.610   0.805
 8110WAT     H124572   8.763   3.667   0.835
 8110WAT     H224573   8.700   3.582   0.710
 8111WAT      O24574   9.819   9.403   8.466
 8111WAT     H124575   9.890   9.471   8.483
 8111WAT     H224576   9.808   9.391   8.367
 8112WAT      O24577   3.331   0.918   4.227
 8112WAT     H124578   3.355   0.824   4.254
 8112WAT     H224579   3.351   0.980   4.303
 8113WAT      O24580   6.322   0.633   6.697
 8113WAT     H124581   6.364   0.633   6.788
 8113WAT     H224582   6.270   0.548   6.685
 8114WAT      O24583   1.354   4.937   7.277
 8114WAT     H124584   1.349   5.034   7.304
 8114WAT     H224585   1.314   4.925   7.187
 8115WAT      O24586   2.894   4.111   5.391
 8115WAT     H124587   2.895   4.027   5.445
 8115WAT     H224588   2.807   4.159   5.405
 8116WAT      O24589   2.780   4.673   4.065
 8116WAT     H124590   2.770   4.768   4.095
 8116WAT     H224591   2.692   4.639   4.033
 8117WAT      O24592   8.337   7.500   0.409
 8117WAT     H124593   8.254   7.454   0.379
 8117WAT     H224594   8.416   7.460   0.362
 8118WAT      O24595   5.350   0.550   9.331
 8118WAT     H124596   5.272   0.493   9.305
 8118WAT     H224597   5.354   0.630   9.271
 8119WAT      O24598   8.976   2.334   7.959
 8119WAT     H124599   8.970   2.336   7.860
 8119WAT     H224600   8.970   2.239   7.991
 8120WAT      O24601   5.799   5.893   0.278
 8120WAT     H124602   5.812   5.859   0.185
 8120WAT     H224603   5.764   5.987   0.275
 8121WAT      O24604   7.207   1.735   9.193
 8121WAT     H124605   7.228   1.681   9.274
 8121WAT     H224606   7.109   1.753   9.189
 8122WAT      O24607   8.217   2.400   9.152
 8122WAT     H124608   8.232   2.339   9.230
 8122WAT     H224609   8.301   2.450   9.132
 8123WAT      O24610   2.846   3.563   5.868
 8123WAT     H124611   2.868   3.540   5.774
 8123WAT     H224612   2.754   3.530   5.890
 8124WAT      O24613   6.230   9.587   8.701
 8124WAT     H124614   6.322   9.551   8.685
 8124WAT     H224615   6.236   9.677   8.744
 8125WAT      O24616   5.713   2.603   2.166
 8125WAT     H124617   5.774   2.524   2.160
 8125WAT     H224618   5.745   2.665   2.238
 8126WAT      O24619   9.533   7.939   4.431
 8126WAT     H124620   9.517   7.919   4.527
 8126WAT     H224621   9.627   7.971   4.418
 8127WAT      O24622   7.018   4.770   5.565
 8127WAT     H124623   6.957   4.766   5.485
 8127WAT     H224624   7.037   4.866   5.587
 8128WAT      O24625   6.579   3.142   2.298
 8128WAT     H124626   6.521   3.176   2.372
 8128WAT     H224627   6.523   3.091   2.233
 8129WAT      O24628   6.430   9.495   4.881
 8129WAT     H124629   6.471   9.576   4.923
 8129WAT     H224630   6.494   9.456   4.814
 8130WAT      O24631   4.947   8.687   7.115
 8130WAT     H124632   4.946   8.657   7.210
 8130WAT     H224633   4.853   8.694   7.081
 8131WAT      O24634   3.255   1.199   2.698
 8131WAT     H124635   3.220   1.270   2.637
 8131WAT     H224636   3.181   1.137   2.722
 8132WAT      O24637   4.425   9.683   7.480
 8132WAT     H124638   4.326   9.674   7.474
 8132WAT     H224639   4.465   9.599   7.516
 8133WAT      O24640   6.533   8.442   2.155
 8133WAT     H124641   6.460   8.386   2.115
 8133WAT     H224642   6.604   8.383   2.193
 8134WAT      O24643   4.734   4.104   8.430
 8134WAT     H124644   4.643   4.099   8.470
 8134WAT     H224645   4.784   4.020   8.448
 8135WAT      O24646   6.568   3.688   7.131
 8135WAT     H124647   6.568   3.741   7.046
 8135WAT     H224648   6.603   3.744   7.206
 8136WAT      O24649   4.682   4.597   9.730
 8136WAT     H124650   4.582   4.589   9.729
 8136WAT     H224651   4.708   4.692   9.714
 8137WAT      O24652   1.578   1.993   3.527
 8137WAT     H124653   1.636   2.019   3.450
 8137WAT     H224654   1.577   1.894   3.537
 8138WAT      O24655   1.240   9.282   2.534
 8138WAT     H124656   1.283   9.259   2.447
 8138WAT     H224657   1.181   9.362   2.522
 8139WAT      O24658   3.285   3.470   0.034
 8139WAT     H124659   3.355   3.421   0.086
 8139WAT     H224660   3.197   3.422   0.043
 8140WAT      O24661   0.661   9.323   9.609
 8140WAT     H124662   0.627   9.307   9.516
 8140WAT     H224663   0.629   9.412   9.642
 8141WAT      O24664   3.224   2.420   4.035
 8141WAT     H124665   3.243   2.343   4.096
 8141WAT     H224666   3.128   2.447   4.044
 8142WAT      O24667   8.469   4.470   6.924
 8142WAT     H124668   8.546   4.523   6.888
 8142WAT     H224669   8.387   4.490   6.870
 8143WAT      O24670   2.680   0.212   1.829
 8143WAT     H124671   2.596   0.160   1.844
 8143WAT     H224672   2.658   0.308   1.814
 8144WAT      O24673   0.184   3.667   0.129
 8144WAT     H124674   0.176   3.748   0.187
 8144WAT     H224675   0.112   3.602   0.154
 8145WAT      O24676   0.455   6.212   1.637
 8145WAT     H124677   0.387   6.278   1.607
 8145WAT     H224678   0.419   6.160   1.714
 8146WAT      O24679   6.680   6.548   7.808
 8146WAT     H124680   6.710   6.462   7.850
 8146WAT     H224681   6.626   6.600   7.873
 8147WAT      O24682   9.410   0.158   0.229
 8147WAT     H124683   9.440   0.234   0.288
 8147WAT     H224684   9.344   0.192   0.162
 8148WAT      O24685   4.291   9.274   6.460
 8148WAT     H124686   4.307   9.347   6.395
 8148WAT     H224687   4.348   9.287   6.541
 8149WAT      O24688   3.997   9.755   1.493
 8149WAT     H124689   3.965   9.847   1.470
 8149WAT     H224690   3.964   9.730   1.584
 8150WAT      O24691   1.011   9.224   2.000
 8150WAT     H124692   1.015   9.226   2.100
 8150WAT     H224693   0.971   9.138   1.970
 8151WAT      O24694   5.487   6.693   6.764
 8151WAT     H124695   5.533   6.699   6.852
 8151WAT     H224696   5.541   6.636   6.702
 8152WAT      O24697   6.820   5.593   6.016
 8152WAT     H124698   6.771   5.643   5.945
 8152WAT     H224699   6.761   5.582   6.096
 8153WAT      O24700   3.766   6.338   8.304
 8153WAT     H124701   3.763   6.238   8.307
 8153WAT     H224702   3.672   6.373   8.299
 8154WAT      O24703   4.018   5.953   0.464
 8154WAT     H124704   3.963   6.031   0.494
 8154WAT     H224705   4.078   5.982   0.389
 8155WAT      O24706   0.034   6.035   7.871
 8155WAT     H124707  -0.026   5.991   7.804
 8155WAT     H224708   0.098   6.095   7.825
 8156WAT      O24709   3.777   3.408   3.814
 8156WAT     H124710   3.803   3.343   3.885
 8156WAT     H224711   3.690   3.452   3.838
 8157WAT      O24712   3.615   4.913   3.725
 8157WAT     H124713   3.559   4.833   3.703
 8157WAT     H224714   3.555   4.988   3.755
 8158WAT      O24715   3.420   8.935   6.390
 8158WAT     H124716   3.369   8.966   6.470
 8158WAT     H224717   3.492   9.001   6.368
 8159WAT      O24718   1.844   0.881   2.143
 8159WAT     H124719   1.897   0.818   2.086
 8159WAT     H224720   1.906   0.944   2.189
 8160WAT      O24721   9.514   0.933   8.711
 8160WAT     H124722   9.465   0.849   8.686
 8160WAT     H224723   9.555   0.974   8.630
 8161WAT      O24724   1.067   1.652   4.867
 8161WAT     H124725   1.099   1.746   4.876
 8161WAT     H224726   1.105   1.612   4.785
 8162WAT      O24727   6.003   4.901   2.733
 8162WAT     H124728   5.988   4.803   2.718
 8162WAT     H224729   6.022   4.918   2.829
 8163WAT      O24730   7.705   7.548   5.948
 8163WAT     H124731   7.756   7.462   5.954
 8163WAT     H224732   7.726   7.594   5.862
 8164WAT      O24733   9.670   8.480   5.416
 8164WAT     H124734   9.604   8.452   5.485
 8164WAT     H224735   9.746   8.416   5.413
 8165WAT      O24736   7.499   7.295   8.248
 8165WAT     H124737   7.421   7.356   8.237
 8165WAT     H224738   7.479   7.227   8.319
 8166WAT      O24739   2.827   3.233   7.089
 8166WAT     H124740   2.745   3.286   7.068
 8166WAT     H224741   2.908   3.286   7.064
 8167WAT      O24742   5.050   7.290   2.976
 8167WAT     H124743   5.135   7.336   2.951
 8167WAT     H224744   5.070   7.205   3.023
 8168WAT      O24745   0.161   5.161   2.263
 8168WAT     H124746   0.246   5.201   2.298
 8168WAT     H224747   0.085   5.189   2.320
 8169WAT      O24748   7.239   5.341   7.057
 8169WAT     H124749   7.289   5.265   7.098
 8169WAT     H224750   7.148   5.346   7.097
 8170WAT      O24751   0.486   0.365   1.232
 8170WAT     H124752   0.464   0.456   1.197
 8170WAT     H224753   0.519   0.373   1.326
 8171WAT      O24754   6.695   7.017   2.298
 8171WAT     H124755   6.757   6.976   2.231
 8171WAT     H224756   6.745   7.036   2.383
 8172WAT      O24757   2.562   4.377   4.550
 8172WAT     H124758   2.605   4.423   4.473
 8172WAT     H224759   2.560   4.279   4.534
 8173WAT      O24760   7.899   9.521   3.990
 8173WAT     H124761   7.995   9.494   3.989
 8173WAT     H224762   7.842   9.444   4.018
 8174WAT      O24763   8.169   9.081   0.818
 8174WAT     H124764   8.221   9.112   0.738
 8174WAT     H224765   8.171   8.981   0.822
 8175WAT      O24766   7.529   9.295   3.569
 8175WAT     H124767   7.564   9.345   3.491
 8175WAT     H224768   7.583   9.318   3.650
 8176WAT      O24769   7.896   8.327   1.900
 8176WAT     H124770   7.934   8.247   1.854
 8176WAT     H224771   7.923   8.410   1.851
 8177WAT      O24772   7.196   3.308   1.936
 8177WAT     H124773   7.238   3.376   1.876
 8177WAT     H224774   7.244   3.308   2.024
 8178WAT      O24775   1.650   6.875   9.638
 8178WAT     H124776   1.592   6.795   9.654
 8178WAT     H224777   1.642   6.938   9.715
 8179WAT      O24778   3.749   1.956   8.248
 8179WAT     H124779   3.843   1.949   8.214
 8179WAT     H224780   3.748   1.949   8.348
 8180WAT      O24781   2.280   2.059   3.114
 8180WAT     H124782   2.333   2.059   3.199
 8180WAT     H224783   2.294   1.973   3.065
 8181WAT      O24784   1.693   0.803   3.688
 8181WAT     H124785   1.605   0.759   3.708
 8181WAT     H224786   1.677   0.895   3.653
 8182WAT      O24787   6.664   7.677   3.038
 8182WAT     H124788   6.653   7.752   3.103
 8182WAT     H224789   6.578   7.626   3.032
 8183WAT      O24790   6.486   1.235   7.464
 8183WAT     H124791   6.464   1.310   7.402
 8183WAT     H224792   6.469   1.148   7.418
 8184WAT      O24793   4.278   1.783   7.926
 8184WAT     H124794   4.364   1.740   7.953
 8184WAT     H224795   4.201   1.727   7.959
 8185WAT      O24796   6.071   7.691   6.950
 8185WAT     H124797   6.017   7.768   6.917
 8185WAT     H224798   6.161   7.723   6.978
 8186WAT      O24799   2.676   0.366   1.539
 8186WAT     H124800   2.630   0.451   1.565
 8186WAT     H224801   2.774   0.383   1.530
 8187WAT      O24802   6.537   8.936   3.951
 8187WAT     H124803   6.528   9.029   3.987
 8187WAT     H224804   6.460   8.880   3.984
 8188WAT      O24805   5.351   1.496   6.635
 8188WAT     H124806   5.269   1.548   6.611
 8188WAT     H224807   5.335   1.444   6.718
 8189WAT      O24808   4.242   7.975   2.844
 8189WAT     H124809   4.272   7.906   2.778
 8189WAT     H224810   4.316   8.041   2.858
 8190WAT      O24811   3.783   8.587   6.697
 8190WAT     H124812   3.801   8.665   6.638
 8190WAT     H224813   3.740   8.514   6.644
 8191WAT      O24814   4.717   5.818   4.499
 8191WAT     H124815   4.746   5.904   4.458
 8191WAT     H224816   4.622   5.827   4.531
 8192WAT      O24817   4.640   1.879   8.004
 8192WAT     H124818   4.663   1.908   7.911
 8192WAT     H224819   4.596   1.789   8.000
 8193WAT      O24820   0.507   6.359   5.193
 8193WAT     H124821   0.546   6.334   5.104
 8193WAT     H224822   0.568   6.422   5.240
 8194WAT      O24823   7.773   2.495   6.370
 8194WAT     H124824   7.694   2.439   6.345
 8194WAT     H224825   7.793   2.560   6.297
 8195WAT      O24826   7.558   6.526   5.901
 8195WAT     H124827   7.637   6.540   5.961
 8195WAT     H224828   7.585   6.470   5.823
 8196WAT      O24829   5.083   8.382   7.652
 8196WAT     H124830   5.017   8.349   7.719
 8196WAT     H224831   5.113   8.306   7.594
 8197WAT      O24832   8.149   4.872   2.106
 8197WAT     H124833   8.185   4.800   2.046
 8197WAT     H224834   8.173   4.961   2.069
 8198WAT      O24835   5.784   7.712   0.424
 8198WAT     H124836   5.843   7.634   0.405
 8198WAT     H224837   5.774   7.767   0.341
 8199WAT      O24838   1.187   1.713   4.491
 8199WAT     H124839   1.158   1.687   4.399
 8199WAT     H224840   1.205   1.631   4.545
 8200WAT      O24841   0.139   6.061   9.307
 8200WAT     H124842   0.043   6.084   9.320
 8200WAT     H224843   0.194   6.111   9.373
 8201WAT      O24844   8.909   8.109   4.681
 8201WAT     H124845   8.869   8.159   4.758
 8201WAT     H224846   8.940   8.019   4.712
 8202WAT      O24847   5.737   0.039   1.537
 8202WAT     H124848   5.764   0.129   1.502
 8202WAT     H224849   5.713  -0.020   1.460
 8203WAT      O24850   1.007   8.753   7.195
 8203WAT     H124851   1.037   8.661   7.168
 8203WAT     H224852   0.956   8.795   7.120
 8204WAT      O24853   3.763   3.737   9.842
 8204WAT     H124854   3.732   3.700   9.930
 8204WAT     H224855   3.813   3.822   9.858
 8205WAT      O24856   0.588   2.671   8.332
 8205WAT     H124857   0.650   2.708   8.263
 8205WAT     H224858   0.605   2.715   8.420
 8206WAT      O24859   6.305   2.178   2.276
 8206WAT     H124860   6.348   2.091   2.253
 8206WAT     H224861   6.210   2.163   2.302
 8207WAT      O24862   0.868   2.320   3.971
 8207WAT     H124863   0.778   2.358   3.949
 8207WAT     H224864   0.937   2.392   3.961
 8208WAT      O24865   1.351   7.735   5.309
 8208WAT     H124866   1.289   7.771   5.239
 8208WAT     H224867   1.399   7.812   5.353
 8209WAT      O24868   3.967   0.613   7.534
 8209WAT     H124869   4.033   0.542   7.511
 8209WAT     H224870   3.992   0.699   7.489
 8210WAT      O24871   8.002   1.749   9.434
 8210WAT     H124872   8.059   1.804   9.495
 8210WAT     H224873   7.935   1.807   9.389
 8211WAT      O24874   3.699   3.120   2.213
 8211WAT     H124875   3.655   3.184   2.276
 8211WAT     H224876   3.743   3.171   2.139
 8212WAT      O24877   3.187   8.469   9.448
 8212WAT     H124878   3.204   8.381   9.403
 8212WAT     H224879   3.216   8.464   9.544
 8213WAT      O24880   0.339   1.886   9.792
 8213WAT     H124881   0.264   1.948   9.770
 8213WAT     H224882   0.343   1.871   9.891
 8214WAT      O24883   7.399   6.491   6.504
 8214WAT     H124884   7.323   6.438   6.466
 8214WAT     H224885   7.462   6.429   6.551
 8215WAT      O24886   9.270   2.767   9.735
 8215WAT     H124887   9.348   2.735   9.789
 8215WAT     H224888   9.185   2.752   9.786
 8216WAT      O24889   2.077   7.287   9.776
 8216WAT     H124890   2.055   7.287   9.873
 8216WAT     H224891   2.030   7.364   9.732
 8217WAT      O24892   0.661   7.781   4.167
 8217WAT     H124893   0.642   7.841   4.245
 8217WAT     H224894   0.648   7.831   4.082
 8218WAT      O24895   4.368   6.102   1.802
 8218WAT     H124896   4.321   6.176   1.754
 8218WAT     H224897   4.331   6.093   1.894
 8219WAT      O24898   6.916   5.962   6.330
 8219WAT     H124899   7.010   5.972   6.360
 8219WAT     H224900   6.912   5.897   6.254
 8220WAT      O24901   9.223   0.841   2.070
 8220WAT     H124902   9.219   0.759   2.014
 8220WAT     H224903   9.224   0.816   2.167
 8221WAT      O24904   0.845   6.019   2.615
 8221WAT     H124905   0.876   5.929   2.647
 8221WAT     H224906   0.905   6.090   2.650
 8222WAT      O24907   8.963   3.218   5.240
 8222WAT     H124908   8.926   3.125   5.231
 8222WAT     H224909   8.951   3.268   5.155
 8223WAT      O24910   5.199   9.505   7.642
 8223WAT     H124911   5.151   9.443   7.580
 8223WAT     H224912   5.181   9.478   7.736
 8224WAT      O24913   1.365   1.073   0.358
 8224WAT     H124914   1.464   1.063   0.345
 8224WAT     H224915   1.330   1.143   0.295
 8225WAT      O24916   5.188   0.465   1.383
 8225WAT     H124917   5.189   0.417   1.295
 8225WAT     H224918   5.274   0.514   1.395
 8226WAT      O24919   4.270   5.664   7.426
 8226WAT     H124920   4.214   5.592   7.386
 8226WAT     H224921   4.348   5.683   7.367
 8227WAT      O24922   1.838   8.093   5.952
 8227WAT     H124923   1.834   8.182   5.997
 8227WAT     H224924   1.786   8.026   6.004
 8228WAT      O24925   0.268   7.116   0.132
 8228WAT     H124926   0.217   7.055   0.192
 8228WAT     H224927   0.330   7.062   0.075
 8229WAT      O24928   6.109   1.221   9.718
 8229WAT     H124929   6.049   1.189   9.791
 8229WAT     H224930   6.194   1.256   9.758
 8230WAT      O24931   8.688   9.700   0.380
 8230WAT     H124932   8.663   9.649   0.297
 8230WAT     H224933   8.623   9.775   0.393
 8231WAT      O24934   0.704   0.307   8.162
 8231WAT     H124935   0.695   0.273   8.068
 8231WAT     H224936   0.774   0.253   8.209
 8232WAT      O24937   5.559   6.850   4.359
 8232WAT     H124938   5.468   6.827   4.326
 8232WAT     H224939   5.557   6.861   4.458
 8233WAT      O24940   6.251   4.840   8.064
 8233WAT     H124941   6.176   4.899   8.090
 8233WAT     H224942   6.333   4.864   8.115
 8234WAT      O24943   9.401   0.895   4.243
 8234WAT     H124944   9.357   0.982   4.219
 8234WAT     H224945   9.336   0.839   4.296
 8235WAT      O24946   0.304   3.845   8.323
 8235WAT     H124947   0.303   3.880   8.417
 8235WAT     H224948   0.230   3.888   8.271
 8236WAT      O24949   3.569   6.112   7.582
 8236WAT     H124950   3.588   6.179   7.511
 8236WAT     H224951   3.574   6.156   7.672
 8237WAT      O24952   6.811   2.372   0.733
 8237WAT     H124953   6.760   2.458   0.746
 8237WAT     H224954   6.905   2.384   0.765
 8238WAT      O24955   0.319   7.742   9.471
 8238WAT     H124956   0.404   7.777   9.510
 8238WAT     H224957   0.285   7.666   9.527
 8239WAT      O24958   7.313   1.396   1.435
 8239WAT     H124959   7.262   1.477   1.407
 8239WAT     H224960   7.406   1.401   1.398
 8240WAT      O24961   5.981   7.002   0.596
 8240WAT     H124962   6.046   6.952   0.540
 8240WAT     H224963   6.015   7.008   0.690
 8241WAT      O24964   8.973   5.893   4.443
 8241WAT     H124965   8.913   5.825   4.485
 8241WAT     H224966   9.062   5.892   4.488
 8242WAT      O24967   6.489   3.726   7.771
 8242WAT     H124968   6.469   3.661   7.697
 8242WAT     H224969   6.491   3.819   7.734
 8243WAT      O24970   2.931   0.470   7.212
 8243WAT     H124971   2.835   0.464   7.239
 8243WAT     H224972   2.938   0.515   7.123
 8244WAT      O24973   0.895   1.127   9.714
 8244WAT     H124974   0.957   1.082   9.779
 8244WAT     H224975   0.941   1.206   9.673
 8245WAT      O24976   0.285   2.649   4.485
 8245WAT     H124977   0.319   2.563   4.521
 8245WAT     H224978   0.194   2.636   4.447
 8246WAT      O24979   3.755   5.998   4.067
 8246WAT     H124980   3.767   6.002   4.166
 8246WAT     H224981   3.670   6.044   4.042
 8247WAT      O24982   7.179   1.515   2.413
 8247WAT     H124983   7.123   1.593   2.386
 8247WAT     H224984   7.270   1.546   2.437
 8248WAT      O24985   3.111   0.389   8.885
 8248WAT     H124986   3.071   0.336   8.960
 8248WAT     H224987   3.114   0.333   8.803
 8249WAT      O24988   5.433   0.774   3.946
 8249WAT     H124989   5.411   0.721   3.864
 8249WAT     H224990   5.499   0.845   3.922
 8250WAT      O24991   4.842   7.505   4.960
 8250WAT     H124992   4.767   7.529   4.898
 8250WAT     H224993   4.929   7.534   4.921
 8251WAT      O24994   6.827   8.204   2.322
 8251WAT     H124995   6.734   8.201   2.284
 8251WAT     H224996   6.837   8.130   2.388
 8252WAT      O24997   9.240   2.794   7.062
 8252WAT     H124998   9.151   2.760   7.092
 8252WAT     H224999   9.309   2.773   7.133
 8253WAT      O25000   9.404   8.448   4.114
 8253WAT     H125001   9.409   8.521   4.046
 8253WAT     H225002   9.416   8.487   4.205
 8254WAT      O25003   7.694   5.959   0.068
 8254WAT     H125004   7.758   5.884   0.050
 8254WAT     H225005   7.715   6.001   0.157
 8255WAT      O25006   4.765   4.586   7.794
 8255WAT     H125007   4.772   4.647   7.715
 8255WAT     H225008   4.855   4.549   7.816
 8256WAT      O25009   8.749   2.823   8.286
 8256WAT     H125010   8.721   2.803   8.380
 8256WAT     H225011   8.722   2.917   8.263
 8257WAT      O25012   7.068   9.802   1.750
 8257WAT     H125013   7.077   9.714   1.703
 8257WAT     H225014   7.153   9.853   1.741
 8258WAT      O25015   7.151   4.922   6.649
 8258WAT     H125016   7.208   4.966   6.718
 8258WAT     H225017   7.166   4.966   6.561
 8259WAT      O25018   2.060   2.172   3.207
 8259WAT     H125019   2.011   2.095   3.248
 8259WAT     H225020   2.138   2.137   3.154
 8260WAT      O25021   6.083   8.177   1.566
 8260WAT     H125022   6.094   8.232   1.649
 8260WAT     H225023   6.164   8.189   1.507
 8261WAT      O25024   6.587   2.454   7.666
 8261WAT     H125025   6.589   2.366   7.620
 8261WAT     H225026   6.614   2.443   7.762
 8262WAT      O25027   7.609   5.866   3.008
 8262WAT     H125028   7.647   5.819   2.929
 8262WAT     H225029   7.596   5.963   2.987
 8263WAT      O25030   5.820   2.059   9.193
 8263WAT     H125031   5.867   2.125   9.251
 8263WAT     H225032   5.824   1.968   9.236
 8264WAT      O25033   6.298   5.632   7.686
 8264WAT     H125034   6.253   5.638   7.776
 8264WAT     H225035   6.250   5.691   7.621
 8265WAT      O25036   5.847   3.336   5.183
 8265WAT     H125037   5.792   3.419   5.192
 8265WAT     H225038   5.882   3.328   5.089
 8266WAT      O25039   3.889   2.603   9.768
 8266WAT     H125040   3.931   2.601   9.677
 8266WAT     H225041   3.808   2.662   9.765
 8267WAT      O25042   4.838   3.012   7.247
 8267WAT     H125043   4.791   3.070   7.314
 8267WAT     H225044   4.897   3.068   7.189
 8268WAT      O25045   4.645   9.397   4.534
 8268WAT     H125046   4.592   9.479   4.556
 8268WAT     H225047   4.670   9.399   4.437
 8269WAT      O25048   4.380   9.731   3.959
 8269WAT     H125049   4.417   9.687   4.041
 8269WAT     H225050   4.287   9.698   3.942
 8270WAT      O25051   4.042   4.888   1.019
 8270WAT     H125052   4.136   4.871   0.987
 8270WAT     H225053   3.983   4.903   0.940
 8271WAT      O25054   1.902   5.436   8.696
 8271WAT     H125055   1.804   5.415   8.705
 8271WAT     H225056   1.920   5.529   8.727
 8272WAT      O25057   8.927   8.553   7.251
 8272WAT     H125058   8.889   8.628   7.198
 8272WAT     H225059   8.903   8.466   7.209
 8273WAT      O25060   1.620   0.312   9.555
 8273WAT     H125061   1.581   0.341   9.642
 8273WAT     H225062   1.659   0.391   9.508
 8274WAT      O25063   1.831   4.163   8.909
 8274WAT     H125064   1.901   4.234   8.916
 8274WAT     H225065   1.740   4.206   8.908
 8275WAT      O25066   8.245   4.147   8.926
 8275WAT     H125067   8.298   4.135   8.842
 8275WAT     H225068   8.190   4.230   8.919
 8276WAT      O25069   0.632   3.034   2.099
 8276WAT     H125070   0.533   3.035   2.114
 8276WAT     H225071   0.661   3.124   2.066
 8277WAT      O25072   9.221   8.304   8.345
 8277WAT     H125073   9.196   8.394   8.380
 8277WAT     H225074   9.243   8.243   8.422
 8278WAT      O25075   5.571   8.926   9.346
 8278WAT     H125076   5.576   8.828   9.366
 8278WAT     H225077   5.488   8.964   9.386
 8279WAT      O25078   4.002   7.318   0.460
 8279WAT     H125079   4.010   7.241   0.522
 8279WAT     H225080   4.093   7.354   0.440
 8280WAT      O25081   0.650   7.927   3.938
 8280WAT     H125082   0.637   7.900   3.843
 8280WAT     H225083   0.733   7.982   3.947
 8281WAT      O25084   1.123   6.929   0.618
 8281WAT     H125085   1.193   7.000   0.619
 8281WAT     H225086   1.154   6.851   0.673
 8282WAT      O25087   0.350   5.466   0.993
 8282WAT     H125088   0.413   5.399   1.031
 8282WAT     H225089   0.305   5.516   1.067
 8283WAT      O25090   8.151   5.003   4.943
 8283WAT     H125091   8.139   4.904   4.930
 8283WAT     H225092   8.062   5.046   4.953
 8284WAT      O25093   3.326   4.489   5.941
 8284WAT     H125094   3.279   4.417   5.890
 8284WAT     H225095   3.338   4.460   6.036
 8285WAT      O25096   6.340   9.668   8.399
 8285WAT     H125097   6.299   9.578   8.386
 8285WAT     H225098   6.417   9.679   8.336
 8286WAT      O25099   7.374   9.809   4.443
 8286WAT     H125100   7.359   9.767   4.532
 8286WAT     H225101   7.472   9.820   4.427
 8287WAT      O25102   0.038   8.958   2.370
 8287WAT     H125103   0.010   9.051   2.393
 8287WAT     H225104   0.132   8.943   2.399
 8288WAT      O25105   6.645   3.779   5.544
 8288WAT     H125106   6.671   3.810   5.452
 8288WAT     H225107   6.647   3.679   5.548
 8289WAT      O25108   4.975   6.320   6.179
 8289WAT     H125109   4.986   6.266   6.263
 8289WAT     H225110   4.974   6.417   6.203
 8290WAT      O25111   1.511   4.650   6.613
 8290WAT     H125112   1.545   4.556   6.612
 8290WAT     H225113   1.428   4.657   6.558
 8291WAT      O25114   2.721   5.759   8.238
 8291WAT     H125115   2.671   5.788   8.156
 8291WAT     H225116   2.728   5.836   8.301
 8292WAT      O25117   8.321   3.379   8.961
 8292WAT     H125118   8.419   3.372   8.980
 8292WAT     H225119   8.278   3.289   8.969
 8293WAT      O25120   3.384   7.220   7.427
 8293WAT     H125121   3.311   7.281   7.397
 8293WAT     H225122   3.463   7.230   7.366
 8294WAT      O25123   8.179   7.611   4.602
 8294WAT     H125124   8.085   7.604   4.635
 8294WAT     H225125   8.197   7.539   4.535
 8295WAT      O25126   4.514   7.007   5.113
 8295WAT     H125127   4.431   7.059   5.089
 8295WAT     H225128   4.593   7.051   5.072
 8296WAT      O25129   7.963   0.386   4.586
 8296WAT     H125130   8.047   0.360   4.538
 8296WAT     H225131   7.983   0.464   4.646
 8297WAT      O25132   3.358   8.692   9.095
 8297WAT     H125133   3.267   8.669   9.129
 8297WAT     H225134   3.361   8.789   9.071
 8298WAT      O25135   7.557   4.540   6.257
 8298WAT     H125136   7.628   4.503   6.317
 8298WAT     H225137   7.497   4.467   6.225
 8299WAT      O25138   4.013   6.759   2.229
 8299WAT     H125139   4.031   6.684   2.294
 8299WAT     H225140   4.093   6.772   2.170
 8300WAT      O25141   0.479   2.116   8.803
 8300WAT     H125142   0.421   2.039   8.776
 8300WAT     H225143   0.542   2.087   8.875
 8301WAT      O25144   8.426   4.288   0.059
 8301WAT     H125145   8.389   4.223   0.124
 8301WAT     H225146   8.369   4.370   0.055
 8302WAT      O25147   3.938   0.369   4.032
 8302WAT     H125148   3.863   0.314   4.067
 8302WAT     H225149   3.966   0.436   4.102
 8303WAT      O25150   4.204   5.454   7.249
 8303WAT     H125151   4.277   5.405   7.201
 8303WAT     H225152   4.118   5.404   7.238
 8304WAT      O25153   5.075   6.369   4.400
 8304WAT     H125154   5.077   6.289   4.460
 8304WAT     H225155   4.994   6.365   4.341
 8305WAT      O25156   7.115   5.182   0.477
 8305WAT     H125157   7.147   5.089   0.457
 8305WAT     H225158   7.092   5.189   0.574
 8306WAT      O25159   7.842   9.425   7.568
 8306WAT     H125160   7.758   9.469   7.600
 8306WAT     H225161   7.918   9.491   7.573
 8307WAT      O25162   4.465   8.945   3.839
 8307WAT     H125163   4.523   9.025   3.825
 8307WAT     H225164   4.412   8.956   3.923
 8308WAT      O25165   9.304   4.218   4.523
 8308WAT     H125166   9.334   4.259   4.609
 8308WAT     H225167   9.236   4.278   4.480
 8309WAT      O25168   4.357   6.986   7.248
 8309WAT     H125169   4.434   7.033   7.203
 8309WAT     H225170   4.373   6.888   7.247
 8310WAT      O25171   1.615   0.458   1.980
 8310WAT     H125172   1.576   0.380   1.930
 8310WAT     H225173   1.587   0.453   2.076
 8311WAT      O25174   5.642   4.476   9.442
 8311WAT     H125175   5.688   4.531   9.372
 8311WAT     H225176   5.703   4.402   9.471
 8312WAT      O25177   6.461   2.461   3.956
 8312WAT     H125178   6.404   2.495   3.882
 8312WAT     H225179   6.412   2.469   4.043
 8313WAT      O25180   4.909   3.050   5.733
 8313WAT     H125181   4.961   3.027   5.652
 8313WAT     H225182   4.844   3.123   5.712
 8314WAT      O25183   0.978   1.846   4.203
 8314WAT     H125184   1.007   1.750   4.202
 8314WAT     H225185   1.054   1.904   4.174
 8315WAT      O25186   8.558   8.634   8.431
 8315WAT     H125187   8.639   8.649   8.489
 8315WAT     H225188   8.567   8.687   8.347
 8316WAT      O25189   7.089   9.557   5.842
 8316WAT     H125190   7.051   9.564   5.934
 8316WAT     H225191   7.100   9.461   5.817
 8317WAT      O25192   4.327   7.861   6.720
 8317WAT     H125193   4.372   7.948   6.704
 8317WAT     H225194   4.240   7.859   6.669
 8318WAT      O25195   3.440   5.032   6.391
 8318WAT     H125196   3.495   4.984   6.322
 8318WAT     H225197   3.415   4.968   6.464
 8319WAT      O25198   7.838   5.663   0.815
 8319WAT     H125199   7.766   5.639   0.750
 8319WAT     H225200   7.832   5.603   0.895
 8320WAT      O25201   4.169   1.781   1.846
 8320WAT     H125202   4.176   1.724   1.764
 8320WAT     H225203   4.162   1.877   1.820
 8321WAT      O25204   2.065   8.402   8.938
 8321WAT     H125205   2.120   8.480   8.967
 8321WAT     H225206   2.047   8.408   8.840
 8322WAT      O25207   9.658   7.769   1.744
 8322WAT     H125208   9.757   7.778   1.737
 8322WAT     H225209   9.630   7.677   1.717
 8323WAT      O25210   6.597   8.019   0.338
 8323WAT     H125211   6.570   8.053   0.428
 8323WAT     H225212   6.557   8.078   0.267
 8324WAT      O25213   2.663   4.946   1.288
 8324WAT     H125214   2.576   4.898   1.275
 8324WAT     H225215   2.676   5.011   1.213
 8325WAT      O25216   4.493   5.415   5.035
 8325WAT     H125217   4.590   5.419   5.062
 8325WAT     H225218   4.485   5.369   4.946
 8326WAT      O25219   9.080   5.365   0.715
 8326WAT     H125220   9.111   5.387   0.622
 8326WAT     H225221   9.157   5.334   0.770
 8327WAT      O25222   7.176   6.837   7.008
 8327WAT     H125223   7.236   6.891   6.948
 8327WAT     H225224   7.145   6.756   6.959
 8328WAT      O25225   6.316   9.289   3.843
 8328WAT     H125226   6.309   9.339   3.930
 8328WAT     H225227   6.232   9.237   3.828
 8329WAT      O25228   0.242   6.837   9.045
 8329WAT     H125229   0.322   6.799   9.093
 8329WAT     H225230   0.272   6.905   8.979
 8330WAT      O25231   4.105   6.699   2.513
 8330WAT     H125232   4.007   6.679   2.510
 8330WAT     H225233   4.119   6.797   2.500
 8331WAT      O25234   0.389   0.990   1.931
 8331WAT     H125235   0.397   0.901   1.975
 8331WAT     H225236   0.429   1.060   1.990
 8332WAT      O25237   8.517   3.298   2.074
 8332WAT     H125238   8.443   3.231   2.086
 8332WAT     H225239   8.540   3.303   1.977
 8333WAT      O25240   3.384   4.306   9.759
 8333WAT     H125241   3.293   4.332   9.727
 8333WAT     H225242   3.379   4.219   9.808
 8334WAT      O25243   6.738   1.136   6.728
 8334WAT     H125244   6.641   1.118   6.746
 8334WAT     H225245   6.789   1.050   6.732
 8335WAT      O25246   2.668   8.631   5.609
 8335WAT     H125247   2.750   8.682   5.584
 8335WAT     H225248   2.695   8.542   5.648
 8336WAT      O25249   9.503   1.792   5.854
 8336WAT     H125250   9.577   1.831   5.799
 8336WAT     H225251   9.539   1.761   5.942
 8337WAT      O25252   7.433   2.972   7.066
 8337WAT     H125253   7.383   2.947   6.984
 8337WAT     H225254   7.482   2.892   7.101
 8338WAT      O25255   9.104   8.100   1.355
 8338WAT     H125256   9.146   8.034   1.293
 8338WAT     H225257   9.140   8.087   1.447
 8339WAT      O25258   0.621   3.797   2.076
 8339WAT     H125259   0.616   3.896   2.070
 8339WAT     H225260   0.538   3.757   2.039
 8340WAT      O25261   4.026   7.866   7.746
 8340WAT     H125262   4.091   7.791   7.741
 8340WAT     H225263   3.933   7.829   7.754
 8341WAT      O25264   9.666   1.664   8.036
 8341WAT     H125265   9.596   1.687   8.103
 8341WAT     H225266   9.740   1.731   8.041
 8342WAT      O25267   5.848   7.116   3.319
 8342WAT     H125268   5.859   7.215   3.310
 8342WAT     H225269   5.760   7.089   3.279
 8343WAT      O25270   1.552   2.015   1.946
 8343WAT     H125271   1.647   2.046   1.944
 8343WAT     H225272   1.509   2.045   2.031
 8344WAT      O25273   2.965   6.410   1.310
 8344WAT     H125274   3.010   6.321   1.323
 8344WAT     H225275   2.910   6.408   1.227
 8345WAT      O25276   1.603   9.602   7.729
 8345WAT     H125277   1.628   9.508   7.752
 8345WAT     H225278   1.678   9.644   7.678
 8346WAT      O25279   0.334   0.915   2.356
 8346WAT     H125280   0.428   0.894   2.327
 8346WAT     H225281   0.331   1.007   2.394
 8347WAT      O25282   3.951   0.472   1.092
 8347WAT     H125283   3.911   0.385   1.062
 8347WAT     H225284   3.883   0.545   1.081
 8348WAT      O25285   1.090   3.644   0.499
 8348WAT     H125286   1.072   3.702   0.578
 8348WAT     H225287   1.126   3.699   0.424
 8349WAT      O25288   9.197   2.726   1.288
 8349WAT     H125289   9.181   2.643   1.234
 8349WAT     H225290   9.268   2.708   1.356
 8350WAT      O25291   9.143   7.221   7.466
 8350WAT     H125292   9.156   7.212   7.565
 8350WAT     H225293   9.110   7.313   7.445
 8351WAT      O25294   2.712   1.385   8.638
 8351WAT     H125295   2.659   1.444   8.698
 8351WAT     H225296   2.732   1.299   8.685
 8352WAT      O25297   7.839   6.502   7.418
 8352WAT     H125298   7.746   6.496   7.382
 8352WAT     H225299   7.904   6.483   7.344
 8353WAT      O25300   8.163   8.082   3.829
 8353WAT     H125301   8.183   8.138   3.749
 8353WAT     H225302   8.205   8.124   3.910
 8354WAT      O25303   9.357   4.187   0.460
 8354WAT     H125304   9.262   4.193   0.429
 8354WAT     H225305   9.362   4.125   0.539
 8355WAT      O25306   6.134   3.845   5.336
 8355WAT     H125307   6.233   3.848   5.350
 8355WAT     H225308   6.112   3.786   5.258
 8356WAT      O25309   7.529   7.694   4.395
 8356WAT     H125310   7.468   7.766   4.427
 8356WAT     H225311   7.623   7.729   4.388
 8357WAT      O25312   8.638   9.217   7.613
 8357WAT     H125313   8.586   9.267   7.682
 8357WAT     H225314   8.691   9.281   7.559
 8358WAT      O25315   7.909   3.031   4.400
 8358WAT     H125316   7.912   3.130   4.382
 8358WAT     H225317   7.998   2.991   4.376
 8359WAT      O25318   0.306   8.262   3.983
 8359WAT     H125319   0.362   8.179   3.973
 8359WAT     H225320   0.273   8.268   4.077
 8360WAT      O25321   8.961   3.338   9.722
 8360WAT     H125322   9.039   3.336   9.785
 8360WAT     H225323   8.957   3.426   9.676
 8361WAT      O25324   5.408   1.333   9.083
 8361WAT     H125325   5.345   1.300   9.013
 8361WAT     H225326   5.477   1.263   9.103
 8362WAT      O25327   3.518   9.147   5.999
 8362WAT     H125328   3.525   9.212   5.924
 8362WAT     H225329   3.536   9.054   5.965
 8363WAT      O25330   1.627   5.577   8.540
 8363WAT     H125331   1.589   5.520   8.467
 8363WAT     H225332   1.644   5.669   8.505
 8364WAT      O25333   3.385   0.878   7.029
 8364WAT     H125334   3.331   0.800   6.998
 8364WAT     H225335   3.415   0.931   6.950
 8365WAT      O25336   2.911   8.654   9.831
 8365WAT     H125337   2.826   8.601   9.828
 8365WAT     H225338   2.966   8.622   9.908
 8366WAT      O25339   7.229   5.860   7.442
 8366WAT     H125340   7.316   5.858   7.394
 8366WAT     H225341   7.186   5.950   7.431
 8367WAT      O25342   5.947   6.390   0.211
 8367WAT     H125343   6.038   6.404   0.250
 8367WAT     H225344   5.879   6.439   0.266
 8368WAT      O25345   9.063   7.478   7.456
 8368WAT     H125346   9.054   7.531   7.372
 8368WAT     H225347   8.982   7.494   7.514
 8369WAT      O25348   5.406   8.301   2.983
 8369WAT     H125349   5.433   8.275   3.076
 8369WAT     H225350   5.442   8.392   2.962
 8370WAT      O25351   5.466   2.178   2.991
 8370WAT     H125352   5.483   2.270   2.955
 8370WAT     H225353   5.464   2.182   3.091
 8371WAT      O25354   4.743   9.193   5.523
 8371WAT     H125355   4.830   9.143   5.520
 8371WAT     H225356   4.759   9.289   5.501
 8372WAT      O25357   1.469   2.880   5.017
 8372WAT     H125358   1.412   2.870   5.099
 8372WAT     H225359   1.488   2.976   5.001
 8373WAT      O25360   2.596   0.870   1.186
 8373WAT     H125361   2.691   0.849   1.209
 8373WAT     H225362   2.569   0.817   1.106
 8374WAT      O25363   4.905   4.751   2.911
 8374WAT     H125364   4.860   4.662   2.922
 8374WAT     H225365   4.890   4.806   2.993
 8375WAT      O25366   9.648   7.198   5.951
 8375WAT     H125367   9.614   7.292   5.956
 8375WAT     H225368   9.620   7.157   5.864
 8376WAT      O25369   9.842   4.240   9.713
 8376WAT     H125370   9.863   4.177   9.788
 8376WAT     H225371   9.842   4.190   9.627
 8377WAT      O25372   9.698   1.211   6.424
 8377WAT     H125373   9.656   1.299   6.402
 8377WAT     H225374   9.634   1.137   6.401
 8378WAT      O25375   4.815   8.296   2.112
 8378WAT     H125376   4.744   8.250   2.058
 8378WAT     H225377   4.776   8.329   2.197
 8379WAT      O25378   2.506   1.537   4.865
 8379WAT     H125379   2.415   1.518   4.827
 8379WAT     H225380   2.574   1.526   4.793
 8380WAT      O25381   2.750   4.856   7.305
 8380WAT     H125382   2.801   4.781   7.263
 8380WAT     H225383   2.654   4.852   7.276
 8381WAT      O25384   2.060   8.209   3.881
 8381WAT     H125385   2.031   8.114   3.884
 8381WAT     H225386   2.159   8.214   3.870
 8382WAT      O25387   0.878   5.510   7.241
 8382WAT     H125388   0.973   5.525   7.269
 8382WAT     H225389   0.849   5.419   7.268
 8383WAT      O25390   1.058   3.148   0.408
 8383WAT     H125391   1.113   3.114   0.332
 8383WAT     H225392   1.098   3.117   0.494
 8384WAT      O25393   4.920   9.090   4.312
 8384WAT     H125394   4.890   9.064   4.220
 8384WAT     H225395   4.868   9.039   4.380
 8385WAT      O25396   0.079   3.110   5.881
 8385WAT     H125397   0.072   3.165   5.964
 8385WAT     H225398   0.091   3.171   5.802
 8386WAT      O25399   5.512   1.713   2.519
 8386WAT     H125400   5.497   1.614   2.523
 8386WAT     H225401   5.427   1.760   2.543
 8387WAT      O25402   1.218   7.674   1.218
 8387WAT     H125403   1.149   7.636   1.281
 8387WAT     H225404   1.211   7.627   1.130
 8388WAT      O25405   8.102   5.160   5.278
 8388WAT     H125406   8.066   5.116   5.360
 8388WAT     H225407   8.079   5.106   5.197
 8389WAT      O25408   0.218   0.452   5.473
 8389WAT     H125409   0.197   0.419   5.381
 8389WAT     H225410   0.268   0.538   5.468
 8390WAT      O25411   4.237   6.426   7.589
 8390WAT     H125412   4.327   6.456   7.558
 8390WAT     H225413   4.217   6.336   7.551
 8391WAT      O25414   5.306   6.600   9.107
 8391WAT     H125415   5.252   6.683   9.119
 8391WAT     H225416   5.369   6.590   9.184
 8392WAT      O25417   2.706   5.072   6.768
 8392WAT     H125418   2.673   5.126   6.845
 8392WAT     H225419   2.631   5.059   6.702
 8393WAT      O25420   9.189   2.777   9.046
 8393WAT     H125421   9.094   2.761   9.069
 8393WAT     H225422   9.232   2.834   9.116
 8394WAT      O25423   2.721   6.465   0.577
 8394WAT     H125424   2.805   6.512   0.602
 8394WAT     H225425   2.642   6.520   0.605
 8395WAT      O25426   6.007   4.162   7.831
 8395WAT     H125427   6.018   4.202   7.923
 8395WAT     H225428   5.933   4.095   7.832
 8396WAT      O25429   0.551   7.298   5.619
 8396WAT     H125430   0.599   7.277   5.534
 8396WAT     H225431   0.605   7.363   5.673
 8397WAT      O25432   7.992   0.291   1.284
 8397WAT     H125433   8.017   0.315   1.191
 8397WAT     H225434   8.074   0.275   1.338
 8398WAT      O25435   2.264   8.425   3.527
 8398WAT     H125436   2.267   8.517   3.488
 8398WAT     H225437   2.168   8.396   3.535
 8399WAT      O25438   5.728   6.875   4.136
 8399WAT     H125439   5.665   6.851   4.210
 8399WAT     H225440   5.704   6.966   4.100
 8400WAT      O25441   5.134   0.816   0.229
 8400WAT     H125442   5.072   0.746   0.265
 8400WAT     H225443   5.093   0.906   0.239
 8401WAT      O25444   7.748   0.913   5.610
 8401WAT     H125445   7.688   0.835   5.593
 8401WAT     H225446   7.725   0.988   5.548
 8402WAT      O25447   2.709   8.704   4.264
 8402WAT     H125448   2.717   8.756   4.178
 8402WAT     H225449   2.647   8.627   4.250
 8403WAT      O25450   5.811   4.962   6.062
 8403WAT     H125451   5.756   4.950   6.145
 8403WAT     H225452   5.750   4.977   5.984
 8404WAT      O25453   7.682   6.651   9.268
 8404WAT     H125454   7.707   6.607   9.182
 8404WAT     H225455   7.592   6.619   9.297
 8405WAT      O25456   8.440   9.713   9.626
 8405WAT     H125457   8.438   9.634   9.564
 8405WAT     H225458   8.362   9.772   9.606
 8406WAT      O25459   2.312   1.957   7.120
 8406WAT     H125460   2.270   2.036   7.075
 8406WAT     H225461   2.249   1.879   7.116
 8407WAT      O25462   6.903   5.010   6.975
 8407WAT     H125463   6.810   4.979   6.957
 8407WAT     H225464   6.908   5.048   7.067
 8408WAT      O25465   5.840   4.266   1.941
 8408WAT     H125466   5.754   4.228   1.907
 8408WAT     H225467   5.830   4.365   1.954
 8409WAT      O25468   0.643   6.074   8.680
 8409WAT     H125469   0.679   6.150   8.735
 8409WAT     H225470   0.653   5.989   8.730
 8410WAT      O25471   1.089   1.996   0.411
 8410WAT     H125472   1.077   1.950   0.499
 8410WAT     H225473   1.138   2.082   0.424
 8411WAT      O25474   8.697   5.993   1.761
 8411WAT     H125475   8.761   5.933   1.808
 8411WAT     H225476   8.604   5.970   1.788
 8412WAT      O25477   4.216   3.271   9.677
 8412WAT     H125478   4.291   3.267   9.742
 8412WAT     H225479   4.245   3.320   9.595
 8413WAT      O25480   0.588   0.294   3.069
 8413WAT     H125481   0.530   0.213   3.071
 8413WAT     H225482   0.669   0.276   3.013
 8414WAT      O25483   6.593   7.597   2.543
 8414WAT     H125484   6.637   7.634   2.625
 8414WAT     H225485   6.506   7.555   2.568
 8415WAT      O25486   4.984   7.020   1.075
 8415WAT     H125487   5.035   7.013   0.989
 8415WAT     H225488   4.909   7.086   1.064
 8416WAT      O25489   2.771   7.244   2.889
 8416WAT     H125490   2.779   7.264   2.987
 8416WAT     H225491   2.727   7.321   2.843
 8417WAT      O25492   2.598   7.034   8.247
 8417WAT     H125493   2.638   7.105   8.305
 8417WAT     H225494   2.612   7.058   8.151
 8418WAT      O25495   3.088   3.495   1.076
 8418WAT     H125496   3.143   3.555   1.017
 8418WAT     H225497   3.126   3.496   1.169
 8419WAT      O25498   1.703   3.085   2.722
 8419WAT     H125499   1.604   3.098   2.725
 8419WAT     H225500   1.743   3.108   2.810
 8420WAT      O25501   0.141   0.040   5.949
 8420WAT     H125502   0.138   0.055   5.850
 8420WAT     H225503   0.125  -0.056   5.969
 8421WAT      O25504   9.740   7.014   6.733
 8421WAT     H125505   9.827   7.063   6.738
 8421WAT     H225506   9.680   7.045   6.807
 8422WAT      O25507   3.545   3.007   7.232
 8422WAT     H125508   3.456   2.965   7.252
 8422WAT     H225509   3.545   3.045   7.140
 8423WAT      O25510   1.189   6.373   0.830
 8423WAT     H125511   1.119   6.432   0.871
 8423WAT     H225512   1.229   6.419   0.750
 8424WAT      O25513   7.584   5.501   6.371
 8424WAT     H125514   7.555   5.487   6.277
 8424WAT     H225515   7.515   5.462   6.433
 8425WAT      O25516   7.274   1.000   1.457
 8425WAT     H125517   7.300   0.946   1.537
 8425WAT     H225518   7.356   1.021   1.404
 8426WAT      O25519   7.361   3.525   5.031
 8426WAT     H125520   7.262   3.524   5.016
 8426WAT     H225521   7.398   3.614   5.004
 8427WAT      O25522   3.964   2.532   2.367
 8427WAT     H125523   3.941   2.541   2.270
 8427WAT     H225524   3.938   2.615   2.416
 8428WAT      O25525   6.519   4.584   6.348
 8428WAT     H125526   6.561   4.652   6.287
 8428WAT     H225527   6.573   4.578   6.432
 8429WAT      O25528   3.395   1.126   3.604
 8429WAT     H125529   3.375   1.041   3.557
 8429WAT     H225530   3.373   1.204   3.545
 8430WAT      O25531   5.186   9.564   0.882
 8430WAT     H125532   5.146   9.528   0.798
 8430WAT     H225533   5.202   9.663   0.872
 8431WAT      O25534   9.759   7.582   7.077
 8431WAT     H125535   9.694   7.553   7.148
 8431WAT     H225536   9.834   7.634   7.120
 8432WAT      O25537   6.757   9.537   8.839
 8432WAT     H125538   6.837   9.476   8.843
 8432WAT     H225539   6.784   9.623   8.795
 8433WAT      O25540   0.873   8.076   7.847
 8433WAT     H125541   0.834   8.150   7.902
 8433WAT     H225542   0.831   7.989   7.874
 8434WAT      O25543   1.713   6.634   1.153
 8434WAT     H125544   1.812   6.625   1.141
 8434WAT     H225545   1.672   6.543   1.157
 8435WAT      O25546   9.732   6.110   7.206
 8435WAT     H125547   9.654   6.167   7.232
 8435WAT     H225548   9.703   6.045   7.135
 8436WAT      O25549   4.133   4.707   3.877
 8436WAT     H125550   4.049   4.653   3.878
 8436WAT     H225551   4.120   4.787   3.819
 8437WAT      O25552   5.426   4.021   9.281
 8437WAT     H125553   5.466   3.985   9.197
 8437WAT     H225554   5.334   4.055   9.262
 8438WAT      O25555   5.641   6.808   0.627
 8438WAT     H125556   5.666   6.885   0.686
 8438WAT     H225557   5.546   6.783   0.644
 8439WAT      O25558   2.638   5.709   7.578
 8439WAT     H125559   2.691   5.644   7.524
 8439WAT     H225560   2.677   5.800   7.568
 8440WAT      O25561   1.988   0.282   0.568
 8440WAT     H125562   1.938   0.337   0.634
 8440WAT     H225563   1.933   0.269   0.486
 8441WAT      O25564   0.025   0.246   0.439
 8441WAT     H125565   0.029   0.324   0.502
 8441WAT     H225566  -0.057   0.192   0.457
 8442WAT      O25567   1.181   7.770   6.633
 8442WAT     H125568   1.217   7.695   6.688
 8442WAT     H225569   1.112   7.735   6.570
 8443WAT      O25570   8.814   4.916   2.553
 8443WAT     H125571   8.816   4.868   2.641
 8443WAT     H225572   8.903   4.909   2.509
 8444WAT      O25573   3.455   9.732   8.585
 8444WAT     H125574   3.393   9.803   8.553
 8444WAT     H225575   3.447   9.725   8.685
 8445WAT      O25576   6.610   4.605   7.524
 8445WAT     H125577   6.685   4.661   7.488
 8445WAT     H225578   6.647   4.521   7.565
 8446WAT      O25579   2.112   0.798   3.264
 8446WAT     H125580   2.050   0.728   3.298
 8446WAT     H225581   2.060   0.869   3.218
 8447WAT      O25582   3.511   8.381   8.469
 8447WAT     H125583   3.440   8.328   8.515
 8447WAT     H225584   3.596   8.376   8.521
 8448WAT      O25585   3.502   5.379   2.122
 8448WAT     H125586   3.545   5.297   2.160
 8448WAT     H225587   3.438   5.353   2.049
 8449WAT      O25588   9.005   2.178   9.689
 8449WAT     H125589   9.037   2.263   9.647
 8449WAT     H225590   8.951   2.199   9.770
 8450WAT      O25591   5.545   4.775   0.279
 8450WAT     H125592   5.620   4.787   0.215
 8450WAT     H225593   5.582   4.754   0.370
 8451WAT      O25594   6.114   8.551   2.322
 8451WAT     H125595   6.121   8.555   2.222
 8451WAT     H225596   6.090   8.641   2.358
 8452WAT      O25597   1.657   1.035   1.656
 8452WAT     H125598   1.726   0.963   1.647
 8452WAT     H225599   1.672   1.086   1.741
 8453WAT      O25600   6.264   5.485   6.823
 8453WAT     H125601   6.274   5.582   6.846
 8453WAT     H225602   6.223   5.437   6.901
 8454WAT      O25603   5.304   1.339   4.230
 8454WAT     H125604   5.404   1.341   4.235
 8454WAT     H225605   5.273   1.407   4.164
 8455WAT      O25606   8.868   1.693   8.418
 8455WAT     H125607   8.799   1.643   8.470
 8455WAT     H225608   8.831   1.717   8.328
 8456WAT      O25609   5.309   6.536   4.474
 8456WAT     H125610   5.266   6.466   4.417
 8456WAT     H225611   5.408   6.535   4.460
 8457WAT      O25612   3.029   7.539   3.061
 8457WAT     H125613   3.090   7.600   3.010
 8457WAT     H225614   3.076   7.504   3.142
 8458WAT      O25615   4.987   8.649   2.874
 8458WAT     H125616   5.018   8.567   2.825
 8458WAT     H225617   4.935   8.621   2.955
 8459WAT      O25618   4.380   9.588   5.800
 8459WAT     H125619   4.359   9.560   5.707
 8459WAT     H225620   4.301   9.569   5.859
 8460WAT      O25621   0.328   3.596   2.458
 8460WAT     H125622   0.343   3.518   2.397
 8460WAT     H225623   0.377   3.676   2.422
 8461WAT      O25624   0.914   7.540   6.225
 8461WAT     H125625   0.992   7.591   6.188
 8461WAT     H225626   0.929   7.442   6.213
 8462WAT      O25627   7.711   7.522   0.346
 8462WAT     H125628   7.718   7.437   0.397
 8462WAT     H225629   7.795   7.535   0.292
 8463WAT      O25630   2.001   0.511   1.575
 8463WAT     H125631   1.991   0.416   1.604
 8463WAT     H225632   1.923   0.536   1.517
 8464WAT      O25633   9.651   6.610   8.161
 8464WAT     H125634   9.623   6.527   8.208
 8464WAT     H225635   9.695   6.587   8.074
 8465WAT      O25636   1.579   7.991   8.526
 8465WAT     H125637   1.666   7.971   8.479
 8465WAT     H225638   1.555   8.087   8.509
 8466WAT      O25639   4.197   8.685   8.035
 8466WAT     H125640   4.157   8.739   8.110
 8466WAT     H225641   4.236   8.747   7.967
 8467WAT      O25642   7.090   5.421   8.797
 8467WAT     H125643   7.080   5.354   8.724
 8467WAT     H225644   7.103   5.374   8.885
 8468WAT      O25645   0.123   4.806   6.348
 8468WAT     H125646   0.210   4.764   6.373
 8468WAT     H225647   0.059   4.799   6.425
 8469WAT      O25648   5.193   0.131   9.445
 8469WAT     H125649   5.187   0.075   9.362
 8469WAT     H225650   5.107   0.124   9.495
 8470WAT      O25651   5.370   0.569   4.116
 8470WAT     H125652   5.298   0.501   4.101
 8470WAT     H225653   5.377   0.628   4.035
 8471WAT      O25654   4.876   0.148   9.445
 8471WAT     H125655   4.840   0.065   9.402
 8471WAT     H225656   4.820   0.172   9.524
 8472WAT      O25657   1.706   2.348   1.509
 8472WAT     H125658   1.719   2.305   1.419
 8472WAT     H225659   1.794   2.376   1.546
 8473WAT      O25660   7.090   1.937   0.679
 8473WAT     H125661   7.020   2.008   0.681
 8473WAT     H225662   7.179   1.977   0.700
 8474WAT      O25663   2.046   7.308   7.795
 8474WAT     H125664   1.954   7.344   7.778
 8474WAT     H225665   2.097   7.305   7.710
 8475WAT      O25666   1.780   5.051   9.392
 8475WAT     H125667   1.790   5.150   9.382
 8475WAT     H225668   1.843   5.018   9.463
 8476WAT      O25669   3.848   1.719   8.893
 8476WAT     H125670   3.807   1.652   8.832
 8476WAT     H225671   3.947   1.722   8.879
 8477WAT      O25672   6.307   4.733   2.634
 8477WAT     H125673   6.290   4.786   2.717
 8477WAT     H225674   6.325   4.638   2.658
 8478WAT      O25675   3.805   1.842   6.487
 8478WAT     H125676   3.730   1.828   6.552
 8478WAT     H225677   3.768   1.871   6.399
 8479WAT      O25678   2.374   5.775   0.973
 8479WAT     H125679   2.276   5.756   0.976
 8479WAT     H225680   2.416   5.749   1.060
 8480WAT      O25681   1.749   7.787   1.732
 8480WAT     H125682   1.739   7.758   1.637
 8480WAT     H225683   1.733   7.885   1.739
 8481WAT      O25684   0.652   5.688   8.574
 8481WAT     H125685   0.693   5.644   8.494
 8481WAT     H225686   0.723   5.737   8.625
 8482WAT      O25687   7.723   4.798   1.069
 8482WAT     H125688   7.694   4.724   1.129
 8482WAT     H225689   7.823   4.805   1.071
 8483WAT      O25690   9.530   5.066   7.712
 8483WAT     H125691   9.440   5.085   7.750
 8483WAT     H225692   9.561   4.976   7.743
 8484WAT      O25693   3.282   6.585   4.699
 8484WAT     H125694   3.189   6.604   4.730
 8484WAT     H225695   3.292   6.614   4.604
 8485WAT      O25696   9.132   5.254   2.736
 8485WAT     H125697   9.128   5.154   2.740
 8485WAT     H225698   9.151   5.283   2.642
 8486WAT      O25699   1.306   1.368   2.193
 8486WAT     H125700   1.344   1.428   2.122
 8486WAT     H225701   1.380   1.333   2.250
 8487WAT      O25702   2.091   1.897   1.514
 8487WAT     H125703   2.042   1.853   1.439
 8487WAT     H225704   2.187   1.871   1.511
 8488WAT      O25705   9.458   6.048   0.633
 8488WAT     H125706   9.434   6.049   0.536
 8488WAT     H225707   9.539   6.104   0.648
 8489WAT      O25708   2.253   1.202   9.799
 8489WAT     H125709   2.343   1.244   9.806
 8489WAT     H225710   2.190   1.248   9.862
 8490WAT      O25711   7.069   4.832   2.317
 8490WAT     H125712   7.118   4.909   2.358
 8490WAT     H225713   7.004   4.795   2.383
 8491WAT      O25714   1.631   7.021   2.046
 8491WAT     H125715   1.666   6.928   2.035
 8491WAT     H225716   1.556   7.035   1.981
 8492WAT      O25717   6.163   1.836   2.006
 8492WAT     H125718   6.150   1.863   1.911
 8492WAT     H225719   6.132   1.742   2.019
 8493WAT      O25720   0.389   5.010   3.361
 8493WAT     H125721   0.357   4.984   3.452
 8493WAT     H225722   0.327   5.080   3.323
 8494WAT      O25723   0.021   4.129   0.258
 8494WAT     H125724  -0.060   4.084   0.297
 8494WAT     H225725   0.035   4.217   0.304
 8495WAT      O25726   8.214   2.380   2.371
 8495WAT     H125727   8.263   2.402   2.455
 8495WAT     H225728   8.124   2.424   2.372
 8496WAT      O25729   1.620   9.095   2.300
 8496WAT     H125730   1.522   9.119   2.298
 8496WAT     H225731   1.673   9.174   2.269
 8497WAT      O25732   7.009   6.267   2.012
 8497WAT     H125733   7.008   6.320   2.097
 8497WAT     H225734   7.073   6.309   1.948
 8498WAT      O25735   0.593   1.227   2.712
 8498WAT     H125736   0.514   1.179   2.748
 8498WAT     H225737   0.659   1.160   2.677
 8499WAT      O25738   1.193   7.111   9.631
 8499WAT     H125739   1.159   7.185   9.573
 8499WAT     H225740   1.143   7.026   9.609
 8500WAT      O25741   0.787   3.112   6.433
 8500WAT     H125742   0.692   3.084   6.417
 8500WAT     H225743   0.791   3.211   6.445
 8501WAT      O25744   5.701   4.877   0.519
 8501WAT     H125745   5.694   4.965   0.474
 8501WAT     H225746   5.797   4.858   0.541
 8502WAT      O25747   7.282   4.624   7.821
 8502WAT     H125748   7.258   4.526   7.822
 8502WAT     H225749   7.261   4.661   7.730
 8503WAT      O25750   3.814   5.476   4.044
 8503WAT     H125751   3.792   5.380   4.061
 8503WAT     H225752   3.751   5.514   3.977
 8504WAT      O25753   6.762   7.356   2.311
 8504WAT     H125754   6.666   7.332   2.324
 8504WAT     H225755   6.807   7.288   2.253
 8505WAT      O25756   8.014   8.119   5.796
 8505WAT     H125757   7.963   8.036   5.776
 8505WAT     H225758   7.955   8.199   5.782
 8506WAT      O25759   2.877   4.051   9.225
 8506WAT     H125760   2.918   4.112   9.157
 8506WAT     H225761   2.778   4.055   9.218
 8507WAT      O25762   5.766   6.301   5.779
 8507WAT     H125763   5.757   6.210   5.738
 8507WAT     H225764   5.683   6.354   5.760
 8508WAT      O25765   5.979   5.166   6.408
 8508WAT     H125766   5.909   5.100   6.435
 8508WAT     H225767   6.007   5.218   6.489
 8509WAT      O25768   2.974   7.093   4.329
 8509WAT     H125769   3.070   7.118   4.318
 8509WAT     H225770   2.920   7.175   4.347
 8510WAT      O25771   8.164   4.707   4.991
 8510WAT     H125772   8.230   4.707   4.916
 8510WAT     H225773   8.079   4.664   4.961
 8511WAT      O25774   2.195   6.539   7.471
 8511WAT     H125775   2.291   6.513   7.470
 8511WAT     H225776   2.138   6.457   7.463
 8512WAT      O25777   2.112   6.967   8.331
 8512WAT     H125778   2.121   6.989   8.428
 8512WAT     H225779   2.200   6.937   8.295
 8513WAT      O25780   8.638   4.238   6.920
 8513WAT     H125781   8.595   4.324   6.947
 8513WAT     H225782   8.737   4.244   6.935
 8514WAT      O25783   6.461   1.652   1.093
 8514WAT     H125784   6.366   1.669   1.068
 8514WAT     H225785   6.506   1.600   1.021
 8515WAT      O25786   8.502   3.411   4.164
 8515WAT     H125787   8.467   3.475   4.232
 8515WAT     H225788   8.600   3.399   4.175
 8516WAT      O25789   8.924   5.547   5.413
 8516WAT     H125790   9.003   5.547   5.475
 8516WAT     H225791   8.905   5.453   5.384
 8517WAT      O25792   8.364   8.415   3.977
 8517WAT     H125793   8.359   8.486   4.048
 8517WAT     H225794   8.304   8.339   4.002
 8518WAT      O25795   3.764   7.245   8.752
 8518WAT     H125796   3.771   7.149   8.726
 8518WAT     H225797   3.668   7.271   8.758
 8519WAT      O25798   8.186   0.193   4.243
 8519WAT     H125799   8.230   0.107   4.217
 8519WAT     H225800   8.217   0.266   4.182
 8520WAT      O25801   1.746   0.812   8.108
 8520WAT     H125802   1.697   0.735   8.149
 8520WAT     H225803   1.781   0.785   8.018
 8521WAT      O25804   9.765   9.592   1.689
 8521WAT     H125805   9.747   9.645   1.772
 8521WAT     H225806   9.762   9.494   1.711
 8522WAT      O25807   7.895   3.905   5.650
 8522WAT     H125808   7.980   3.956   5.639
 8522WAT     H225809   7.818   3.968   5.637
 8523WAT      O25810   2.642   6.779   8.292
 8523WAT     H125811   2.598   6.756   8.379
 8523WAT     H225812   2.611   6.869   8.262
 8524WAT      O25813   6.625   5.871   1.181
 8524WAT     H125814   6.657   5.807   1.112
 8524WAT     H225815   6.544   5.919   1.147
 8525WAT      O25816   7.882   1.951   3.545
 8525WAT     H125817   7.852   2.046   3.556
 8525WAT     H225818   7.968   1.948   3.495
 8526WAT      O25819   1.464   1.070   8.615
 8526WAT     H125820   1.437   1.163   8.589
 8526WAT     H225821   1.392   1.006   8.589
 8527WAT      O25822   2.160   1.338   7.608
 8527WAT     H125823   2.204   1.280   7.539
 8527WAT     H225824   2.106   1.281   7.669
 8528WAT      O25825   0.773   0.516   5.413
 8528WAT     H125826   0.755   0.429   5.458
 8528WAT     H225827   0.725   0.518   5.325
 8529WAT      O25828   7.358   9.532   2.191
 8529WAT     H125829   7.387   9.436   2.194
 8529WAT     H225830   7.338   9.558   2.097
 8530WAT      O25831   7.354   3.967   6.685
 8530WAT     H125832   7.391   4.008   6.602
 8530WAT     H225833   7.268   4.012   6.708
 8531WAT      O25834   6.362   5.960   1.575
 8531WAT     H125835   6.332   5.865   1.563
 8531WAT     H225836   6.284   6.021   1.560
 8532WAT      O25837   6.219   9.180   7.748
 8532WAT     H125838   6.128   9.139   7.754
 8532WAT     H225839   6.278   9.123   7.691
 8533WAT      O25840   9.519   4.651   1.870
 8533WAT     H125841   9.519   4.577   1.938
 8533WAT     H225842   9.601   4.708   1.884
 8534WAT      O25843   2.670   4.379   0.975
 8534WAT     H125844   2.611   4.420   1.044
 8534WAT     H225845   2.689   4.446   0.903
 8535WAT      O25846   7.847   1.561   4.133
 8535WAT     H125847   7.911   1.496   4.092
 8535WAT     H225848   7.766   1.512   4.164
 8536WAT      O25849   1.737   7.361   1.694
 8536WAT     H125850   1.719   7.447   1.647
 8536WAT     H225851   1.760   7.379   1.790
 8537WAT      O25852   4.719   2.260   3.967
 8537WAT     H125853   4.625   2.284   3.942
 8537WAT     H225854   4.762   2.338   4.012
 8538WAT      O25855   1.254   5.797   3.347
 8538WAT     H125856   1.204   5.757   3.270
 8538WAT     H225857   1.331   5.738   3.372
 8539WAT      O25858   4.995   0.434   4.393
 8539WAT     H125859   5.024   0.426   4.488
 8539WAT     H225860   5.073   0.457   4.336
 8540WAT      O25861   8.531   3.754   8.564
 8540WAT     H125862   8.462   3.796   8.623
 8540WAT     H225863   8.515   3.656   8.558
 8541WAT      O25864   5.521   8.252   4.780
 8541WAT     H125865   5.589   8.194   4.825
 8541WAT     H225866   5.540   8.348   4.802
 8542WAT      O25867   4.957   0.756   3.734
 8542WAT     H125868   4.898   0.835   3.723
 8542WAT     H225869   5.017   0.769   3.814
 8543WAT      O25870   6.018   9.474   0.925
 8543WAT     H125871   5.983   9.554   0.876
 8543WAT     H225872   6.034   9.399   0.860
 8544WAT      O25873   3.690   4.982   3.203
 8544WAT     H125874   3.737   4.894   3.205
 8544WAT     H225875   3.705   5.031   3.289
 8545WAT      O25876   8.205   5.110   2.532
 8545WAT     H125877   8.145   5.031   2.538
 8545WAT     H225878   8.300   5.080   2.541
 8546WAT      O25879   0.202   4.668   7.013
 8546WAT     H125880   0.139   4.597   6.981
 8546WAT     H225881   0.169   4.757   6.982
 8547WAT      O25882   0.178   8.740   8.697
 8547WAT     H125883   0.238   8.660   8.688
 8547WAT     H225884   0.148   8.770   8.606
 8548WAT      O25885   2.361   1.265   4.309
 8548WAT     H125886   2.431   1.258   4.380
 8548WAT     H225887   2.405   1.285   4.221
 8549WAT      O25888   5.986   2.736   2.767
 8549WAT     H125889   6.080   2.716   2.796
 8549WAT     H225890   5.980   2.728   2.667
 8550WAT      O25891   0.370   8.007   1.119
 8550WAT     H125892   0.331   8.018   1.211
 8550WAT     H225893   0.323   8.067   1.055
 8551WAT      O25894   4.205   8.143   3.517
 8551WAT     H125895   4.261   8.144   3.600
 8551WAT     H225896   4.173   8.236   3.498
 8552WAT      O25897   3.410   5.236   6.203
 8552WAT     H125898   3.426   5.169   6.276
 8552WAT     H225899   3.441   5.197   6.116
 8553WAT      O25900   8.628   5.307   1.333
 8553WAT     H125901   8.557   5.357   1.383
 8553WAT     H225902   8.688   5.260   1.398
 8554WAT      O25903   8.012   5.557   8.949
 8554WAT     H125904   7.963   5.554   8.862
 8554WAT     H225905   7.977   5.633   9.004
 8555WAT      O25906   0.863   9.766   7.201
 8555WAT     H125907   0.863   9.815   7.114
 8555WAT     H225908   0.958   9.754   7.232
 8556WAT      O25909   0.170   1.876   7.726
 8556WAT     H125910   0.094   1.893   7.789
 8556WAT     H225911   0.148   1.914   7.637
 8557WAT      O25912   5.076   8.340   5.807
 8557WAT     H125913   5.040   8.429   5.779
 8557WAT     H225914   5.160   8.353   5.860
 8558WAT      O25915   9.535   9.137   3.249
 8558WAT     H125916   9.455   9.151   3.191
 8558WAT     H225917   9.593   9.218   3.246
 8559WAT      O25918   4.755   4.856   4.364
 8559WAT     H125919   4.791   4.847   4.271
 8559WAT     H225920   4.658   4.880   4.359
 8560WAT      O25921   1.087   0.347   6.780
 8560WAT     H125922   0.987   0.356   6.773
 8560WAT     H225923   1.118   0.274   6.720
 8561WAT      O25924   7.662   7.513   2.738
 8561WAT     H125925   7.573   7.479   2.706
 8561WAT     H225926   7.735   7.472   2.682
 8562WAT      O25927   1.729   0.304   5.628
 8562WAT     H125928   1.691   0.266   5.543
 8562WAT     H225929   1.657   0.350   5.679
 8563WAT      O25930   2.462   8.935   6.426
 8563WAT     H125931   2.392   8.985   6.376
 8563WAT     H225932   2.508   8.871   6.364
 8564WAT      O25933   5.013   3.637   4.184
 8564WAT     H125934   4.950   3.687   4.124
 8564WAT     H225935   5.036   3.549   4.142
 8565WAT      O25936   8.880   3.937   7.149
 8565WAT     H125937   8.791   3.944   7.196
 8565WAT     H225938   8.948   3.902   7.213
 8566WAT      O25939   7.710   4.111   7.641
 8566WAT     H125940   7.784   4.071   7.588
 8566WAT     H225941   7.731   4.208   7.658
 8567WAT      O25942   7.923   5.367   2.276
 8567WAT     H125943   7.907   5.373   2.178
 8567WAT     H225944   7.843   5.404   2.325
 8568WAT      O25945   2.079   6.301   5.521
 8568WAT     H125946   2.090   6.295   5.422
 8568WAT     H225947   1.989   6.266   5.547
 8569WAT      O25948   2.931   4.177   0.194
 8569WAT     H125949   2.970   4.225   0.115
 8569WAT     H225950   2.838   4.210   0.209
 8570WAT      O25951   2.716   3.320   2.214
 8570WAT     H125952   2.650   3.307   2.287
 8570WAT     H225953   2.706   3.247   2.147
 8571WAT      O25954   2.446   2.793   5.064
 8571WAT     H125955   2.486   2.817   5.152
 8571WAT     H225956   2.517   2.753   5.005
 8572WAT      O25957   7.078   5.347   0.262
 8572WAT     H125958   7.094   5.305   0.351
 8572WAT     H225959   7.121   5.292   0.190
 8573WAT      O25960   6.387   6.876   4.697
 8573WAT     H125961   6.481   6.891   4.668
 8573WAT     H225962   6.325   6.914   4.628
 8574WAT      O25963   0.445   5.024   7.768
 8574WAT     H125964   0.540   5.042   7.793
 8574WAT     H225965   0.434   5.037   7.669
 8575WAT      O25966   9.247   7.642   7.227
 8575WAT     H125967   9.175   7.711   7.229
 8575WAT     H225968   9.318   7.665   7.294
 8576WAT      O25969   0.815   1.075   3.985
 8576WAT     H125970   0.732   1.124   3.958
 8576WAT     H225971   0.810   0.981   3.952
 8577WAT      O25972   9.679   9.660   8.598
 8577WAT     H125973   9.768   9.677   8.640
 8577WAT     H225974   9.637   9.580   8.640
 8578WAT      O25975   9.862   4.472   8.872
 8578WAT     H125976   9.961   4.484   8.870
 8578WAT     H225977   9.819   4.542   8.816
 8579WAT      O25978   0.441   6.657   1.743
 8579WAT     H125979   0.453   6.576   1.800
 8579WAT     H225980   0.522   6.670   1.687
 8580WAT      O25981   2.798   6.564   0.169
 8580WAT     H125982   2.801   6.503   0.248
 8580WAT     H225983   2.867   6.536   0.102
 8581WAT      O25984   5.613   9.740   7.193
 8581WAT     H125985   5.655   9.738   7.102
 8581WAT     H225986   5.643   9.822   7.242
 8582WAT      O25987   8.995   1.235   8.672
 8582WAT     H125988   8.986   1.233   8.573
 8582WAT     H225989   9.058   1.163   8.701
 8583WAT      O25990   9.328   5.969   6.961
 8583WAT     H125991   9.316   5.981   7.059
 8583WAT     H225992   9.373   5.881   6.944
 8584WAT      O25993   1.330   5.366   7.741
 8584WAT     H125994   1.321   5.430   7.817
 8584WAT     H225995   1.426   5.353   7.719
 8585WAT      O25996   5.855   9.839   2.286
 8585WAT     H125997   5.794   9.797   2.219
 8585WAT     H225998   5.913   9.769   2.326
 8586WAT      O25999   8.978   5.557   4.588
 8586WAT     H126000   9.017   5.477   4.542
 8586WAT     H226001   8.999   5.551   4.686
 8587WAT      O26002   1.065   0.311   8.856
 8587WAT     H126003   1.136   0.377   8.879
 8587WAT     H226004   1.033   0.327   8.763
 8588WAT      O26005   9.610   5.622   3.369
 8588WAT     H126006   9.511   5.636   3.376
 8588WAT     H226007   9.629   5.532   3.331
 8589WAT      O26008   6.706   5.683   5.794
 8589WAT     H126009   6.735   5.590   5.774
 8589WAT     H226010   6.731   5.743   5.718
 8590WAT      O26011   1.822   7.857   0.821
 8590WAT     H126012   1.857   7.845   0.729
 8590WAT     H226013   1.723   7.845   0.821
 8591WAT      O26014   2.620   7.447   7.147
 8591WAT     H126015   2.670   7.383   7.206
 8591WAT     H226016   2.685   7.493   7.086
 8592WAT      O26017   0.165   6.310   1.560
 8592WAT     H126018   0.088   6.327   1.622
 8592WAT     H226019   0.133   6.260   1.479
 8593WAT      O26020   7.701   0.791   4.485
 8593WAT     H126021   7.660   0.711   4.528
 8593WAT     H226022   7.645   0.872   4.504
 8594WAT      O26023   2.031   2.500   7.119
 8594WAT     H126024   2.027   2.442   7.201
 8594WAT     H226025   2.126   2.510   7.089
 8595WAT      O26026   0.872   7.720   1.409
 8595WAT     H126027   0.775   7.700   1.394
 8595WAT     H226028   0.885   7.753   1.503
 8596WAT      O26029   8.508   6.084   9.464
 8596WAT     H126030   8.583   6.037   9.416
 8596WAT     H226031   8.499   6.045   9.556
 8597WAT      O26032   4.298   0.798   2.234
 8597WAT     H126033   4.230   0.731   2.263
 8597WAT     H226034   4.268   0.890   2.259
 8598WAT      O26035   5.296   0.524   5.870
 8598WAT     H126036   5.338   0.608   5.904
 8598WAT     H226037   5.347   0.445   5.904
 8599WAT      O26038   5.499   5.169   5.713
 8599WAT     H126039   5.548   5.256   5.711
 8599WAT     H226040   5.405   5.184   5.744
 8600WAT      O26041   9.599   3.915   2.126
 8600WAT     H126042   9.653   3.958   2.198
 8600WAT     H226043   9.627   3.952   2.037
 8601WAT      O26044   3.319   6.140   1.487
 8601WAT     H126045   3.259   6.097   1.555
 8601WAT     H226046   3.371   6.213   1.531
 8602WAT      O26047   9.824   5.537   5.555
 8602WAT     H126048   9.792   5.461   5.611
 8602WAT     H226049   9.871   5.603   5.614
 8603WAT      O26050   5.407   6.027   6.432
 8603WAT     H126051   5.415   5.930   6.458
 8603WAT     H226052   5.311   6.049   6.417
 8604WAT      O26053   4.577   2.148   4.784
 8604WAT     H126054   4.647   2.087   4.821
 8604WAT     H226055   4.488   2.124   4.822
 8605WAT      O26056   4.978   3.747   8.785
 8605WAT     H126057   5.008   3.664   8.833
 8605WAT     H226058   4.892   3.729   8.738
 8606WAT      O26059   1.097   5.729   3.116
 8606WAT     H126060   1.118   5.748   3.021
 8606WAT     H226061   1.026   5.659   3.122
 8607WAT      O26062   2.236   0.377   7.369
 8607WAT     H126063   2.166   0.310   7.344
 8607WAT     H226064   2.203   0.433   7.445
 8608WAT      O26065   9.427   3.110   7.919
 8608WAT     H126066   9.345   3.057   7.940
 8608WAT     H226067   9.403   3.182   7.853
 8609WAT      O26068   3.966   1.235   6.780
 8609WAT     H126069   4.047   1.181   6.804
 8609WAT     H226070   3.993   1.315   6.727
 8610WAT      O26071   7.239   2.681   6.712
 8610WAT     H126072   7.170   2.700   6.642
 8610WAT     H226073   7.322   2.647   6.669
 8611WAT      O26074   6.301   8.941   9.644
 8611WAT     H126075   6.377   9.004   9.662
 8611WAT     H226076   6.217   8.976   9.685
 8612WAT      O26077   9.767   2.808   8.800
 8612WAT     H126078   9.759   2.778   8.895
 8612WAT     H226079   9.681   2.848   8.770
 8613WAT      O26080   6.773   4.654   6.862
 8613WAT     H126081   6.728   4.740   6.884
 8613WAT     H226082   6.866   4.654   6.900
 8614WAT      O26083   6.804   9.674   4.976
 8614WAT     H126084   6.842   9.764   4.998
 8614WAT     H226085   6.708   9.671   5.002
 8615WAT      O26086   4.236   8.165   0.806
 8615WAT     H126087   4.161   8.231   0.797
 8615WAT     H226088   4.305   8.201   0.869
 8616WAT      O26089   7.250   0.390   8.217
 8616WAT     H126090   7.243   0.324   8.142
 8616WAT     H226091   7.186   0.465   8.201
 8617WAT      O26092   0.983   5.339   1.597
 8617WAT     H126093   0.901   5.393   1.613
 8617WAT     H226094   1.048   5.392   1.543
 8618WAT      O26095   3.243   5.296   5.891
 8618WAT     H126096   3.213   5.377   5.840
 8618WAT     H226097   3.166   5.259   5.942
 8619WAT      O26098   1.075   7.981   8.367
 8619WAT     H126099   1.072   8.062   8.427
 8619WAT     H226100   1.117   7.905   8.416
 8620WAT      O26101   1.765   4.977   2.428
 8620WAT     H126102   1.687   5.040   2.426
 8620WAT     H226103   1.749   4.907   2.497
 8621WAT      O26104   3.308   1.585   1.000
 8621WAT     H126105   3.230   1.545   0.952
 8621WAT     H226106   3.278   1.665   1.053
 8622WAT      O26107   9.144   3.815   8.551
 8622WAT     H126108   9.240   3.830   8.578
 8622WAT     H226109   9.102   3.749   8.614
 8623WAT      O26110   9.442   3.477   7.530
 8623WAT     H126111   9.346   3.471   7.503
 8623WAT     H226112   9.500   3.464   7.449
 8624WAT      O26113   3.422   8.918   4.753
 8624WAT     H126114   3.469   8.884   4.671
 8624WAT     H226115   3.476   8.992   4.793
 8625WAT      O26116   4.603   8.437   1.501
 8625WAT     H126117   4.535   8.461   1.432
 8625WAT     H226118   4.595   8.340   1.523
 8626WAT      O26119   5.678   6.791   6.253
 8626WAT     H126120   5.581   6.785   6.229
 8626WAT     H226121   5.716   6.699   6.263
 8627WAT      O26122   6.707   5.677   2.293
 8627WAT     H126123   6.801   5.660   2.324
 8627WAT     H226124   6.698   5.648   2.198
 8628WAT      O26125   2.205   2.562   5.639
 8628WAT     H126126   2.122   2.507   5.641
 8628WAT     H226127   2.280   2.508   5.602
 8629WAT      O26128   5.328   0.156   2.438
 8629WAT     H126129   5.372   0.201   2.517
 8629WAT     H226130   5.236   0.128   2.464
 8630WAT      O26131   3.103   7.195   6.455
 8630WAT     H126132   3.018   7.228   6.495
 8630WAT     H226133   3.123   7.246   6.371
 8631WAT      O26134   6.323   6.833   4.997
 8631WAT     H126135   6.356   6.872   4.911
 8631WAT     H226136   6.388   6.853   5.070
 8632WAT      O26137   2.760   0.498   5.187
 8632WAT     H126138   2.786   0.416   5.135
 8632WAT     H226139   2.724   0.470   5.276
 8633WAT      O26140   4.784   5.701   2.285
 8633WAT     H126141   4.790   5.732   2.380
 8633WAT     H226142   4.791   5.779   2.223
 8634WAT      O26143   3.526   7.550   2.117
 8634WAT     H126144   3.491   7.571   2.025
 8634WAT     H226145   3.609   7.495   2.109
 8635WAT      O26146   9.180   4.642   2.903
 8635WAT     H126147   9.107   4.701   2.868
 8635WAT     H226148   9.190   4.657   3.002
 8636WAT      O26149   3.124   7.596   1.153
 8636WAT     H126150   3.154   7.637   1.067
 8636WAT     H226151   3.204   7.563   1.204
 8637WAT      O26152   3.740   0.781   5.473
 8637WAT     H126153   3.837   0.770   5.452
 8637WAT     H226154   3.694   0.825   5.396
 8638WAT      O26155   8.017   5.816   2.670
 8638WAT     H126156   8.032   5.718   2.663
 8638WAT     H226157   8.105   5.864   2.667
 8639WAT      O26158   7.312   0.935   7.404
 8639WAT     H126159   7.398   0.951   7.452
 8639WAT     H226160   7.272   0.849   7.434
 8640WAT      O26161   5.206   4.217   0.139
 8640WAT     H126162   5.201   4.117   0.135
 8640WAT     H226163   5.255   4.252   0.060
 8641WAT      O26164   2.308   0.290   2.000
 8641WAT     H126165   2.211   0.290   1.974
 8641WAT     H226166   2.362   0.335   1.929
 8642WAT      O26167   7.581   3.715   6.334
 8642WAT     H126168   7.618   3.753   6.418
 8642WAT     H226169   7.599   3.778   6.258
 8643WAT      O26170   3.635   6.246   9.829
 8643WAT     H126171   3.633   6.177   9.756
 8643WAT     H226172   3.730   6.265   9.855
 8644WAT      O26173   8.109   6.957   5.325
 8644WAT     H126174   8.203   6.923   5.331
 8644WAT     H226175   8.095   7.030   5.392
 8645WAT      O26176   9.301   7.364   9.532
 8645WAT     H126177   9.399   7.371   9.511
 8645WAT     H226178   9.259   7.295   9.472
 8646WAT      O26179   4.564   0.066   2.162
 8646WAT     H126180   4.503   0.043   2.237
 8646WAT     H226181   4.566   0.166   2.151
 8647WAT      O26182   9.301   2.880   2.217
 8647WAT     H126183   9.217   2.928   2.192
 8647WAT     H226184   9.335   2.916   2.305
 8648WAT      O26185   2.718   1.828   4.389
 8648WAT     H126186   2.778   1.750   4.406
 8648WAT     H226187   2.702   1.877   4.475
 8649WAT      O26188   3.199   3.553   4.530
 8649WAT     H126189   3.240   3.644   4.522
 8649WAT     H226190   3.152   3.529   4.445
 8650WAT      O26191   5.027   6.131   2.685
 8650WAT     H126192   4.980   6.124   2.773
 8650WAT     H226193   5.046   6.039   2.650
 8651WAT      O26194   7.636   4.276   0.587
 8651WAT     H126195   7.657   4.359   0.535
 8651WAT     H226196   7.705   4.207   0.568
 8652WAT      O26197   5.356   3.700   9.760
 8652WAT     H126198   5.264   3.728   9.788
 8652WAT     H226199   5.351   3.648   9.675
 8653WAT      O26200   6.598   0.830   4.865
 8653WAT     H126201   6.642   0.920   4.861
 8653WAT     H226202   6.519   0.835   4.927
 8654WAT      O26203   1.581   7.503   6.582
 8654WAT     H126204   1.557   7.562   6.658
 8654WAT     H226205   1.567   7.552   6.496
 8655WAT      O26206   0.786   2.689   9.396
 8655WAT     H126207   0.741   2.714   9.310
 8655WAT     H226208   0.885   2.695   9.386
 8656WAT      O26209   0.202   0.441   8.097
 8656WAT     H126210   0.254   0.361   8.126
 8656WAT     H226211   0.156   0.422   8.010
 8657WAT      O26212   9.244   0.192   8.964
 8657WAT     H126213   9.163   0.147   8.927
 8657WAT     H226214   9.237   0.291   8.947
 8658WAT      O26215   0.135   2.357   5.739
 8658WAT     H126216   0.054   2.403   5.773
 8658WAT     H226217   0.205   2.424   5.714
 8659WAT      O26218   5.673   5.861   0.979
 8659WAT     H126219   5.716   5.842   1.068
 8659WAT     H226220   5.583   5.819   0.976
 8660WAT      O26221   7.689   6.260   0.119
 8660WAT     H126222   7.779   6.301   0.125
 8660WAT     H226223   7.667   6.212   0.204
 8661WAT      O26224   3.910   6.053   3.081
 8661WAT     H126225   3.823   6.082   3.121
 8661WAT     H226226   3.974   6.029   3.154
 8662WAT      O26227   2.446   3.730   4.066
 8662WAT     H126228   2.521   3.731   4.133
 8662WAT     H226229   2.453   3.811   4.007
 8663WAT      O26230   3.285   5.156   5.030
 8663WAT     H126231   3.200   5.148   5.082
 8663WAT     H226232   3.268   5.134   4.933
 8664WAT      O26233   3.411   6.935   3.519
 8664WAT     H126234   3.429   6.846   3.562
 8664WAT     H226235   3.376   6.999   3.588
 8665WAT      O26236   0.436   8.408   8.158
 8665WAT     H126237   0.511   8.346   8.180
 8665WAT     H226238   0.445   8.492   8.212
 8666WAT      O26239   4.784   0.792   8.498
 8666WAT     H126240   4.738   0.760   8.581
 8666WAT     H226241   4.729   0.767   8.418
 8667WAT      O26242   6.345   5.758   0.144
 8667WAT     H126243   6.297   5.710   0.217
 8667WAT     H226244   6.297   5.843   0.123
 8668WAT      O26245   3.771   9.409   5.374
 8668WAT     H126246   3.822   9.431   5.456
 8668WAT     H226247   3.769   9.310   5.361
 8669WAT      O26248   3.087   5.929   9.748
 8669WAT     H126249   3.069   5.833   9.726
 8669WAT     H226250   3.185   5.943   9.760
 8670WAT      O26251   7.386   3.129   9.503
 8670WAT     H126252   7.428   3.213   9.538
 8670WAT     H226253   7.405   3.054   9.566
 8671WAT      O26254   3.576   3.322   3.379
 8671WAT     H126255   3.511   3.386   3.339
 8671WAT     H226256   3.527   3.244   3.418
 8672WAT      O26257   1.061   6.122   1.491
 8672WAT     H126258   1.104   6.045   1.538
 8672WAT     H226259   1.108   6.140   1.404
 8673WAT      O26260   6.993   1.767   8.927
 8673WAT     H126261   7.071   1.828   8.939
 8673WAT     H226262   6.909   1.815   8.950
 8674WAT      O26263   6.165   0.025   6.698
 8674WAT     H126264   6.246   0.008   6.754
 8674WAT     H226265   6.183   0.102   6.637
 8675WAT      O26266   5.452   5.916   4.833
 8675WAT     H126267   5.394   5.980   4.781
 8675WAT     H226268   5.393   5.851   4.882
 8676WAT      O26269   0.855   7.448   1.631
 8676WAT     H126270   0.954   7.453   1.634
 8676WAT     H226271   0.827   7.369   1.576
 8677WAT      O26272   1.131   5.368   5.095
 8677WAT     H126273   1.118   5.300   5.168
 8677WAT     H226274   1.051   5.369   5.035
 8678WAT      O26275   8.399   4.734   8.050
 8678WAT     H126276   8.345   4.791   7.988
 8678WAT     H226277   8.340   4.666   8.093
 8679WAT      O26278   4.758   1.106   1.685
 8679WAT     H126279   4.787   1.123   1.779
 8679WAT     H226280   4.728   1.011   1.677
 8680WAT      O26281   0.853   1.537   9.205
 8680WAT     H126282   0.883   1.492   9.121
 8680WAT     H226283   0.802   1.620   9.181
 8681WAT      O26284   4.175   6.110   0.294
 8681WAT     H126285   4.144   6.077   0.205
 8681WAT     H226286   4.169   6.210   0.296
 8682WAT      O26287   7.756   4.303   7.386
 8682WAT     H126288   7.778   4.384   7.441
 8682WAT     H226289   7.837   4.276   7.334
 8683WAT      O26290   2.024   6.684   9.834
 8683WAT     H126291   2.119   6.694   9.865
 8683WAT     H226292   2.014   6.725   9.743
 8684WAT      O26293   0.977   3.684   5.312
 8684WAT     H126294   0.878   3.687   5.301
 8684WAT     H226295   1.000   3.685   5.410
 8685WAT      O26296   7.612   5.077   3.610
 8685WAT     H126297   7.686   5.033   3.558
 8685WAT     H226298   7.526   5.066   3.561
 8686WAT      O26299   9.265   8.776   4.188
 8686WAT     H126300   9.347   8.751   4.135
 8686WAT     H226301   9.190   8.797   4.126
 8687WAT      O26302   0.263   1.685   3.478
 8687WAT     H126303   0.209   1.742   3.539
 8687WAT     H226304   0.291   1.601   3.526
 8688WAT      O26305   0.807   2.873   3.084
 8688WAT     H126306   0.897   2.843   3.050
 8688WAT     H226307   0.809   2.876   3.184
 8689WAT      O26308   6.140   0.510   3.535
 8689WAT     H126309   6.191   0.423   3.538
 8689WAT     H226310   6.202   0.585   3.557
 8690WAT      O26311   1.555   6.280   5.919
 8690WAT     H126312   1.540   6.378   5.920
 8690WAT     H226313   1.651   6.260   5.900
 8691WAT      O26314   7.652   0.163   9.090
 8691WAT     H126315   7.646   0.237   9.022
 8691WAT     H226316   7.672   0.077   9.044
 8692WAT      O26317   5.014   6.762   2.489
 8692WAT     H126318   5.079   6.810   2.429
 8692WAT     H226319   4.934   6.820   2.504
 8693WAT      O26320   5.854   3.446   0.734
 8693WAT     H126321   5.791   3.515   0.768
 8693WAT     H226322   5.948   3.480   0.738
 8694WAT      O26323   6.981   4.998   5.364
 8694WAT     H126324   6.950   5.054   5.441
 8694WAT     H226325   7.067   5.036   5.329
 8695WAT      O26326   0.830   9.171   3.835
 8695WAT     H126327   0.883   9.172   3.920
 8695WAT     H226328   0.762   9.244   3.837
 8696WAT      O26329   9.650   9.637   6.011
 8696WAT     H126330   9.611   9.719   5.968
 8696WAT     H226331   9.747   9.631   5.989
 8697WAT      O26332   6.096   2.335   7.363
 8697WAT     H126333   6.193   2.358   7.373
 8697WAT     H226334   6.071   2.267   7.432
 8698WAT      O26335   7.231   5.185   2.655
 8698WAT     H126336   7.185   5.206   2.742
 8698WAT     H226337   7.329   5.177   2.671
 8699WAT      O26338   7.387   0.964   2.451
 8699WAT     H126339   7.345   1.049   2.419
 8699WAT     H226340   7.339   0.886   2.411
 8700WAT      O26341   4.211   5.294   8.996
 8700WAT     H126342   4.195   5.223   8.927
 8700WAT     H226343   4.283   5.263   9.059
 8701WAT      O26344   7.238   3.653   9.498
 8701WAT     H126345   7.262   3.725   9.432
 8701WAT     H226346   7.199   3.575   9.449
 8702WAT      O26347   7.518   8.015   7.424
 8702WAT     H126348   7.580   8.007   7.502
 8702WAT     H226349   7.559   7.971   7.344
 8703WAT      O26350   2.753   5.399   4.012
 8703WAT     H126351   2.765   5.313   3.962
 8703WAT     H226352   2.662   5.436   3.994
 8704WAT      O26353   4.590   4.986   3.070
 8704WAT     H126354   4.689   4.997   3.073
 8704WAT     H226355   4.564   4.949   2.980
 8705WAT      O26356   9.809   7.668   2.647
 8705WAT     H126357   9.710   7.675   2.654
 8705WAT     H226358   9.848   7.640   2.734
 8706WAT      O26359   1.650   5.872   4.051
 8706WAT     H126360   1.642   5.776   4.075
 8706WAT     H226361   1.746   5.894   4.033
 8707WAT      O26362   1.179   0.287   7.808
 8707WAT     H126363   1.079   0.283   7.811
 8707WAT     H226364   1.207   0.368   7.756
 8708WAT      O26365   2.849   8.819   6.735
 8708WAT     H126366   2.799   8.902   6.756
 8708WAT     H226367   2.831   8.791   6.641
 8709WAT      O26368   3.021   2.209   0.341
 8709WAT     H126369   2.978   2.145   0.277
 8709WAT     H226370   3.055   2.158   0.420
 8710WAT      O26371   7.601   4.480   5.272
 8710WAT     H126372   7.544   4.562   5.265
 8710WAT     H226373   7.554   4.403   5.229
 8711WAT      O26374   1.845   8.880   1.111
 8711WAT     H126375   1.811   8.840   1.196
 8711WAT     H226376   1.890   8.967   1.129
 8712WAT      O26377   9.656   5.810   7.249
 8712WAT     H126378   9.649   5.717   7.287
 8712WAT     H226379   9.605   5.873   7.307
 8713WAT      O26380   5.321   4.187   7.158
 8713WAT     H126381   5.287   4.178   7.252
 8713WAT     H226382   5.312   4.100   7.111
 8714WAT      O26383   3.989   6.330   1.325
 8714WAT     H126384   3.928   6.262   1.284
 8714WAT     H226385   3.984   6.415   1.273
 8715WAT      O26386   9.361   4.022   7.623
 8715WAT     H126387   9.347   3.992   7.717
 8715WAT     H226388   9.332   4.117   7.614
 8716WAT      O26389   2.478   6.703   7.099
 8716WAT     H126390   2.481   6.802   7.110
 8716WAT     H226391   2.505   6.659   7.185
 8717WAT      O26392   2.055   6.087   7.444
 8717WAT     H126393   2.139   6.036   7.463
 8717WAT     H226394   1.976   6.029   7.460
 8718WAT      O26395   6.397   0.437   3.745
 8718WAT     H126396   6.456   0.408   3.820
 8718WAT     H226397   6.389   0.536   3.745
 8719WAT      O26398   6.052   0.769   5.325
 8719WAT     H126399   6.041   0.794   5.421
 8719WAT     H226400   6.143   0.730   5.311
 8720WAT      O26401   8.341   6.061   6.280
 8720WAT     H126402   8.386   6.149   6.295
 8720WAT     H226403   8.289   6.036   6.361
 8721WAT      O26404   5.350   1.921   7.282
 8721WAT     H126405   5.446   1.941   7.261
 8721WAT     H226406   5.313   1.995   7.339
 8722WAT      O26407   5.376   7.048   1.239
 8722WAT     H126408   5.343   7.090   1.154
 8722WAT     H226409   5.444   7.107   1.282
 8723WAT      O26410   5.635   2.438   3.280
 8723WAT     H126411   5.673   2.411   3.368
 8723WAT     H226412   5.559   2.377   3.257
 8724WAT      O26413   1.768   8.828   4.117
 8724WAT     H126414   1.813   8.784   4.040
 8724WAT     H226415   1.824   8.904   4.149
 8725WAT      O26416   0.698   2.798   9.672
 8725WAT     H126417   0.600   2.775   9.671
 8725WAT     H226418   0.741   2.763   9.589
 8726WAT      O26419   7.640   0.857   7.273
 8726WAT     H126420   7.659   0.858   7.175
 8726WAT     H226421   7.721   0.826   7.323
 8727WAT      O26422   5.046   2.625   0.209
 8727WAT     H126423   5.015   2.636   0.303
 8727WAT     H226424   5.039   2.529   0.181
 8728WAT      O26425   7.625   1.060   6.749
 8728WAT     H126426   7.552   1.120   6.783
 8728WAT     H226427   7.667   1.101   6.668
 8729WAT      O26428   7.223   0.958   6.328
 8729WAT     H126429   7.165   0.877   6.323
 8729WAT     H226430   7.167   1.037   6.353
 8730WAT      O26431   7.310   8.229   9.683
 8730WAT     H126432   7.393   8.278   9.655
 8730WAT     H226433   7.312   8.136   9.644
 8731WAT      O26434   7.829   1.145   7.958
 8731WAT     H126435   7.819   1.206   7.879
 8731WAT     H226436   7.917   1.162   8.002
 8732WAT      O26437   5.048   5.514   7.609
 8732WAT     H126438   5.066   5.423   7.644
 8732WAT     H226439   4.965   5.512   7.552
 8733WAT      O26440   9.884   0.010   6.375
 8733WAT     H126441   9.944  -0.064   6.407
 8733WAT     H226442   9.802   0.013   6.432
 8734WAT      O26443   4.833   1.069   5.545
 8734WAT     H126444   4.844   0.978   5.585
 8734WAT     H226445   4.850   1.064   5.446
 8735WAT      O26446   2.106   5.274   8.734
 8735WAT     H126447   2.015   5.314   8.719
 8735WAT     H226448   2.162   5.336   8.789
 8736WAT      O26449   3.127   5.058   0.552
 8736WAT     H126450   3.027   5.058   0.540
 8736WAT     H226451   3.170   5.017   0.472
 8737WAT      O26452   6.190   9.129   5.696
 8737WAT     H126453   6.163   9.063   5.626
 8737WAT     H226454   6.126   9.124   5.772
 8738WAT      O26455   7.251   6.266   5.797
 8738WAT     H126456   7.259   6.248   5.895
 8738WAT     H226457   7.164   6.229   5.764
 8739WAT      O26458   6.156   9.100   0.386
 8739WAT     H126459   6.211   9.177   0.419
 8739WAT     H226460   6.203   9.056   0.309
 8740WAT      O26461   8.796   0.625   6.975
 8740WAT     H126462   8.871   0.647   6.912
 8740WAT     H226463   8.715   0.677   6.949
 8741WAT      O26464   6.846   7.508   9.642
 8741WAT     H126465   6.753   7.494   9.675
 8741WAT     H226466   6.854   7.599   9.602
 8742WAT      O26467   8.208   0.328   4.478
 8742WAT     H126468   8.198   0.257   4.409
 8742WAT     H226469   8.299   0.323   4.518
 8743WAT      O26470   5.404   9.525   2.480
 8743WAT     H126471   5.394   9.609   2.427
 8743WAT     H226472   5.389   9.446   2.421
 8744WAT      O26473   8.020   0.826   0.787
 8744WAT     H126474   7.987   0.882   0.711
 8744WAT     H226475   8.102   0.777   0.758
 8745WAT      O26476   2.722   1.019   1.856
 8745WAT     H126477   2.710   1.115   1.833
 8745WAT     H226478   2.814   1.004   1.893
 8746WAT      O26479   9.332   8.768   0.105
 8746WAT     H126480   9.417   8.774   0.054
 8746WAT     H226481   9.258   8.812   0.054
 8747WAT      O26482   8.887   1.559   5.114
 8747WAT     H126483   8.890   1.563   5.015
 8747WAT     H226484   8.870   1.464   5.143
 8748WAT      O26485   1.188   2.486   7.213
 8748WAT     H126486   1.252   2.495   7.136
 8748WAT     H226487   1.235   2.441   7.289
 8749WAT      O26488   3.462   6.901   4.087
 8749WAT     H126489   3.492   6.848   4.167
 8749WAT     H226490   3.532   6.897   4.016
 8750WAT      O26491   6.458   9.221   3.610
 8750WAT     H126492   6.515   9.139   3.607
 8750WAT     H226493   6.409   9.224   3.698
 8751WAT      O26494   9.682   9.048   7.012
 8751WAT     H126495   9.605   9.094   7.056
 8751WAT     H226496   9.648   8.987   6.941
 8752WAT      O26497   3.494   5.658   0.643
 8752WAT     H126498   3.575   5.702   0.605
 8752WAT     H226499   3.438   5.621   0.568
 8753WAT      O26500   0.065   3.031   1.004
 8753WAT     H126501   0.091   2.936   1.023
 8753WAT     H226502   0.069   3.048   0.906
 8754WAT      O26503   1.048   8.132   0.202
 8754WAT     H126504   1.087   8.051   0.245
 8754WAT     H226505   1.017   8.109   0.110
 8755WAT      O26506   0.585   8.541   2.512
 8755WAT     H126507   0.493   8.502   2.503
 8755WAT     H226508   0.613   8.540   2.608
 8756WAT      O26509   7.073   0.006   0.217
 8756WAT     H126510   7.052   0.089   0.270
 8756WAT     H226511   7.021  -0.071   0.255
 8757WAT      O26512   8.681   1.371   8.176
 8757WAT     H126513   8.655   1.405   8.086
 8757WAT     H226514   8.734   1.286   8.166
 8758WAT      O26515   3.685   6.417   3.856
 8758WAT     H126516   3.607   6.479   3.866
 8758WAT     H226517   3.715   6.386   3.946
 8759WAT      O26518   0.328   4.890   5.263
 8759WAT     H126519   0.276   4.967   5.302
 8759WAT     H226520   0.265   4.830   5.214
 8760WAT      O26521   4.472   7.497   9.546
 8760WAT     H126522   4.510   7.575   9.497
 8760WAT     H226523   4.507   7.494   9.639
 8761WAT      O26524   5.645   3.638   2.338
 8761WAT     H126525   5.633   3.616   2.435
 8761WAT     H226526   5.637   3.555   2.283
 8762WAT      O26527   1.008   3.172   2.099
 8762WAT     H126528   0.944   3.138   2.168
 8762WAT     H226529   1.080   3.105   2.084
 8763WAT      O26530   7.452   3.012   3.742
 8763WAT     H126531   7.547   2.981   3.749
 8763WAT     H226532   7.397   2.942   3.697
 8764WAT      O26533   3.117   6.151   6.733
 8764WAT     H126534   3.152   6.197   6.652
 8764WAT     H226535   3.149   6.199   6.815
 8765WAT      O26536   2.997   3.366   0.045
 8765WAT     H126537   2.976   3.390   0.140
 8765WAT     H226538   2.933   3.295   0.014
 8766WAT      O26539   8.377   5.684   9.775
 8766WAT     H126540   8.460   5.721   9.732
 8766WAT     H226541   8.386   5.689   9.874
 8767WAT      O26542   8.210   8.798   0.860
 8767WAT     H126543   8.110   8.802   0.860
 8767WAT     H226544   8.240   8.706   0.886
 8768WAT      O26545   5.762   2.079   4.928
 8768WAT     H126546   5.695   2.037   4.867
 8768WAT     H226547   5.777   2.174   4.899
 8769WAT      O26548   3.627   1.720   4.490
 8769WAT     H126549   3.567   1.794   4.462
 8769WAT     H226550   3.576   1.634   4.493
 8770WAT      O26551   1.223   1.919   1.411
 8770WAT     H126552   1.308   1.933   1.359
 8770WAT     H226553   1.170   2.004   1.412
 8771WAT      O26554   5.761   1.466   1.016
 8771WAT     H126555   5.729   1.561   1.011
 8771WAT     H226556   5.741   1.429   1.107
 8772WAT      O26557   5.343   0.680   5.250
 8772WAT     H126558   5.252   0.704   5.283
 8772WAT     H226559   5.378   0.601   5.300
 8773WAT      O26560   3.316   5.504   1.631
 8773WAT     H126561   3.269   5.416   1.634
 8773WAT     H226562   3.315   5.547   1.721
 8774WAT      O26563   6.424   1.834   9.502
 8774WAT     H126564   6.354   1.792   9.443
 8774WAT     H226565   6.513   1.828   9.458
 8775WAT      O26566   0.011   8.862   4.319
 8775WAT     H126567   0.033   8.949   4.274
 8775WAT     H226568  -0.072   8.824   4.278
 8776WAT      O26569   4.587   4.106   3.034
 8776WAT     H126570   4.519   4.166   2.991
 8776WAT     H226571   4.646   4.067   2.964
 8777WAT      O26572   3.105   9.588   9.681
 8777WAT     H126573   3.060   9.663   9.730
 8777WAT     H226574   3.037   9.519   9.657
 8778WAT      O26575   8.383   0.394   3.214
 8778WAT     H126576   8.377   0.482   3.262
 8778WAT     H226577   8.456   0.339   3.254
 8779WAT      O26578   7.121   7.406   8.459
 8779WAT     H126579   7.173   7.477   8.412
 8779WAT     H226580   7.178   7.325   8.472
 8780WAT      O26581   1.489   5.749   0.231
 8780WAT     H126582   1.425   5.729   0.156
 8780WAT     H226583   1.437   5.764   0.315
 8781WAT      O26584   8.273   3.702   0.303
 8781WAT     H126585   8.247   3.609   0.276
 8781WAT     H226586   8.267   3.763   0.225
 8782WAT      O26587   2.725   2.218   6.050
 8782WAT     H126588   2.665   2.143   6.020
 8782WAT     H226589   2.685   2.306   6.022
 8783WAT      O26590   8.414   0.251   2.839
 8783WAT     H126591   8.505   0.289   2.857
 8783WAT     H226592   8.403   0.166   2.891
 8784WAT      O26593   2.244   5.475   7.811
 8784WAT     H126594   2.205   5.450   7.900
 8784WAT     H226595   2.242   5.395   7.750
 8785WAT      O26596   6.631   8.875   4.352
 8785WAT     H126597   6.537   8.890   4.319
 8785WAT     H226598   6.630   8.866   4.451
 8786WAT      O26599   0.148   4.959   8.396
 8786WAT     H126600   0.128   5.053   8.420
 8786WAT     H226601   0.063   4.906   8.391
 8787WAT      O26602   3.238   4.998   1.673
 8787WAT     H126603   3.164   4.997   1.739
 8787WAT     H226604   3.310   4.934   1.701
 8788WAT      O26605   2.500   3.200   3.300
 8788WAT     H126606   2.593   3.167   3.319
 8788WAT     H226607   2.475   3.269   3.369
 8789WAT      O26608   6.761   2.008   8.162
 8789WAT     H126609   6.794   1.961   8.080
 8789WAT     H226610   6.716   1.942   8.223
 8790WAT      O26611   4.372   6.521   4.585
 8790WAT     H126612   4.373   6.585   4.662
 8790WAT     H226613   4.320   6.439   4.610
 8791WAT      O26614   8.119   2.243   0.196
 8791WAT     H126615   8.168   2.158   0.177
 8791WAT     H226616   8.147   2.280   0.285
 8792WAT      O26617   9.667   0.661   9.844
 8792WAT     H126618   9.744   0.603   9.817
 8792WAT     H226619   9.660   0.738   9.781
 8793WAT      O26620   0.344   0.362   3.279
 8793WAT     H126621   0.362   0.352   3.377
 8793WAT     H226622   0.380   0.284   3.229
 8794WAT      O26623   0.302   7.562   8.664
 8794WAT     H126624   0.333   7.557   8.759
 8794WAT     H226625   0.217   7.614   8.659
 8795WAT      O26626   6.589   1.111   6.354
 8795WAT     H126627   6.564   1.208   6.346
 8795WAT     H226628   6.688   1.102   6.348
 8796WAT      O26629   4.980   0.267   4.994
 8796WAT     H126630   4.933   0.236   4.911
 8796WAT     H226631   4.988   0.366   4.993
 8797WAT      O26632   4.149   1.997   4.550
 8797WAT     H126633   4.072   1.954   4.597
 8797WAT     H226634   4.172   1.945   4.468
 8798WAT      O26635   7.658   5.932   0.728
 8798WAT     H126636   7.663   5.884   0.816
 8798WAT     H226637   7.563   5.932   0.695
 8799WAT      O26638   3.239   8.823   4.966
 8799WAT     H126639   3.305   8.847   4.895
 8799WAT     H226640   3.154   8.874   4.951
 8800WAT      O26641   2.387   6.150   8.781
 8800WAT     H126642   2.291   6.173   8.791
 8800WAT     H226643   2.428   6.138   8.871
 8801WAT      O26644   5.207   8.319   5.036
 8801WAT     H126645   5.109   8.341   5.038
 8801WAT     H226646   5.252   8.374   4.966
 8802WAT      O26647   4.002   7.740   9.145
 8802WAT     H126648   3.951   7.729   9.231
 8802WAT     H226649   4.100   7.741   9.164
 8803WAT      O26650   5.724   2.010   8.216
 8803WAT     H126651   5.715   1.912   8.235
 8803WAT     H226652   5.679   2.062   8.289
 8804WAT      O26653   5.187   4.603   8.304
 8804WAT     H126654   5.106   4.649   8.341
 8804WAT     H226655   5.209   4.641   8.214
 8805WAT      O26656   4.637   1.771   5.028
 8805WAT     H126657   4.709   1.706   5.003
 8805WAT     H226658   4.551   1.722   5.040
 8806WAT      O26659   6.096   8.047   3.541
 8806WAT     H126660   6.077   8.051   3.443
 8806WAT     H226661   6.186   8.007   3.556
 8807WAT      O26662   2.868   3.706   9.114
 8807WAT     H126663   2.872   3.755   9.201
 8807WAT     H226664   2.954   3.718   9.065
 8808WAT      O26665   5.080   6.358   2.236
 8808WAT     H126666   5.121   6.352   2.145
 8808WAT     H226667   5.032   6.445   2.245
 8809WAT      O26668   8.819   6.229   1.824
 8809WAT     H126669   8.783   6.142   1.790
 8809WAT     H226670   8.749   6.277   1.876
 8810WAT      O26671   1.574   4.869   5.153
 8810WAT     H126672   1.571   4.884   5.054
 8810WAT     H226673   1.664   4.894   5.188
 8811WAT      O26674   3.501   7.286   4.531
 8811WAT     H126675   3.566   7.314   4.601
 8811WAT     H226676   3.411   7.271   4.573
 8812WAT      O26677   9.826   4.771   6.561
 8812WAT     H126678   9.815   4.678   6.597
 8812WAT     H226679   9.889   4.822   6.620
 8813WAT      O26680   2.980   5.939   2.142
 8813WAT     H126681   2.902   5.989   2.182
 8813WAT     H226682   3.061   5.998   2.143
 8814WAT      O26683   1.422   5.792   7.641
 8814WAT     H126684   1.485   5.784   7.564
 8814WAT     H226685   1.343   5.732   7.626
 8815WAT      O26686   9.022   1.816   7.896
 8815WAT     H126687   9.102   1.836   7.953
 8815WAT     H226688   8.954   1.766   7.949
 8816WAT      O26689   0.685   3.679   5.288
 8816WAT     H126690   0.672   3.601   5.349
 8816WAT     H226691   0.681   3.647   5.193
 8817WAT      O26692   4.162   7.389   5.355
 8817WAT     H126693   4.068   7.378   5.385
 8817WAT     H226694   4.188   7.486   5.362
 8818WAT      O26695   6.403   9.561   7.492
 8818WAT     H126696   6.475   9.494   7.512
 8818WAT     H226697   6.401   9.630   7.564
 8819WAT      O26698   0.430   6.709   5.394
 8819WAT     H126699   0.368   6.761   5.335
 8819WAT     H226700   0.513   6.686   5.343
 8820WAT      O26701   9.816   6.302   1.376
 8820WAT     H126702   9.888   6.370   1.362
 8820WAT     H226703   9.857   6.212   1.389
 8821WAT      O26704   6.784   1.532   4.424
 8821WAT     H126705   6.786   1.629   4.400
 8821WAT     H226706   6.692   1.508   4.457
 8822WAT      O26707   3.089   5.968   1.102
 8822WAT     H126708   3.038   5.885   1.125
 8822WAT     H226709   3.117   6.014   1.187
 8823WAT      O26710   8.797   6.524   8.671
 8823WAT     H126711   8.819   6.622   8.666
 8823WAT     H226712   8.747   6.505   8.756
 8824WAT      O26713   0.753   5.111   5.084
 8824WAT     H126714   0.753   5.122   5.183
 8824WAT     H226715   0.814   5.179   5.042
 8825WAT      O26716   5.468   3.681   5.081
 8825WAT     H126717   5.374   3.651   5.061
 8825WAT     H226718   5.510   3.717   4.997
 8826WAT      O26719   9.059   7.021   7.307
 8826WAT     H126720   8.996   7.073   7.249
 8826WAT     H226721   9.130   7.083   7.343
 8827WAT      O26722   3.396   0.788   2.682
 8827WAT     H126723   3.308   0.807   2.724
 8827WAT     H226724   3.413   0.690   2.682
 8828WAT      O26725   0.359   2.450   2.627
 8828WAT     H126726   0.402   2.491   2.707
 8828WAT     H226727   0.392   2.357   2.615
 8829WAT      O26728   0.955   5.095   2.581
 8829WAT     H126729   0.889   5.149   2.528
 8829WAT     H226730   0.973   5.009   2.533
 8830WAT      O26731   9.667   6.421   9.209
 8830WAT     H126732   9.710   6.364   9.139
 8830WAT     H226733   9.736   6.481   9.250
 8831WAT      O26734   0.293   5.134   0.366
 8831WAT     H126735   0.256   5.060   0.423
 8831WAT     H226736   0.298   5.218   0.420
 8832WAT      O26737   9.155   0.531   3.197
 8832WAT     H126738   9.191   0.529   3.103
 8832WAT     H226739   9.126   0.624   3.219
 8833WAT      O26740   2.250   2.240   5.439
 8833WAT     H126741   2.282   2.146   5.454
 8833WAT     H226742   2.151   2.245   5.453
 8834WAT      O26743   1.201   5.985   6.369
 8834WAT     H126744   1.209   6.038   6.454
 8834WAT     H226745   1.291   5.956   6.339
 8835WAT      O26746   0.734   1.045   4.875
 8835WAT     H126747   0.808   1.011   4.817
 8835WAT     H226748   0.754   1.138   4.905
 8836WAT      O26749   8.735   6.746   9.092
 8836WAT     H126750   8.772   6.820   9.148
 8836WAT     H226751   8.685   6.681   9.151
 8837WAT      O26752   5.893   3.263   0.260
 8837WAT     H126753   5.931   3.207   0.334
 8837WAT     H226754   5.814   3.314   0.294
 8838WAT      O26755   6.288   9.058   5.229
 8838WAT     H126756   6.250   9.072   5.137
 8838WAT     H226757   6.363   8.992   5.224
 8839WAT      O26758   4.769   0.050   8.895
 8839WAT     H126759   4.845   0.043   8.961
 8839WAT     H226760   4.789  -0.007   8.815
 8840WAT      O26761   0.798   7.515   8.170
 8840WAT     H126762   0.862   7.548   8.240
 8840WAT     H226763   0.757   7.429   8.200
 8841WAT      O26764   2.273   3.805   0.838
 8841WAT     H126765   2.329   3.887   0.850
 8841WAT     H226766   2.295   3.764   0.749
 8842WAT      O26767   3.546   8.615   3.993
 8842WAT     H126768   3.471   8.563   3.950
 8842WAT     H226769   3.623   8.554   4.011
 8843WAT      O26770   8.504   5.540   4.674
 8843WAT     H126771   8.545   5.631   4.669
 8843WAT     H226772   8.512   5.495   4.585
 8844WAT      O26773   1.337   8.727   7.243
 8844WAT     H126774   1.288   8.659   7.189
 8844WAT     H226775   1.335   8.700   7.340
 8845WAT      O26776   0.370   1.255   8.926
 8845WAT     H126777   0.379   1.332   8.862
 8845WAT     H226778   0.396   1.284   9.017
 8846WAT      O26779   4.649   1.111   7.972
 8846WAT     H126780   4.615   1.018   7.988
 8846WAT     H226781   4.721   1.108   7.903
 8847WAT      O26782   9.549   6.420   1.837
 8847WAT     H126783   9.600   6.493   1.883
 8847WAT     H226784   9.593   6.399   1.750
 8848WAT      O26785   2.660   5.213   6.237
 8848WAT     H126786   2.563   5.203   6.259
 8848WAT     H226787   2.700   5.123   6.219
 8849WAT      O26788   5.989   8.915   3.623
 8849WAT     H126789   6.036   8.995   3.586
 8849WAT     H226790   5.900   8.942   3.661
 8850WAT      O26791   8.240   3.494   3.499
 8850WAT     H126792   8.216   3.583   3.540
 8850WAT     H226793   8.337   3.493   3.475
 8851WAT      O26794   3.448   4.864   2.711
 8851WAT     H126795   3.353   4.888   2.691
 8851WAT     H226796   3.498   4.946   2.736
 8852WAT      O26797   4.446   5.543   0.787
 8852WAT     H126798   4.411   5.479   0.855
 8852WAT     H226799   4.408   5.634   0.803
 8853WAT      O26800   5.399   4.695   6.158
 8853WAT     H126801   5.330   4.627   6.184
 8853WAT     H226802   5.365   4.786   6.181
 8854WAT      O26803   8.912   9.132   2.700
 8854WAT     H126804   8.952   9.041   2.694
 8854WAT     H226805   8.958   9.193   2.636
 8855WAT      O26806   7.234   5.343   6.772
 8855WAT     H126807   7.263   5.247   6.775
 8855WAT     H226808   7.216   5.375   6.865
 8856WAT      O26809   2.572   9.440   5.205
 8856WAT     H126810   2.564   9.379   5.127
 8856WAT     H226811   2.481   9.464   5.239
 8857WAT      O26812   5.749   5.891   0.723
 8857WAT     H126813   5.689   5.851   0.654
 8857WAT     H226814   5.710   5.875   0.814
 8858WAT      O26815   6.946   9.686   7.008
 8858WAT     H126816   6.865   9.701   7.064
 8858WAT     H226817   6.919   9.679   6.912
 8859WAT      O26818   7.566   0.592   0.504
 8859WAT     H126819   7.664   0.580   0.486
 8859WAT     H226820   7.554   0.655   0.580
 8860WAT      O26821   4.830   4.436   8.890
 8860WAT     H126822   4.816   4.403   8.984
 8860WAT     H226823   4.746   4.478   8.857
 8861WAT      O26824   8.226   4.667   3.636
 8861WAT     H126825   8.236   4.713   3.548
 8861WAT     H226826   8.185   4.577   3.622
 8862WAT      O26827   5.372   7.023   0.115
 8862WAT     H126828   5.421   7.098   0.159
 8862WAT     H226829   5.367   6.945   0.177
 8863WAT      O26830   4.212   1.314   3.303
 8863WAT     H126831   4.196   1.237   3.241
 8863WAT     H226832   4.185   1.399   3.258
 8864WAT      O26833   9.734   4.856   0.087
 8864WAT     H126834   9.737   4.917   0.007
 8864WAT     H226835   9.674   4.778   0.066
 8865WAT      O26836   0.029   2.466   9.860
 8865WAT     H126837   0.102   2.513   9.810
 8865WAT     H226838  -0.013   2.529   9.925
 8866WAT      O26839   8.708   7.387   1.065
 8866WAT     H126840   8.743   7.471   1.025
 8866WAT     H226841   8.680   7.404   1.160
 8867WAT      O26842   3.616   7.545   3.479
 8867WAT     H126843   3.667   7.461   3.459
 8867WAT     H226844   3.568   7.535   3.566
 8868WAT      O26845   9.513   6.078   5.056
 8868WAT     H126846   9.516   6.113   5.150
 8868WAT     H226847   9.606   6.067   5.021
 8869WAT      O26848   8.047   4.800   1.274
 8869WAT     H126849   8.056   4.700   1.267
 8869WAT     H226850   8.054   4.840   1.183
 8870WAT      O26851   7.934   8.563   4.835
 8870WAT     H126852   7.968   8.549   4.742
 8870WAT     H226853   7.867   8.492   4.857
 8871WAT      O26854   4.439   6.909   8.968
 8871WAT     H126855   4.351   6.938   8.930
 8871WAT     H226856   4.505   6.983   8.961
 8872WAT      O26857   0.637   2.302   6.097
 8872WAT     H126858   0.623   2.390   6.143
 8872WAT     H226859   0.648   2.318   5.999
 8873WAT      O26860   2.077   4.884   8.075
 8873WAT     H126861   2.030   4.795   8.076
 8873WAT     H226862   2.174   4.870   8.056
 8874WAT      O26863   1.695   2.233   5.550
 8874WAT     H126864   1.793   2.233   5.529
 8874WAT     H226865   1.647   2.170   5.489
 8875WAT      O26866   1.977   2.172   5.530
 8875WAT     H126867   1.953   2.104   5.460
 8875WAT     H226868   2.026   2.128   5.604
 8876WAT      O26869   7.882   4.322   6.008
 8876WAT     H126870   7.974   4.358   6.023
 8876WAT     H226871   7.850   4.275   6.090
 8877WAT      O26872   1.977   8.653   0.073
 8877WAT     H126873   1.998   8.567   0.119
 8877WAT     H226874   1.924   8.712   0.135
 8878WAT      O26875   4.591   8.347   0.425
 8878WAT     H126876   4.638   8.292   0.356
 8878WAT     H226877   4.521   8.292   0.470
 8879WAT      O26878   4.959   6.619   0.790
 8879WAT     H126879   4.913   6.670   0.863
 8879WAT     H226880   5.020   6.551   0.830
 8880WAT      O26881   3.162   3.118   1.910
 8880WAT     H126882   3.076   3.072   1.890
 8880WAT     H226883   3.178   3.118   2.009
 8881WAT      O26884   0.409   9.235   7.746
 8881WAT     H126885   0.508   9.230   7.738
 8881WAT     H226886   0.380   9.331   7.741
 8882WAT      O26887   3.799   0.046   5.874
 8882WAT     H126888   3.875   0.108   5.894
 8882WAT     H226889   3.760   0.013   5.960
 8883WAT      O26890   8.114   2.569   2.837
 8883WAT     H126891   8.018   2.599   2.831
 8883WAT     H226892   8.136   2.548   2.932
 8884WAT      O26893   1.453   3.038   0.554
 8884WAT     H126894   1.355   3.021   0.561
 8884WAT     H226895   1.469   3.137   0.547
 8885WAT      O26896   4.711   8.149   9.825
 8885WAT     H126897   4.768   8.181   9.750
 8885WAT     H226898   4.638   8.090   9.790
 8886WAT      O26899   3.721   1.525   7.661
 8886WAT     H126900   3.800   1.494   7.608
 8886WAT     H226901   3.659   1.448   7.675
 8887WAT      O26902   7.512   5.358   7.913
 8887WAT     H126903   7.587   5.423   7.928
 8887WAT     H226904   7.516   5.287   7.983
 8888WAT      O26905   1.738   7.354   3.476
 8888WAT     H126906   1.674   7.279   3.492
 8888WAT     H226907   1.687   7.439   3.461
 8889WAT      O26908   1.483   3.800   6.867
 8889WAT     H126909   1.473   3.701   6.862
 8889WAT     H226910   1.426   3.835   6.942
 8890WAT      O26911   9.819   6.010   2.051
 8890WAT     H126912   9.828   5.927   2.106
 8890WAT     H226913   9.724   6.022   2.023
 8891WAT      O26914   8.112   3.711   3.662
 8891WAT     H126915   8.016   3.728   3.637
 8891WAT     H226916   8.149   3.793   3.706
 8892WAT      O26917   2.181   9.273   1.567
 8892WAT     H126918   2.103   9.239   1.514
 8892WAT     H226919   2.265   9.236   1.528
 8893WAT      O26920   4.677   7.218   4.994
 8893WAT     H126921   4.680   7.152   4.919
 8893WAT     H226922   4.734   7.297   4.972
 8894WAT      O26923   4.965   3.785   5.986
 8894WAT     H126924   4.904   3.708   6.004
 8894WAT     H226925   5.060   3.758   6.005
 8895WAT      O26926   3.510   4.366   5.128
 8895WAT     H126927   3.533   4.426   5.051
 8895WAT     H226928   3.589   4.307   5.149
 8896WAT      O26929   3.690   6.472   1.470
 8896WAT     H126930   3.603   6.448   1.513
 8896WAT     H226931   3.763   6.464   1.537
 8897WAT      O26932   3.747   5.094   6.710
 8897WAT     H126933   3.818   5.079   6.640
 8897WAT     H226934   3.676   5.155   6.673
 8898WAT      O26935   7.283   0.079   8.981
 8898WAT     H126936   7.333   0.123   8.907
 8898WAT     H226937   7.220   0.011   8.943
 8899WAT      O26938   4.728   8.077   8.249
 8899WAT     H126939   4.805   8.061   8.310
 8899WAT     H226940   4.643   8.053   8.296
 8900WAT      O26941   3.710   8.872   7.729
 8900WAT     H126942   3.699   8.818   7.812
 8900WAT     H226943   3.691   8.814   7.649
 8901WAT      O26944   6.391   4.139   4.756
 8901WAT     H126945   6.441   4.056   4.731
 8901WAT     H226946   6.296   4.115   4.778
 8902WAT      O26947   6.204   9.212   2.641
 8902WAT     H126948   6.206   9.309   2.664
 8902WAT     H226949   6.177   9.159   2.721
 8903WAT      O26950   4.454   6.756   3.583
 8903WAT     H126951   4.524   6.684   3.581
 8903WAT     H226952   4.367   6.718   3.612
 8904WAT      O26953   8.855   5.439   0.120
 8904WAT     H126954   8.789   5.374   0.082
 8904WAT     H226955   8.941   5.431   0.070
 8905WAT      O26956   1.893   1.128   5.614
 8905WAT     H126957   1.945   1.061   5.667
 8905WAT     H226958   1.851   1.194   5.676
 8906WAT      O26959   2.045   1.308   1.992
 8906WAT     H126960   2.012   1.260   1.910
 8906WAT     H226961   1.984   1.385   2.013
 8907WAT      O26962   6.172   2.932   9.327
 8907WAT     H126963   6.263   2.924   9.369
 8907WAT     H226964   6.182   2.941   9.228
 8908WAT      O26965   1.623   2.643   5.814
 8908WAT     H126966   1.705   2.618   5.865
 8908WAT     H226967   1.633   2.614   5.718
 8909WAT      O26968   8.092   9.357   7.257
 8909WAT     H126969   8.122   9.380   7.165
 8909WAT     H226970   8.165   9.309   7.306
 8910WAT      O26971   2.013   4.545   0.078
 8910WAT     H126972   2.026   4.544  -0.021
 8910WAT     H226973   2.100   4.527   0.124
 8911WAT      O26974   9.002   6.302   7.725
 8911WAT     H126975   9.057   6.351   7.657
 8911WAT     H226976   8.905   6.321   7.709
 8912WAT      O26977   2.729   1.778   1.294
 8912WAT     H126978   2.755   1.682   1.285
 8912WAT     H226979   2.675   1.790   1.378
 8913WAT      O26980   9.094   5.564   1.116
 8913WAT     H126981   9.184   5.523   1.110
 8913WAT     H226982   9.035   5.529   1.043
 8914WAT      O26983   6.733   6.525   9.697
 8914WAT     H126984   6.638   6.500   9.683
 8914WAT     H226985   6.739   6.596   9.767
 8915WAT      O26986   3.966   3.287   6.916
 8915WAT     H126987   3.912   3.369   6.896
 8915WAT     H226988   3.905   3.207   6.919
 8916WAT      O26989   2.187   5.448   2.519
 8916WAT     H126990   2.148   5.376   2.463
 8916WAT     H226991   2.132   5.531   2.510
 8917WAT      O26992   0.177   7.844   4.505
 8917WAT     H126993   0.163   7.932   4.459
 8917WAT     H226994   0.127   7.844   4.591
 8918WAT      O26995   1.907   0.867   7.647
 8918WAT     H126996   1.833   0.934   7.647
 8918WAT     H226997   1.883   0.792   7.585
 8919WAT      O26998   3.945   5.526   6.103
 8919WAT     H126999   3.906   5.610   6.065
 8919WAT     H227000   4.045   5.531   6.098
 8920WAT      O27001   4.368   1.891   3.245
 8920WAT     H127002   4.398   1.964   3.306
 8920WAT     H227003   4.412   1.903   3.155
 8921WAT      O27004   2.225   7.036   8.788
 8921WAT     H127005   2.304   6.976   8.802
 8921WAT     H227006   2.239   7.122   8.838
 8922WAT      O27007   4.251   2.218   1.542
 8922WAT     H127008   4.243   2.172   1.453
 8922WAT     H227009   4.307   2.300   1.532
 8923WAT      O27010   1.299   6.240   7.068
 8923WAT     H127011   1.265   6.322   7.023
 8923WAT     H227012   1.366   6.264   7.138
 8924WAT      O27013   7.734   7.173   9.072
 8924WAT     H127014   7.660   7.132   9.126
 8924WAT     H227015   7.698   7.252   9.021
 8925WAT      O27016   5.880   7.331   6.085
 8925WAT     H127017   5.842   7.385   6.010
 8925WAT     H227018   5.870   7.381   6.171
 8926WAT      O27019   1.862   7.698   3.402
 8926WAT     H127020   1.867   7.798   3.414
 8926WAT     H227021   1.766   7.670   3.400
 8927WAT      O27022   3.616   1.180   2.818
 8927WAT     H127023   3.661   1.223   2.739
 8927WAT     H227024   3.527   1.223   2.833
 8928WAT      O27025   1.451   3.233   1.293
 8928WAT     H127026   1.494   3.160   1.345
 8928WAT     H227027   1.352   3.230   1.307
 8929WAT      O27028   2.745   5.751   3.958
 8929WAT     H127029   2.733   5.848   3.975
 8929WAT     H227030   2.839   5.734   3.928
 8930WAT      O27031   5.798   4.261   1.437
 8930WAT     H127032   5.898   4.259   1.441
 8930WAT     H227033   5.767   4.344   1.391
 8931WAT      O27034   3.843   6.601   9.415
 8931WAT     H127035   3.790   6.639   9.340
 8931WAT     H227036   3.818   6.647   9.500
 8932WAT      O27037   7.132   1.323   2.788
 8932WAT     H127038   7.096   1.416   2.777
 8932WAT     H227039   7.058   1.261   2.813
 8933WAT      O27040   1.944   2.412   3.107
 8933WAT     H127041   1.983   2.326   3.138
 8933WAT     H227042   1.976   2.432   3.014
 8934WAT      O27043   8.569   9.846   8.061
 8934WAT     H127044   8.542   9.808   7.973
 8934WAT     H227045   8.508   9.813   8.133
 8935WAT      O27046   0.991   3.718   5.567
 8935WAT     H127047   0.912   3.711   5.628
 8935WAT     H227048   1.069   3.673   5.610
 8936WAT      O27049   6.175   5.160   0.527
 8936WAT     H127050   6.174   5.174   0.626
 8936WAT     H227051   6.267   5.133   0.499
 8937WAT      O27052   3.100   4.345   0.071
 8937WAT     H127053   3.113   4.347  -0.028
 8937WAT     H227054   3.154   4.418   0.113
 8938WAT      O27055   2.352   1.251   7.941
 8938WAT     H127056   2.296   1.233   8.022
 8938WAT     H227057   2.350   1.172   7.881
 8939WAT      O27058   3.750   7.719   7.510
 8939WAT     H127059   3.696   7.802   7.494
 8939WAT     H227060   3.689   7.640   7.508
 8940WAT      O27061   2.949   9.252   6.169
 8940WAT     H127062   3.008   9.299   6.104
 8940WAT     H227063   2.966   9.288   6.261
 8941WAT      O27064   1.979   6.861   0.547
 8941WAT     H127065   2.038   6.784   0.521
 8941WAT     H227066   1.945   6.848   0.640
 8942WAT      O27067   3.766   9.370   8.152
 8942WAT     H127068   3.834   9.372   8.079
 8942WAT     H227069   3.715   9.456   8.152
 8943WAT      O27070   7.655   6.846   0.467
 8943WAT     H127071   7.604   6.765   0.440
 8943WAT     H227072   7.641   6.864   0.564
 8944WAT      O27073   6.876   0.595   5.780
 8944WAT     H127074   6.942   0.665   5.752
 8944WAT     H227075   6.920   0.506   5.783
 8945WAT      O27076   9.365   4.898   0.231
 8945WAT     H127077   9.392   4.802   0.227
 8945WAT     H227078   9.397   4.946   0.149
 8946WAT      O27079   2.280   2.417   3.705
 8946WAT     H127080   2.188   2.453   3.692
 8946WAT     H227081   2.297   2.344   3.639
 8947WAT      O27082   2.567   1.808   2.235
 8947WAT     H127083   2.483   1.846   2.198
 8947WAT     H227084   2.547   1.725   2.286
 8948WAT      O27085   0.850   7.813   1.655
 8948WAT     H127086   0.804   7.771   1.733
 8948WAT     H227087   0.875   7.907   1.678
 8949WAT      O27088   0.984   2.339   8.372
 8949WAT     H127089   0.972   2.377   8.280
 8949WAT     H227090   1.075   2.364   8.407
 8950WAT      O27091   8.795   2.826   3.297
 8950WAT     H127092   8.731   2.899   3.274
 8950WAT     H227093   8.771   2.787   3.386
 8951WAT      O27094   8.793   0.342   4.237
 8951WAT     H127095   8.797   0.386   4.147
 8951WAT     H227096   8.863   0.270   4.241
 8952WAT      O27097   5.813   5.000   2.560
 8952WAT     H127098   5.861   4.954   2.635
 8952WAT     H227099   5.742   4.940   2.524
 8953WAT      O27100   2.227   4.516   4.442
 8953WAT     H127101   2.164   4.484   4.371
 8953WAT     H227102   2.309   4.554   4.400
 8954WAT      O27103   1.044   0.217   7.179
 8954WAT     H127104   0.963   0.271   7.157
 8954WAT     H227105   1.033   0.178   7.271
 8955WAT      O27106   2.326   2.907   5.665
 8955WAT     H127107   2.305   2.833   5.602
 8955WAT     H227108   2.288   2.993   5.630
 8956WAT      O27109   6.607   5.533   7.548
 8956WAT     H127110   6.531   5.472   7.525
 8956WAT     H227111   6.618   5.537   7.647
 8957WAT      O27112   6.039   3.330   5.394
 8957WAT     H127113   5.960   3.357   5.339
 8957WAT     H227114   6.009   3.270   5.468
 8958WAT      O27115   5.622   9.771   8.901
 8958WAT     H127116   5.547   9.708   8.877
 8958WAT     H227117   5.709   9.731   8.874
 8959WAT      O27118   8.322   4.312   9.419
 8959WAT     H127119   8.321   4.213   9.410
 8959WAT     H227120   8.404   4.350   9.378
 8960WAT      O27121   8.977   8.771   7.043
 8960WAT     H127122   8.908   8.834   7.008
 8960WAT     H227123   8.991   8.697   6.978
 8961WAT      O27124   7.556   2.593   7.502
 8961WAT     H127125   7.596   2.549   7.583
 8961WAT     H227126   7.623   2.656   7.462
 8962WAT      O27127   9.666   0.016   7.417
 8962WAT     H127128   9.745  -0.036   7.386
 8962WAT     H227129   9.622   0.061   7.339
 8963WAT      O27130   9.574   6.145   2.875
 8963WAT     H127131   9.561   6.102   2.785
 8963WAT     H227132   9.505   6.217   2.888
 8964WAT      O27133   9.805   4.236   8.420
 8964WAT     H127134   9.737   4.169   8.392
 8964WAT     H227135   9.880   4.189   8.468
 8965WAT      O27136   0.512   1.172   5.281
 8965WAT     H127137   0.588   1.126   5.327
 8965WAT     H227138   0.547   1.231   5.209
 8966WAT      O27139   1.595   7.055   6.130
 8966WAT     H127140   1.546   7.136   6.100
 8966WAT     H227141   1.530   6.982   6.153
 8967WAT      O27142   0.252   9.151   5.550
 8967WAT     H127143   0.158   9.121   5.533
 8967WAT     H227144   0.259   9.190   5.642
 8968WAT      O27145   6.896   8.702   6.575
 8968WAT     H127146   6.858   8.609   6.569
 8968WAT     H227147   6.941   8.724   6.488
 8969WAT      O27148   5.693   3.853   2.123
 8969WAT     H127149   5.626   3.787   2.091
 8969WAT     H227150   5.785   3.822   2.099
 8970WAT      O27151   9.313   3.286   3.292
 8970WAT     H127152   9.368   3.319   3.368
 8970WAT     H227153   9.227   3.249   3.327
 8971WAT      O27154   4.940   2.016   2.518
 8971WAT     H127155   5.036   2.043   2.522
 8971WAT     H227156   4.904   2.004   2.611
 8972WAT      O27157   0.944   8.784   5.295
 8972WAT     H127158   0.982   8.870   5.329
 8972WAT     H227159   0.957   8.779   5.196
 8973WAT      O27160   0.007   0.413   0.652
 8973WAT     H127161   0.016   0.495   0.595
 8973WAT     H227162   0.065   0.423   0.733
 8974WAT      O27163   8.054   7.535   9.625
 8974WAT     H127164   8.020   7.605   9.561
 8974WAT     H227165   8.010   7.447   9.604
 8975WAT      O27166   1.785   9.786   8.837
 8975WAT     H127167   1.713   9.849   8.867
 8975WAT     H227168   1.845   9.764   8.914
 8976WAT      O27169   5.975   1.262   6.010
 8976WAT     H127170   6.039   1.335   6.032
 8976WAT     H227171   6.014   1.174   6.034
 8977WAT      O27172   5.528   3.345   9.393
 8977WAT     H127173   5.511   3.267   9.333
 8977WAT     H227174   5.614   3.330   9.442
 8978WAT      O27175   1.494   8.188   4.995
 8978WAT     H127176   1.403   8.152   5.012
 8978WAT     H227177   1.488   8.284   4.967
 8979WAT      O27178   1.490   1.744   9.283
 8979WAT     H127179   1.439   1.778   9.204
 8979WAT     H227180   1.427   1.729   9.360
 8980WAT      O27181   7.163   6.024   6.417
 8980WAT     H127182   7.239   5.997   6.475
 8980WAT     H227183   7.180   6.115   6.380
 8981WAT      O27184   4.870   1.826   0.447
 8981WAT     H127185   4.879   1.754   0.516
 8981WAT     H227186   4.892   1.915   0.488
 8982WAT      O27187   2.557   1.669   2.771
 8982WAT     H127188   2.595   1.661   2.863
 8982WAT     H227189   2.581   1.759   2.734
 8983WAT      O27190   2.958   5.847   7.067
 8983WAT     H127191   2.870   5.892   7.055
 8983WAT     H227192   3.016   5.865   6.987
 8984WAT      O27193   7.516   5.334   2.651
 8984WAT     H127194   7.517   5.264   2.722
 8984WAT     H227195   7.523   5.291   2.561
 8985WAT      O27196   3.274   6.716   6.478
 8985WAT     H127197   3.336   6.689   6.552
 8985WAT     H227198   3.277   6.816   6.466
 8986WAT      O27199   7.179   6.554   9.313
 8986WAT     H127200   7.274   6.575   9.336
 8986WAT     H227201   7.172   6.456   9.292
 8987WAT      O27202   8.319   8.479   9.126
 8987WAT     H127203   8.338   8.496   9.223
 8987WAT     H227204   8.265   8.555   9.089
 8988WAT      O27205   3.706   8.678   5.462
 8988WAT     H127206   3.738   8.625   5.541
 8988WAT     H227207   3.707   8.621   5.380
 8989WAT      O27208   5.309   9.148   4.628
 8989WAT     H127209   5.394   9.176   4.583
 8989WAT     H227210   5.231   9.173   4.570
 8990WAT      O27211   4.191   9.531   9.002
 8990WAT     H127212   4.214   9.436   9.021
 8990WAT     H227213   4.185   9.583   9.087
 8991WAT      O27214   1.397   4.406   5.003
 8991WAT     H127215   1.415   4.409   5.101
 8991WAT     H227216   1.425   4.492   4.961
 8992WAT      O27217   8.599   8.525   0.608
 8992WAT     H127218   8.604   8.578   0.693
 8992WAT     H227219   8.509   8.539   0.565
 8993WAT      O27220   6.036   5.791   5.545
 8993WAT     H127221   6.001   5.881   5.570
 8993WAT     H227222   6.049   5.786   5.446
 8994WAT      O27223   5.559   3.444   0.789
 8994WAT     H127224   5.579   3.495   0.705
 8994WAT     H227225   5.499   3.368   0.769
 8995WAT      O27226   6.744   0.377   6.455
 8995WAT     H127227   6.831   0.332   6.473
 8995WAT     H227228   6.759   0.475   6.438
 8996WAT      O27229   2.705   7.701   0.154
 8996WAT     H127230   2.726   7.614   0.199
 8996WAT     H227231   2.745   7.701   0.062
 8997WAT      O27232   1.270   6.791   8.525
 8997WAT     H127233   1.356   6.802   8.475
 8997WAT     H227234   1.194   6.813   8.465
 8998WAT      O27235   1.080   2.361   2.043
 8998WAT     H127236   1.147   2.427   2.009
 8998WAT     H227237   1.115   2.318   2.126
 8999WAT      O27238   3.101   2.213   4.431
 8999WAT     H127239   3.018   2.208   4.376
 8999WAT     H227240   3.078   2.203   4.527
 9000WAT      O27241   9.287   6.377   7.507
 9000WAT     H127242   9.246   6.296   7.465
 9000WAT     H227243   9.218   6.449   7.514
 9001WAT      O27244   3.945   1.245   4.257
 9001WAT     H127245   3.933   1.321   4.321
 9001WAT     H227246   3.965   1.281   4.166
 9002WAT      O27247   5.370   3.692   7.061
 9002WAT     H127248   5.300   3.642   7.110
 9002WAT     H227249   5.448   3.710   7.121
 9003WAT      O27250   8.250   7.715   4.036
 9003WAT     H127251   8.347   7.697   4.052
 9003WAT     H227252   8.237   7.746   3.941
 9004WAT      O27253   1.480   0.534   1.671
 9004WAT     H127254   1.490   0.618   1.725
 9004WAT     H227255   1.404   0.545   1.606
 9005WAT      O27256   6.498   0.026   0.913
 9005WAT     H127257   6.502  -0.074   0.915
 9005WAT     H227258   6.577   0.062   0.863
 9006WAT      O27259   4.899   3.655   7.311
 9006WAT     H127260   4.894   3.754   7.294
 9006WAT     H227261   4.809   3.614   7.299
 9007WAT      O27262   1.927   0.750   5.850
 9007WAT     H127263   1.956   0.842   5.825
 9007WAT     H227264   1.831   0.738   5.827
 9008WAT      O27265   2.571   5.723   1.459
 9008WAT     H127266   2.522   5.807   1.483
 9008WAT     H227267   2.547   5.651   1.524
 9009WAT      O27268   1.770   7.758   0.512
 9009WAT     H127269   1.679   7.772   0.474
 9009WAT     H227270   1.833   7.826   0.474
 9010WAT      O27271   5.313   8.497   6.690
 9010WAT     H127272   5.217   8.469   6.689
 9010WAT     H227273   5.341   8.520   6.783
 9011WAT      O27274   1.186   6.355   8.416
 9011WAT     H127275   1.179   6.418   8.493
 9011WAT     H227276   1.213   6.265   8.449
 9012WAT      O27277   8.723   9.206   1.615
 9012WAT     H127278   8.641   9.248   1.654
 9012WAT     H227279   8.697   9.128   1.558
 9013WAT      O27280   6.782   6.235   1.851
 9013WAT     H127281   6.816   6.192   1.768
 9013WAT     H227282   6.858   6.250   1.914
 9014WAT      O27283   2.233   6.182   2.424
 9014WAT     H127284   2.331   6.165   2.428
 9014WAT     H227285   2.217   6.275   2.389
 9015WAT      O27286   0.418   6.679   4.773
 9015WAT     H127287   0.401   6.778   4.774
 9015WAT     H227288   0.517   6.663   4.782
 9016WAT      O27289   3.423   9.495   0.430
 9016WAT     H127290   3.490   9.567   0.446
 9016WAT     H227291   3.467   9.417   0.385
 9017WAT      O27292   0.667   8.199   0.246
 9017WAT     H127293   0.694   8.110   0.283
 9017WAT     H227294   0.571   8.216   0.268
 9018WAT      O27295   9.580   2.653   4.533
 9018WAT     H127296   9.635   2.599   4.597
 9018WAT     H227297   9.596   2.622   4.440
 9019WAT      O27298   2.487   7.155   1.895
 9019WAT     H127299   2.537   7.205   1.965
 9019WAT     H227300   2.494   7.057   1.912
 9020WAT      O27301   6.550   5.365   9.544
 9020WAT     H127302   6.554   5.367   9.644
 9020WAT     H227303   6.456   5.351   9.514
 9021WAT      O27304   7.061   9.405   9.884
 9021WAT     H127305   7.157   9.397   9.911
 9021WAT     H227306   7.034   9.501   9.887
 9022WAT      O27307   7.529   7.917   3.196
 9022WAT     H127308   7.495   7.997   3.246
 9022WAT     H227309   7.511   7.834   3.249
 9023WAT      O27310   8.809   3.229   5.758
 9023WAT     H127311   8.830   3.270   5.669
 9023WAT     H227312   8.889   3.180   5.792
 9024WAT      O27313   4.906   1.481   7.068
 9024WAT     H127314   4.854   1.450   7.147
 9024WAT     H227315   4.900   1.412   6.995
 9025WAT      O27316   8.912   1.147   4.733
 9025WAT     H127317   8.917   1.175   4.828
 9025WAT     H227318   8.875   1.222   4.678
 9026WAT      O27319   5.749   7.922   9.104
 9026WAT     H127320   5.780   7.860   9.175
 9026WAT     H227321   5.826   7.976   9.071
 9027WAT      O27322   7.611   8.187   5.033
 9027WAT     H127323   7.530   8.235   5.066
 9027WAT     H227324   7.623   8.102   5.084
 9028WAT      O27325   8.394   1.435   2.581
 9028WAT     H127326   8.344   1.367   2.527
 9028WAT     H227327   8.400   1.521   2.530
 9029WAT      O27328   5.939   2.194   5.522
 9029WAT     H127329   6.013   2.251   5.556
 9029WAT     H227330   5.976   2.121   5.465
 9030WAT      O27331   7.889   0.638   2.068
 9030WAT     H127332   7.882   0.725   2.019
 9030WAT     H227333   7.798   0.602   2.086
 9031WAT      O27334   7.751   6.994   4.392
 9031WAT     H127335   7.663   6.978   4.437
 9031WAT     H227336   7.787   6.908   4.358
 9032WAT      O27337   6.915   8.380   2.608
 9032WAT     H127338   6.880   8.425   2.525
 9032WAT     H227339   6.838   8.354   2.667
 9033WAT      O27340   0.013   4.931   4.268
 9033WAT     H127341   0.004   4.841   4.226
 9033WAT     H227342  -0.040   4.935   4.352
 9034WAT      O27343   0.752   5.905   0.503
 9034WAT     H127344   0.777   5.932   0.596
 9034WAT     H227345   0.674   5.843   0.506
 9035WAT      O27346   1.657   5.654   0.465
 9035WAT     H127347   1.621   5.731   0.413
 9035WAT     H227348   1.582   5.611   0.516
 9036WAT      O27349   0.874   7.698   2.770
 9036WAT     H127350   0.946   7.673   2.835
 9036WAT     H227351   0.820   7.774   2.808
 9037WAT      O27352   3.709   3.854   6.861
 9037WAT     H127353   3.631   3.871   6.801
 9037WAT     H227354   3.780   3.805   6.811
 9038WAT      O27355   7.503   7.524   4.181
 9038WAT     H127356   7.524   7.584   4.258
 9038WAT     H227357   7.568   7.540   4.106
 9039WAT      O27358   0.963   2.871   4.893
 9039WAT     H127359   1.021   2.824   4.825
 9039WAT     H227360   0.957   2.968   4.870
 9040WAT      O27361   7.225   1.698   4.244
 9040WAT     H127362   7.200   1.604   4.267
 9040WAT     H227363   7.215   1.756   4.325
 9041WAT      O27364   3.668   5.585   6.600
 9041WAT     H127365   3.614   5.540   6.529
 9041WAT     H227366   3.754   5.619   6.560
 9042WAT      O27367   6.682   6.059   8.247
 9042WAT     H127368   6.685   6.156   8.220
 9042WAT     H227369   6.711   6.049   8.342
 9043WAT      O27370   2.248   3.490   7.606
 9043WAT     H127371   2.224   3.456   7.515
 9043WAT     H227372   2.342   3.524   7.605
 9044WAT      O27373   8.480   6.757   6.911
 9044WAT     H127374   8.504   6.668   6.950
 9044WAT     H227375   8.524   6.767   6.822
 9045WAT      O27376   2.496   1.130   5.944
 9045WAT     H127377   2.564   1.202   5.927
 9045WAT     H227378   2.537   1.059   6.002
 9046WAT      O27379   5.305   7.023   5.898
 9046WAT     H127380   5.290   7.101   5.958
 9046WAT     H227381   5.328   6.942   5.953
 9047WAT      O27382   6.297   8.370   1.321
 9047WAT     H127383   6.250   8.454   1.348
 9047WAT     H227384   6.266   8.342   1.230
 9048WAT      O27385   4.785   0.703   5.319
 9048WAT     H127386   4.766   0.660   5.407
 9048WAT     H227387   4.833   0.790   5.333
 9049WAT      O27388   2.710   4.717   4.335
 9049WAT     H127389   2.746   4.751   4.422
 9049WAT     H227390   2.786   4.690   4.276
 9050WAT      O27391   7.915   2.392   0.703
 9050WAT     H127392   7.862   2.370   0.785
 9050WAT     H227393   8.004   2.427   0.729
 9051WAT      O27394   6.570   5.341   4.264
 9051WAT     H127395   6.662   5.367   4.235
 9051WAT     H227396   6.519   5.423   4.290
 9052WAT      O27397   4.321   4.493   0.625
 9052WAT     H127398   4.394   4.547   0.582
 9052WAT     H227399   4.245   4.482   0.561
 9053WAT      O27400   9.525   8.750   0.851
 9053WAT     H127401   9.470   8.815   0.799
 9053WAT     H227402   9.596   8.799   0.902
 9054WAT      O27403   3.881   7.967   9.647
 9054WAT     H127404   3.946   7.896   9.674
 9054WAT     H227405   3.801   7.963   9.706
 9055WAT      O27406   6.549   6.494   8.855
 9055WAT     H127407   6.520   6.415   8.909
 9055WAT     H227408   6.638   6.475   8.814
 9056WAT      O27409   7.023   9.614   4.604
 9056WAT     H127410   7.014   9.579   4.511
 9056WAT     H227411   7.046   9.711   4.601
 9057WAT      O27412   4.154   7.171   0.029
 9057WAT     H127413   4.085   7.118  -0.022
 9057WAT     H227414   4.161   7.135   0.122
 9058WAT      O27415   9.010   6.038   9.136
 9058WAT     H127416   9.092   6.046   9.079
 9058WAT     H227417   8.932   6.012   9.079
 9059WAT      O27418   4.168   1.922   5.118
 9059WAT     H127419   4.234   1.866   5.169
 9059WAT     H227420   4.110   1.972   5.183
 9060WAT      O27421   8.369   8.364   0.674
 9060WAT     H127422   8.445   8.305   0.647
 9060WAT     H227423   8.363   8.441   0.609
 9061WAT      O27424   0.402   9.701   1.345
 9061WAT     H127425   0.433   9.610   1.371
 9061WAT     H227426   0.429   9.720   1.250
 9062WAT      O27427   5.667   5.205   7.142
 9062WAT     H127428   5.662   5.116   7.097
 9062WAT     H227429   5.581   5.255   7.128
 9063WAT      O27430   7.019   0.607   0.487
 9063WAT     H127431   7.013   0.548   0.567
 9063WAT     H227432   7.018   0.552   0.404
 9064WAT      O27433   3.245   1.924   6.054
 9064WAT     H127434   3.270   1.928   5.957
 9064WAT     H227435   3.311   1.977   6.107
 9065WAT      O27436   6.528   9.757   9.861
 9065WAT     H127437   6.584   9.709   9.793
 9065WAT     H227438   6.520   9.701   9.943
 9066WAT      O27439   8.044   4.058   4.435
 9066WAT     H127440   8.098   3.998   4.494
 9066WAT     H227441   7.948   4.054   4.461
 9067WAT      O27442   6.781   5.412   2.197
 9067WAT     H127443   6.695   5.411   2.248
 9067WAT     H227444   6.770   5.358   2.113
 9068WAT      O27445   1.758   9.531   8.489
 9068WAT     H127446   1.761   9.619   8.537
 9068WAT     H227447   1.825   9.469   8.530
 9069WAT      O27448   7.655   1.654   4.434
 9069WAT     H127449   7.567   1.607   4.429
 9069WAT     H227450   7.648   1.745   4.393
 9070WAT      O27451   4.630   3.990   0.095
 9070WAT     H127452   4.725   3.978   0.125
 9070WAT     H227453   4.582   4.047   0.162
 9071WAT      O27454   0.793   0.280   0.301
 9071WAT     H127455   0.749   0.348   0.361
 9071WAT     H227456   0.892   0.283   0.315
 9072WAT      O27457   7.016   5.847   6.096
 9072WAT     H127458   6.990   5.754   6.070
 9072WAT     H227459   7.082   5.843   6.171
 9073WAT      O27460   9.310   7.921   6.954
 9073WAT     H127461   9.226   7.973   6.971
 9073WAT     H227462   9.356   7.902   7.040
 9074WAT      O27463   9.281   5.384   8.046
 9074WAT     H127464   9.270   5.480   8.071
 9074WAT     H227465   9.265   5.373   7.948
 9075WAT      O27466   5.972   1.528   1.739
 9075WAT     H127467   5.926   1.613   1.765
 9075WAT     H227468   6.068   1.532   1.767
 9076WAT      O27469   5.994   1.600   9.799
 9076WAT     H127470   6.093   1.589   9.795
 9076WAT     H227471   5.951   1.510   9.807
 9077WAT      O27472   9.148   4.695   9.174
 9077WAT     H127473   9.173   4.603   9.144
 9077WAT     H227474   9.112   4.692   9.267
 9078WAT      O27475   6.745   9.360   1.821
 9078WAT     H127476   6.769   9.309   1.739
 9078WAT     H227477   6.816   9.428   1.841
 9079WAT      O27478   0.156   4.621   1.672
 9079WAT     H127479   0.133   4.718   1.671
 9079WAT     H227480   0.101   4.573   1.741
 9080WAT      O27481   2.022   7.154   8.000
 9080WAT     H127482   2.013   7.209   8.083
 9080WAT     H227483   2.032   7.214   7.921
 9081WAT      O27484   7.166   8.823   5.235
 9081WAT     H127485   7.220   8.788   5.159
 9081WAT     H227486   7.132   8.915   5.213
 9082WAT      O27487   9.720   0.411   6.529
 9082WAT     H127488   9.790   0.466   6.574
 9082WAT     H227489   9.753   0.381   6.439
 9083WAT      O27490   5.443   2.194   7.987
 9083WAT     H127491   5.535   2.228   8.005
 9083WAT     H227492   5.400   2.168   8.073
 9084WAT      O27493   0.910   5.308   4.702
 9084WAT     H127494   0.986   5.320   4.637
 9084WAT     H227495   0.827   5.351   4.664
 9085WAT      O27496   1.502   8.880   9.571
 9085WAT     H127497   1.569   8.914   9.638
 9085WAT     H227498   1.474   8.955   9.512
 9086WAT      O27499   6.568   6.693   2.023
 9086WAT     H127500   6.615   6.673   1.937
 9086WAT     H227501   6.551   6.792   2.029
 9087WAT      O27502   0.855   9.125   5.589
 9087WAT     H127503   0.914   9.050   5.559
 9087WAT     H227504   0.764   9.089   5.611
 9088WAT      O27505   2.593   7.202   4.331
 9088WAT     H127506   2.650   7.176   4.409
 9088WAT     H227507   2.544   7.287   4.352
 9089WAT      O27508   6.343   1.323   0.435
 9089WAT     H127509   6.362   1.421   0.440
 9089WAT     H227510   6.357   1.290   0.342
 9090WAT      O27511   1.332   7.978   6.566
 9090WAT     H127512   1.287   8.023   6.490
 9090WAT     H227513   1.273   7.906   6.602
 9091WAT      O27514   9.424   2.902   4.128
 9091WAT     H127515   9.371   2.817   4.127
 9091WAT     H227516   9.472   2.912   4.040
 9092WAT      O27517   7.424   5.714   9.451
 9092WAT     H127518   7.345   5.660   9.423
 9092WAT     H227519   7.504   5.655   9.461
 9093WAT      O27520   6.889   3.997   8.007
 9093WAT     H127521   6.954   3.936   7.962
 9093WAT     H227522   6.923   4.020   8.099
 9094WAT      O27523   8.674   6.070   6.302
 9094WAT     H127524   8.622   6.109   6.226
 9094WAT     H227525   8.716   6.143   6.354
 9095WAT      O27526   7.280   5.817   4.998
 9095WAT     H127527   7.325   5.883   5.058
 9095WAT     H227528   7.341   5.794   4.922
 9096WAT      O27529   9.448   4.736   1.031
 9096WAT     H127530   9.397   4.658   1.067
 9096WAT     H227531   9.546   4.715   1.031
 9097WAT      O27532   5.975   2.721   4.789
 9097WAT     H127533   5.944   2.731   4.883
 9097WAT     H227534   6.074   2.734   4.785
 9098WAT      O27535   5.569   4.036   9.501
 9098WAT     H127536   5.505   4.044   9.424
 9098WAT     H227537   5.520   3.999   9.580
 9099WAT      O27538   6.781   5.798   3.708
 9099WAT     H127539   6.842   5.873   3.681
 9099WAT     H227540   6.702   5.797   3.646
 9100WAT      O27541   0.672   1.262   7.812
 9100WAT     H127542   0.715   1.352   7.809
 9100WAT     H227543   0.582   1.269   7.853
 9101WAT      O27544   6.617   1.901   2.868
 9101WAT     H127545   6.611   1.999   2.852
 9101WAT     H227546   6.689   1.882   2.935
 9102WAT      O27547   8.632   0.198   3.093
 9102WAT     H127548   8.630   0.218   3.190
 9102WAT     H227549   8.592   0.108   3.076
 9103WAT      O27550   6.077   4.611   5.699
 9103WAT     H127551   6.020   4.601   5.617
 9103WAT     H227552   6.062   4.701   5.739
 9104WAT      O27553   2.805   6.164   1.861
 9104WAT     H127554   2.749   6.183   1.942
 9104WAT     H227555   2.830   6.067   1.860
 9105WAT      O27556   6.155   6.731   7.063
 9105WAT     H127557   6.121   6.680   7.142
 9105WAT     H227558   6.147   6.829   7.079
 9106WAT      O27559   6.177   3.656   9.725
 9106WAT     H127560   6.265   3.611   9.710
 9106WAT     H227561   6.129   3.665   9.638
 9107WAT      O27562   2.877   8.731   5.051
 9107WAT     H127563   2.950   8.674   5.088
 9107WAT     H227564   2.877   8.725   4.951
 9108WAT      O27565   4.281   8.968   8.528
 9108WAT     H127566   4.219   8.970   8.606
 9108WAT     H227567   4.264   9.048   8.470
 9109WAT      O27568   0.973   6.817   0.010
 9109WAT     H127569   0.905   6.805   0.083
 9109WAT     H227570   1.041   6.744   0.016
 9110WAT      O27571   0.829   9.281   5.322
 9110WAT     H127572   0.893   9.353   5.296
 9110WAT     H227573   0.834   9.265   5.421
 9111WAT      O27574   7.568   8.107   5.828
 9111WAT     H127575   7.598   8.018   5.792
 9111WAT     H227576   7.637   8.177   5.807
 9112WAT      O27577   4.471   0.079   3.541
 9112WAT     H127578   4.551   0.138   3.538
 9112WAT     H227579   4.416   0.101   3.621
 9113WAT      O27580   2.565   5.291   2.387
 9113WAT     H127581   2.486   5.245   2.346
 9113WAT     H227582   2.632   5.223   2.417
 9114WAT      O27583   6.771   3.931   0.727
 9114WAT     H127584   6.722   3.880   0.797
 9114WAT     H227585   6.835   3.994   0.770
 9115WAT      O27586   3.291   2.918   8.728
 9115WAT     H127587   3.231   2.988   8.766
 9115WAT     H227588   3.363   2.895   8.793
 9116WAT      O27589   8.390   7.507   5.009
 9116WAT     H127590   8.337   7.587   5.039
 9116WAT     H227591   8.455   7.482   5.080
 9117WAT      O27592   9.208   9.359   5.632
 9117WAT     H127593   9.307   9.351   5.614
 9117WAT     H227594   9.187   9.454   5.654
 9118WAT      O27595   7.622   4.074   3.703
 9118WAT     H127596   7.523   4.067   3.691
 9118WAT     H227597   7.649   4.026   3.786
 9119WAT      O27598   6.878   1.327   6.856
 9119WAT     H127599   6.855   1.328   6.953
 9119WAT     H227600   6.838   1.246   6.813
 9120WAT      O27601   2.073   5.746   0.755
 9120WAT     H127602   2.024   5.668   0.718
 9120WAT     H227603   2.106   5.724   0.847
 9121WAT      O27604   7.208   9.538   8.768
 9121WAT     H127605   7.273   9.541   8.692
 9121WAT     H227606   7.225   9.616   8.829
 9122WAT      O27607   5.495   1.896   4.018
 9122WAT     H127608   5.451   1.986   4.022
 9122WAT     H227609   5.553   1.884   4.098
 9123WAT      O27610   2.468   1.431   9.183
 9123WAT     H127611   2.517   1.405   9.267
 9123WAT     H227612   2.374   1.455   9.206
 9124WAT      O27613   9.404   4.672   4.041
 9124WAT     H127614   9.494   4.668   3.999
 9124WAT     H227615   9.398   4.603   4.114
 9125WAT      O27616   0.328   2.312   8.719
 9125WAT     H127617   0.398   2.252   8.758
 9125WAT     H227618   0.370   2.374   8.654
 9126WAT      O27619   0.976   7.140   0.403
 9126WAT     H127620   1.008   7.057   0.448
 9126WAT     H227621   0.987   7.131   0.304
 9127WAT      O27622   1.944   8.214   4.780
 9127WAT     H127623   1.913   8.184   4.690
 9127WAT     H227624   2.040   8.241   4.774
 9128WAT      O27625   8.466   6.870   2.231
 9128WAT     H127626   8.376   6.915   2.232
 9128WAT     H227627   8.527   6.920   2.170
 9129WAT      O27628   4.319   6.885   9.805
 9129WAT     H127629   4.388   6.946   9.767
 9129WAT     H227630   4.272   6.837   9.731
 9130WAT      O27631   0.835   2.081   4.828
 9130WAT     H127632   0.903   2.139   4.871
 9130WAT     H227633   0.836   1.990   4.871
 9131WAT      O27634   8.579   5.970   6.530
 9131WAT     H127635   8.492   6.017   6.545
 9131WAT     H227636   8.616   5.997   6.441
 9132WAT      O27637   5.615   6.179   6.338
 9132WAT     H127638   5.631   6.150   6.244
 9132WAT     H227639   5.546   6.120   6.380
 9133WAT      O27640   3.744   6.113   1.556
 9133WAT     H127641   3.748   6.094   1.458
 9133WAT     H227642   3.811   6.183   1.579
 9134WAT      O27643   3.450   5.201   7.954
 9134WAT     H127644   3.520   5.255   8.000
 9134WAT     H227645   3.494   5.126   7.904
 9135WAT      O27646   2.995   6.302   5.975
 9135WAT     H127647   3.004   6.396   6.008
 9135WAT     H227648   2.906   6.291   5.930
 9136WAT      O27649   1.198   6.471   6.123
 9136WAT     H127650   1.206   6.552   6.065
 9136WAT     H227651   1.214   6.389   6.069
 9137WAT      O27652   1.671   6.496   8.630
 9137WAT     H127653   1.685   6.470   8.534
 9137WAT     H227654   1.744   6.558   8.658
 9138WAT      O27655   9.410   7.896   5.024
 9138WAT     H127656   9.324   7.887   5.075
 9138WAT     H227657   9.486   7.905   5.089
 9139WAT      O27658   2.753   6.227   1.589
 9139WAT     H127659   2.662   6.219   1.548
 9139WAT     H227660   2.747   6.208   1.687
 9140WAT      O27661   8.188   6.241   4.805
 9140WAT     H127662   8.248   6.177   4.853
 9140WAT     H227663   8.178   6.324   4.860
 9141WAT      O27664   3.699   0.908   3.080
 9141WAT     H127665   3.797   0.897   3.096
 9141WAT     H227666   3.680   1.004   3.060
 9142WAT      O27667   7.859   9.468   7.301
 9142WAT     H127668   7.832   9.430   7.390
 9142WAT     H227669   7.954   9.445   7.282
 9143WAT      O27670   9.400   9.673   6.279
 9143WAT     H127671   9.461   9.680   6.357
 9143WAT     H227672   9.345   9.589   6.286
 9144WAT      O27673   4.413   0.780   2.878
 9144WAT     H127674   4.319   0.812   2.892
 9144WAT     H227675   4.463   0.846   2.822
 9145WAT      O27676   5.843   8.906   5.761
 9145WAT     H127677   5.822   9.001   5.739
 9145WAT     H227678   5.906   8.902   5.838
 9146WAT      O27679   2.999   5.005   6.129
 9146WAT     H127680   2.906   4.973   6.118
 9146WAT     H227681   3.016   5.025   6.226
 9147WAT      O27682   0.936   1.724   6.069
 9147WAT     H127683   0.951   1.816   6.035
 9147WAT     H227684   0.901   1.666   5.995
 9148WAT      O27685   4.168   2.340   5.641
 9148WAT     H127686   4.244   2.404   5.629
 9148WAT     H227687   4.113   2.367   5.720
 9149WAT      O27688   5.412   2.927   3.266
 9149WAT     H127689   5.373   2.843   3.226
 9149WAT     H227690   5.496   2.951   3.219
 9150WAT      O27691   0.070   3.641   3.934
 9150WAT     H127692   0.011   3.588   3.874
 9150WAT     H227693   0.032   3.641   4.027
 9151WAT      O27694   4.015   4.861   2.665
 9151WAT     H127695   4.011   4.896   2.571
 9151WAT     H227696   4.031   4.937   2.728
 9152WAT      O27697   5.531   6.105   8.503
 9152WAT     H127698   5.447   6.156   8.521
 9152WAT     H227699   5.562   6.060   8.587
 9153WAT      O27700   4.403   6.732   8.591
 9153WAT     H127701   4.416   6.654   8.530
 9153WAT     H227702   4.422   6.705   8.685
 9154WAT      O27703   3.183   0.662   5.908
 9154WAT     H127704   3.227   0.608   5.979
 9154WAT     H227705   3.187   0.614   5.821
 9155WAT      O27706   2.567   2.137   7.534
 9155WAT     H127707   2.646   2.087   7.570
 9155WAT     H227708   2.599   2.209   7.472
 9156WAT      O27709   0.793   8.306   6.080
 9156WAT     H127710   0.741   8.388   6.056
 9156WAT     H227711   0.750   8.226   6.038
 9157WAT      O27712   9.784   2.491   5.808
 9157WAT     H127713   9.712   2.425   5.787
 9157WAT     H227714   9.745   2.583   5.811
 9158WAT      O27715   4.545   0.920   2.075
 9158WAT     H127716   4.477   0.861   2.118
 9158WAT     H227717   4.499   0.996   2.030
 9159WAT      O27718   6.046   8.680   8.251
 9159WAT     H127719   6.081   8.737   8.325
 9159WAT     H227720   5.950   8.657   8.269
 9160WAT      O27721   7.498   8.922   1.390
 9160WAT     H127722   7.530   8.837   1.348
 9160WAT     H227723   7.577   8.979   1.413
 9161WAT      O27724   3.807   8.520   7.323
 9161WAT     H127725   3.738   8.582   7.284
 9161WAT     H227726   3.764   8.465   7.395
 9162WAT      O27727   5.162   5.110   2.803
 9162WAT     H127728   5.142   5.189   2.861
 9162WAT     H227729   5.150   5.136   2.707
 9163WAT      O27730   1.351   1.574   7.924
 9163WAT     H127731   1.340   1.546   8.020
 9163WAT     H227732   1.442   1.615   7.912
 9164WAT      O27733   4.912   4.027   4.333
 9164WAT     H127734   4.879   4.039   4.240
 9164WAT     H227735   4.880   4.103   4.390
 9165WAT      O27736   8.812   0.867   4.677
 9165WAT     H127737   8.745   0.872   4.751
 9165WAT     H227738   8.842   0.959   4.652
 9166WAT      O27739   8.075   8.338   8.898
 9166WAT     H127740   7.981   8.303   8.893
 9166WAT     H227741   8.072   8.435   8.923
 9167WAT      O27742   2.606   7.586   5.163
 9167WAT     H127743   2.693   7.553   5.127
 9167WAT     H227744   2.568   7.655   5.101
 9168WAT      O27745   3.116   5.041   4.146
 9168WAT     H127746   3.192   5.076   4.091
 9168WAT     H227747   3.088   5.110   4.212
 9169WAT      O27748   2.570   5.574   0.242
 9169WAT     H127749   2.583   5.510   0.318
 9169WAT     H227750   2.639   5.646   0.247
 9170WAT      O27751   7.315   0.594   1.243
 9170WAT     H127752   7.323   0.679   1.191
 9170WAT     H227753   7.285   0.520   1.183
 9171WAT      O27754   9.740   8.963   3.223
 9171WAT     H127755   9.792   9.017   3.290
 9171WAT     H227756   9.646   8.995   3.221
 9172WAT      O27757   0.680   6.744   6.193
 9172WAT     H127758   0.611   6.673   6.183
 9172WAT     H227759   0.771   6.706   6.179
 9173WAT      O27760   1.801   9.222   2.127
 9173WAT     H127761   1.864   9.145   2.137
 9173WAT     H227762   1.782   9.237   2.029
 9174WAT      O27763   5.864   0.038   9.325
 9174WAT     H127764   5.828  -0.052   9.350
 9174WAT     H227765   5.804   0.109   9.362
 9175WAT      O27766   8.764   2.028   8.123
 9175WAT     H127767   8.676   1.984   8.105
 9175WAT     H227768   8.749   2.119   8.161
 9176WAT      O27769   6.920   8.208   0.747
 9176WAT     H127770   6.890   8.170   0.835
 9176WAT     H227771   7.020   8.208   0.744
 9177WAT      O27772   1.948   3.047   6.346
 9177WAT     H127773   1.960   3.015   6.252
 9177WAT     H227774   1.937   3.147   6.346
 9178WAT      O27775   1.967   4.237   0.576
 9178WAT     H127776   2.059   4.269   0.557
 9178WAT     H227777   1.955   4.144   0.540
 9179WAT      O27778   8.110   4.775   5.843
 9179WAT     H127779   8.084   4.742   5.753
 9179WAT     H227780   8.203   4.813   5.840
 9180WAT      O27781   5.688   8.947   0.412
 9180WAT     H127782   5.655   8.866   0.460
 9180WAT     H227783   5.776   8.927   0.368
 9181WAT      O27784   1.986   8.567   4.166
 9181WAT     H127785   1.970   8.631   4.091
 9181WAT     H227786   1.964   8.611   4.253
 9182WAT      O27787   3.167   2.070   7.777
 9182WAT     H127788   3.237   2.030   7.718
 9182WAT     H227789   3.191   2.056   7.873
 9183WAT      O27790   6.150   4.108   9.296
 9183WAT     H127791   6.232   4.150   9.336
 9183WAT     H227792   6.072   4.168   9.310
 9184WAT      O27793   3.013   4.311   1.892
 9184WAT     H127794   2.996   4.248   1.817
 9184WAT     H227795   3.107   4.346   1.886
 9185WAT      O27796   7.682   3.140   6.238
 9185WAT     H127797   7.757   3.176   6.294
 9185WAT     H227798   7.634   3.069   6.289
 9186WAT      O27799   8.004   7.182   3.436
 9186WAT     H127800   7.996   7.122   3.515
 9186WAT     H227801   7.914   7.193   3.393
 9187WAT      O27802   7.060   7.469   0.619
 9187WAT     H127803   6.988   7.511   0.675
 9187WAT     H227804   7.062   7.511   0.529
 9188WAT      O27805   2.013   1.443   8.127
 9188WAT     H127806   2.095   1.481   8.084
 9188WAT     H227807   1.974   1.373   8.068
 9189WAT      O27808   1.827   4.203   3.974
 9189WAT     H127809   1.862   4.170   3.886
 9189WAT     H227810   1.727   4.194   3.975
 9190WAT      O27811   4.353   4.025   1.318
 9190WAT     H127812   4.429   4.053   1.259
 9190WAT     H227813   4.386   4.014   1.412
 9191WAT      O27814   2.070   7.970   2.791
 9191WAT     H127815   2.155   8.000   2.835
 9191WAT     H227816   2.045   8.034   2.719
 9192WAT      O27817   9.826   6.108   6.331
 9192WAT     H127818   9.774   6.030   6.298
 9192WAT     H227819   9.908   6.076   6.379
 9193WAT      O27820   8.283   5.099   9.408
 9193WAT     H127821   8.291   5.117   9.506
 9193WAT     H227822   8.188   5.110   9.380
 9194WAT      O27823   9.133   7.221   3.145
 9194WAT     H127824   9.104   7.246   3.237
 9194WAT     H227825   9.102   7.291   3.081
 9195WAT      O27826   9.797   4.220   7.585
 9195WAT     H127827   9.790   4.263   7.495
 9195WAT     H227828   9.742   4.137   7.587
 9196WAT      O27829   7.391   8.867   5.935
 9196WAT     H127830   7.306   8.920   5.943
 9196WAT     H227831   7.398   8.803   6.012
 9197WAT      O27832   9.034   7.887   2.848
 9197WAT     H127833   8.951   7.843   2.881
 9197WAT     H227834   9.088   7.919   2.926
 9198WAT      O27835   4.853   0.051   3.423
 9198WAT     H127836   4.915  -0.023   3.452
 9198WAT     H227837   4.855   0.059   3.324
 9199WAT      O27838   7.504   9.263   4.762
 9199WAT     H127839   7.604   9.262   4.750
 9199WAT     H227840   7.465   9.336   4.706
 9200WAT      O27841   8.573   8.902   6.338
 9200WAT     H127842   8.478   8.881   6.364
 9200WAT     H227843   8.635   8.856   6.401
 9201WAT      O27844   8.280   8.483   0.901
 9201WAT     H127845   8.203   8.432   0.938
 9201WAT     H227846   8.313   8.438   0.817
 9202WAT      O27847   3.656   2.164   7.297
 9202WAT     H127848   3.662   2.239   7.231
 9202WAT     H227849   3.718   2.182   7.373
 9203WAT      O27850   7.995   7.129   7.567
 9203WAT     H127851   7.915   7.089   7.613
 9203WAT     H227852   8.034   7.201   7.624
 9204WAT      O27853   2.895   0.409   2.736
 9204WAT     H127854   2.911   0.375   2.829
 9204WAT     H227855   2.875   0.332   2.676
 9205WAT      O27856   1.249   1.085   1.993
 9205WAT     H127857   1.278   1.165   1.940
 9205WAT     H227858   1.269   1.100   2.090
 9206WAT      O27859   4.698   2.899   1.485
 9206WAT     H127860   4.683   2.825   1.418
 9206WAT     H227861   4.638   2.885   1.563
 9207WAT      O27862   8.606   6.903   6.484
 9207WAT     H127863   8.674   6.947   6.426
 9207WAT     H227864   8.516   6.943   6.467
 9208WAT      O27865   6.274   6.512   6.425
 9208WAT     H127866   6.359   6.460   6.432
 9208WAT     H227867   6.257   6.559   6.512
 9209WAT      O27868   9.534   5.805   1.559
 9209WAT     H127869   9.434   5.803   1.557
 9209WAT     H227870   9.569   5.712   1.550
 9210WAT      O27871   7.401   1.330   9.659
 9210WAT     H127872   7.381   1.240   9.698
 9210WAT     H227873   7.335   1.397   9.693
 9211WAT      O27874   6.805   5.094   2.194
 9211WAT     H127875   6.732   5.094   2.262
 9211WAT     H227876   6.772   5.056   2.108
 9212WAT      O27877   8.884   1.036   8.968
 9212WAT     H127878   8.833   0.983   9.036
 9212WAT     H227879   8.827   1.111   8.934
 9213WAT      O27880   5.903   3.726   7.090
 9213WAT     H127881   5.926   3.817   7.126
 9213WAT     H227882   5.823   3.690   7.138
 9214WAT      O27883   8.226   0.213   5.073
 9214WAT     H127884   8.256   0.251   5.161
 9214WAT     H227885   8.201   0.288   5.011
 9215WAT      O27886   4.237   7.401   9.256
 9215WAT     H127887   4.322   7.366   9.218
 9215WAT     H227888   4.171   7.417   9.182
 9216WAT      O27889   7.365   2.642   4.989
 9216WAT     H127890   7.300   2.571   4.962
 9216WAT     H227891   7.320   2.708   5.049
 9217WAT      O27892   5.689   2.315   1.978
 9217WAT     H127893   5.789   2.315   1.977
 9217WAT     H227894   5.654   2.281   1.891
 9218WAT      O27895   2.711   3.399   6.705
 9218WAT     H127896   2.810   3.405   6.715
 9218WAT     H227897   2.668   3.478   6.749
 9219WAT      O27898   2.417   6.976   4.259
 9219WAT     H127899   2.326   6.979   4.300
 9219WAT     H227900   2.460   7.066   4.267
 9220WAT      O27901   7.960   7.590   4.042
 9220WAT     H127902   7.921   7.548   4.124
 9220WAT     H227903   8.050   7.628   4.064
 9221WAT      O27904   3.201   4.013   8.034
 9221WAT     H127905   3.267   3.954   8.081
 9221WAT     H227906   3.248   4.064   7.962
 9222WAT      O27907   3.702   6.889   5.370
 9222WAT     H127908   3.647   6.905   5.452
 9222WAT     H227909   3.787   6.941   5.376
 9223WAT      O27910   7.787   1.550   2.706
 9223WAT     H127911   7.721   1.613   2.746
 9223WAT     H227912   7.877   1.594   2.701
 9224WAT      O27913   5.345   5.860   7.133
 9224WAT     H127914   5.359   5.882   7.036
 9224WAT     H227915   5.388   5.930   7.189
 9225WAT      O27916   6.748   5.813   1.688
 9225WAT     H127917   6.806   5.778   1.763
 9225WAT     H227918   6.776   5.770   1.602
 9226WAT      O27919   2.061   9.119   2.821
 9226WAT     H127920   2.049   9.022   2.844
 9226WAT     H227921   2.158   9.141   2.816
 9227WAT      O27922   2.670   6.503   1.303
 9227WAT     H127923   2.631   6.495   1.395
 9227WAT     H227924   2.679   6.600   1.279
 9228WAT      O27925   8.795   1.073   0.150
 9228WAT     H127926   8.841   1.153   0.188
 9228WAT     H227927   8.699   1.075   0.175
 9229WAT      O27928   0.427   2.650   8.824
 9229WAT     H127929   0.381   2.692   8.746
 9229WAT     H227930   0.364   2.647   8.902
 9230WAT      O27931   6.198   1.896   1.742
 9230WAT     H127932   6.280   1.952   1.753
 9230WAT     H227933   6.120   1.956   1.722
 9231WAT      O27934   5.420   8.665   3.213
 9231WAT     H127935   5.441   8.617   3.127
 9231WAT     H227936   5.486   8.739   3.226
 9232WAT      O27937   5.719   3.735   7.397
 9232WAT     H127938   5.762   3.644   7.398
 9232WAT     H227939   5.622   3.726   7.418
 9233WAT      O27940   5.633   4.956   6.267
 9233WAT     H127941   5.666   4.961   6.361
 9233WAT     H227942   5.536   4.933   6.267
 9234WAT      O27943   7.071   7.326   4.171
 9234WAT     H127944   7.155   7.336   4.119
 9234WAT     H227945   7.023   7.414   4.174
 9235WAT      O27946   7.094   1.280   5.509
 9235WAT     H127947   7.005   1.297   5.550
 9235WAT     H227948   7.083   1.253   5.414
 9236WAT      O27949   1.707   3.807   6.322
 9236WAT     H127950   1.673   3.808   6.228
 9236WAT     H227951   1.793   3.859   6.327
 9237WAT      O27952   0.704   4.587   4.356
 9237WAT     H127953   0.701   4.582   4.456
 9237WAT     H227954   0.788   4.544   4.323
 9238WAT      O27955   4.900   4.548   9.299
 9238WAT     H127956   4.840   4.620   9.334
 9238WAT     H227957   4.917   4.481   9.370
 9239WAT      O27958   2.073   2.226   8.538
 9239WAT     H127959   2.054   2.160   8.610
 9239WAT     H227960   2.045   2.317   8.568
 9240WAT      O27961   8.206   4.051   7.393
 9240WAT     H127962   8.225   4.009   7.482
 9240WAT     H227963   8.224   3.985   7.320
 9241WAT      O27964   3.546   8.572   0.391
 9241WAT     H127965   3.636   8.615   0.384
 9241WAT     H227966   3.553   8.488   0.445
 9242WAT      O27967   9.623   4.584   7.381
 9242WAT     H127968   9.697   4.518   7.370
 9242WAT     H227969   9.609   4.603   7.478
 9243WAT      O27970   6.239   9.138   1.351
 9243WAT     H127971   6.275   9.204   1.285
 9243WAT     H227972   6.160   9.091   1.312
 9244WAT      O27973   0.461   7.612   5.465
 9244WAT     H127974   0.522   7.542   5.428
 9244WAT     H227975   0.388   7.630   5.400
 9245WAT      O27976   4.614   4.703   6.011
 9245WAT     H127977   4.551   4.780   6.019
 9245WAT     H227978   4.660   4.687   6.098
 9246WAT      O27979   2.117   1.760   7.256
 9246WAT     H127980   2.019   1.742   7.269
 9246WAT     H227981   2.156   1.793   7.341
 9247WAT      O27982   3.593   8.205   4.646
 9247WAT     H127983   3.654   8.133   4.680
 9247WAT     H227984   3.499   8.171   4.642
 9248WAT      O27985   5.196   4.649   9.468
 9248WAT     H127986   5.180   4.600   9.553
 9248WAT     H227987   5.238   4.588   9.401
 9249WAT      O27988   9.633   2.154   1.727
 9249WAT     H127989   9.554   2.202   1.688
 9249WAT     H227990   9.605   2.109   1.812
 9250WAT      O27991   1.092   6.580   7.452
 9250WAT     H127992   1.167   6.615   7.509
 9250WAT     H227993   1.127   6.563   7.360
 9251WAT      O27994   4.234   6.767   9.281
 9251WAT     H127995   4.168   6.719   9.222
 9251WAT     H227996   4.327   6.745   9.252
 9252WAT      O27997   1.150   7.818   2.477
 9252WAT     H127998   1.077   7.750   2.472
 9252WAT     H227999   1.117   7.899   2.524
 9253WAT      O28000   3.008   5.149   7.796
 9253WAT     H128001   2.975   5.073   7.853
 9253WAT     H228002   3.096   5.125   7.756
 9254WAT      O28003   4.291   7.974   1.571
 9254WAT     H128004   4.303   7.960   1.472
 9254WAT     H228005   4.205   8.023   1.587
 9255WAT      O28006   6.905   8.306   2.096
 9255WAT     H128007   6.891   8.278   2.191
 9255WAT     H228008   6.867   8.398   2.083
 9256WAT      O28009   8.288   4.306   7.859
 9256WAT     H128010   8.210   4.267   7.908
 9256WAT     H228011   8.273   4.404   7.845
 9257WAT      O28012   9.010   8.382   9.882
 9257WAT     H128013   8.978   8.318   9.813
 9257WAT     H228014   9.077   8.337   9.941
 9258WAT      O28015   4.288   0.978   0.250
 9258WAT     H128016   4.233   0.899   0.278
 9258WAT     H228017   4.263   1.006   0.158
 9259WAT      O28018   1.479   5.245   4.879
 9259WAT     H128019   1.445   5.318   4.939
 9259WAT     H228020   1.405   5.181   4.859
 9260WAT      O28021   5.232   3.073   1.978
 9260WAT     H128022   5.221   3.075   2.077
 9260WAT     H228023   5.311   3.017   1.955
 9261WAT      O28024   1.408   9.433   0.566
 9261WAT     H128025   1.317   9.472   0.570
 9261WAT     H228026   1.431   9.392   0.654
 9262WAT      O28027   5.170   4.295   0.384
 9262WAT     H128028   5.194   4.284   0.288
 9262WAT     H228029   5.205   4.383   0.417
 9263WAT      O28030   2.946   3.518   4.896
 9263WAT     H128031   2.869   3.524   4.959
 9263WAT     H228032   2.913   3.527   4.802
 9264WAT      O28033   1.798   6.034   6.673
 9264WAT     H128034   1.729   6.106   6.664
 9264WAT     H228035   1.789   5.990   6.762
 9265WAT      O28036   8.412   1.262   1.582
 9265WAT     H128037   8.430   1.361   1.582
 9265WAT     H228038   8.425   1.226   1.674
 9266WAT      O28039   1.426   8.476   9.019
 9266WAT     H128040   1.369   8.420   9.079
 9266WAT     H228041   1.510   8.502   9.067
 9267WAT      O28042   2.469   1.500   5.708
 9267WAT     H128043   2.509   1.553   5.633
 9267WAT     H228044   2.518   1.414   5.718
 9268WAT      O28045   4.525   0.095   3.043
 9268WAT     H128046   4.539   0.053   3.132
 9268WAT     H228047   4.583   0.051   2.975
 9269WAT      O28048   2.878   7.789   3.823
 9269WAT     H128049   2.788   7.775   3.783
 9269WAT     H228050   2.872   7.782   3.922
 9270WAT      O28051   0.513   4.206   4.900
 9270WAT     H128052   0.476   4.163   4.818
 9270WAT     H228053   0.579   4.144   4.944
 9271WAT      O28054   7.237   8.296   5.816
 9271WAT     H128055   7.264   8.213   5.767
 9271WAT     H228056   7.198   8.362   5.751
 9272WAT      O28057   3.319   3.896   3.304
 9272WAT     H128058   3.411   3.918   3.338
 9272WAT     H228059   3.251   3.941   3.363
 9273WAT      O28060   9.830   8.434   4.031
 9273WAT     H128061   9.808   8.360   4.094
 9273WAT     H228062   9.926   8.428   4.004
 9274WAT      O28063   2.732   0.965   0.234
 9274WAT     H128064   2.812   0.916   0.200
 9274WAT     H228065   2.753   1.001   0.325
 9275WAT      O28066   9.078   9.279   1.225
 9275WAT     H128067   9.107   9.257   1.318
 9275WAT     H228068   8.978   9.277   1.220
 9276WAT      O28069   4.064   3.711   3.763
 9276WAT     H128070   4.067   3.615   3.734
 9276WAT     H228071   3.988   3.724   3.827
 9277WAT      O28072   0.476   6.201   0.343
 9277WAT     H128073   0.429   6.114   0.329
 9277WAT     H228074   0.571   6.183   0.371
 9278WAT      O28075   3.854   8.362   1.951
 9278WAT     H128076   3.816   8.443   1.994
 9278WAT     H228077   3.892   8.302   2.021
 9279WAT      O28078   3.805   8.896   5.236
 9279WAT     H128079   3.832   8.827   5.304
 9279WAT     H228080   3.862   8.887   5.154
 9280WAT      O28081   8.165   5.371   1.246
 9280WAT     H128082   8.260   5.362   1.217
 9280WAT     H228083   8.129   5.281   1.270
 9281WAT      O28084   1.634   7.824   4.077
 9281WAT     H128085   1.614   7.891   4.148
 9281WAT     H228086   1.720   7.777   4.098
 9282WAT      O28087   2.915   2.881   8.611
 9282WAT     H128088   2.844   2.847   8.673
 9282WAT     H228089   2.996   2.822   8.618
 9283WAT      O28090   6.108   3.871   8.431
 9283WAT     H128091   6.138   3.802   8.497
 9283WAT     H228092   6.039   3.833   8.371
 9284WAT      O28093   4.910   0.625   1.395
 9284WAT     H128094   4.937   0.578   1.311
 9284WAT     H228095   4.991   0.665   1.438
 9285WAT      O28096   0.091   5.346   5.984
 9285WAT     H128097   0.113   5.249   5.994
 9285WAT     H228098   0.112   5.394   6.069
 9286WAT      O28099   4.533   5.874   9.116
 9286WAT     H128100   4.507   5.866   9.020
 9286WAT     H228101   4.450   5.869   9.173
 9287WAT      O28102   2.126   5.213   4.268
 9287WAT     H128103   2.051   5.147   4.259
 9287WAT     H228104   2.214   5.165   4.265
 9288WAT      O28105   5.608   8.641   9.327
 9288WAT     H128106   5.705   8.624   9.343
 9288WAT     H228107   5.578   8.592   9.245
 9289WAT      O28108   3.386   5.485   4.503
 9289WAT     H128109   3.292   5.520   4.500
 9289WAT     H228110   3.428   5.511   4.590
 9290WAT      O28111   9.784   8.961   7.678
 9290WAT     H128112   9.746   9.011   7.756
 9290WAT     H228113   9.826   8.876   7.709
 9291WAT      O28114   7.463   2.118   1.008
 9291WAT     H128115   7.543   2.108   0.949
 9291WAT     H228116   7.454   2.214   1.035
 9292WAT      O28117   7.252   4.282   8.841
 9292WAT     H128118   7.234   4.244   8.932
 9292WAT     H228119   7.333   4.340   8.845
 9293WAT      O28120   5.140   7.348   7.579
 9293WAT     H128121   5.222   7.364   7.524
 9293WAT     H228122   5.152   7.391   7.669
 9294WAT      O28123   5.752   3.849   1.701
 9294WAT     H128124   5.707   3.786   1.636
 9294WAT     H228125   5.836   3.884   1.660
 9295WAT      O28126   7.021   1.812   5.155
 9295WAT     H128127   7.021   1.912   5.149
 9295WAT     H228128   7.074   1.774   5.079
 9296WAT      O28129   6.602   3.327   8.779
 9296WAT     H128130   6.611   3.250   8.841
 9296WAT     H228131   6.628   3.299   8.687
 9297WAT      O28132   4.765   3.407   4.364
 9297WAT     H128133   4.726   3.473   4.429
 9297WAT     H228134   4.693   3.377   4.301
 9298WAT      O28135   5.440   0.448   6.630
 9298WAT     H128136   5.515   0.492   6.679
 9298WAT     H228137   5.476   0.371   6.577
 9299WAT      O28138   8.357   2.611   9.655
 9299WAT     H128139   8.295   2.672   9.705
 9299WAT     H228140   8.440   2.662   9.631
 9300WAT      O28141   2.770   6.089   0.499
 9300WAT     H128142   2.755   6.107   0.596
 9300WAT     H228143   2.768   6.176   0.448
 9301WAT      O28144   4.052   1.795   7.571
 9301WAT     H128145   4.058   1.709   7.521
 9301WAT     H228146   4.078   1.871   7.511
 9302WAT      O28147   0.280   0.097   1.800
 9302WAT     H128148   0.344   0.092   1.723
 9302WAT     H228149   0.323   0.143   1.877
 9303WAT      O28150   9.736   5.139   5.271
 9303WAT     H128151   9.649   5.132   5.222
 9303WAT     H228152   9.786   5.219   5.238
 9304WAT      O28153   1.277   0.188   0.778
 9304WAT     H128154   1.184   0.187   0.815
 9304WAT     H228155   1.304   0.283   0.760
 9305WAT      O28156   3.015   5.201   7.279
 9305WAT     H128157   3.065   5.139   7.219
 9305WAT     H228158   3.079   5.244   7.343
 9306WAT      O28159   4.431   8.267   5.142
 9306WAT     H128160   4.365   8.287   5.069
 9306WAT     H228161   4.423   8.336   5.213
 9307WAT      O28162   6.316   7.451   8.985
 9307WAT     H128163   6.315   7.355   9.011
 9307WAT     H228164   6.270   7.463   8.897
 9308WAT      O28165   6.734   1.074   9.345
 9308WAT     H128166   6.773   0.998   9.293
 9308WAT     H228167   6.781   1.158   9.321
 9309WAT      O28168   0.181   1.332   1.049
 9309WAT     H128169   0.112   1.260   1.055
 9309WAT     H228170   0.270   1.291   1.030
 9310WAT      O28171   5.354   4.007   2.976
 9310WAT     H128172   5.313   3.935   2.920
 9310WAT     H228173   5.283   4.070   3.006
 9311WAT      O28174   2.141   7.764   0.133
 9311WAT     H128175   2.167   7.848   0.181
 9311WAT     H228176   2.165   7.772   0.036
 9312WAT      O28177   2.998   0.549   6.941
 9312WAT     H128178   2.998   0.451   6.923
 9312WAT     H228179   2.963   0.597   6.860
 9313WAT      O28180   2.709   0.392   5.422
 9313WAT     H128181   2.684   0.458   5.494
 9313WAT     H228182   2.758   0.315   5.463
 9314WAT      O28183   6.510   2.843   6.778
 9314WAT     H128184   6.516   2.774   6.850
 9314WAT     H228185   6.524   2.799   6.689
 9315WAT      O28186   4.305   6.580   0.287
 9315WAT     H128187   4.287   6.673   0.252
 9315WAT     H228188   4.356   6.587   0.372
 9316WAT      O28189   8.298   5.756   2.464
 9316WAT     H128190   8.393   5.743   2.433
 9316WAT     H228191   8.249   5.669   2.457
 9317WAT      O28192   4.242   4.431   2.415
 9317WAT     H128193   4.186   4.382   2.481
 9317WAT     H228194   4.335   4.393   2.416
 9318WAT      O28195   5.927   2.940   8.082
 9318WAT     H128196   5.831   2.950   8.054
 9318WAT     H228197   5.951   2.843   8.087
 9319WAT      O28198   2.338   3.640   4.905
 9319WAT     H128199   2.371   3.658   4.997
 9319WAT     H228200   2.279   3.559   4.906
 9320WAT      O28201   8.946   9.456   3.249
 9320WAT     H128202   8.919   9.539   3.201
 9320WAT     H228203   8.949   9.474   3.347
 9321WAT      O28204   5.673   7.257   2.655
 9321WAT     H128205   5.692   7.352   2.630
 9321WAT     H228206   5.724   7.196   2.594
 9322WAT      O28207   2.842   9.640   0.632
 9322WAT     H128208   2.883   9.575   0.696
 9322WAT     H228209   2.758   9.601   0.594
 9323WAT      O28210   3.162   8.527   7.225
 9323WAT     H128211   3.064   8.546   7.235
 9323WAT     H228212   3.210   8.611   7.201
 9324WAT      O28213   3.062   0.145   3.426
 9324WAT     H128214   3.152   0.120   3.390
 9324WAT     H228215   3.057   0.245   3.434
 9325WAT      O28216   7.431   0.143   3.585
 9325WAT     H128217   7.434   0.189   3.496
 9325WAT     H228218   7.342   0.099   3.596
 9326WAT      O28219   7.564   2.471   5.430
 9326WAT     H128220   7.493   2.538   5.453
 9326WAT     H228221   7.563   2.455   5.331
 9327WAT      O28222   0.406   0.106   2.678
 9327WAT     H128223   0.308   0.117   2.662
 9327WAT     H228224   0.454   0.099   2.591
 9328WAT      O28225   0.836   1.745   4.447
 9328WAT     H128226   0.887   1.793   4.376
 9328WAT     H228227   0.834   1.801   4.530
 9329WAT      O28228   4.099   9.616   1.267
 9329WAT     H128229   4.041   9.615   1.348
 9329WAT     H228230   4.088   9.531   1.216
 9330WAT      O28231   0.611   4.561   0.957
 9330WAT     H128232   0.649   4.522   0.873
 9330WAT     H228233   0.532   4.618   0.935
 9331WAT      O28234   1.994   2.182   4.218
 9331WAT     H128235   2.087   2.217   4.217
 9331WAT     H228236   1.935   2.245   4.270
 9332WAT      O28237   3.330   2.052   2.680
 9332WAT     H128238   3.354   2.007   2.766
 9332WAT     H228239   3.414   2.075   2.630
 9333WAT      O28240   3.378   5.499   0.438
 9333WAT     H128241   3.433   5.451   0.370
 9333WAT     H228242   3.317   5.433   0.483
 9334WAT      O28243   5.242   4.033   6.097
 9334WAT     H128244   5.208   4.003   6.009
 9334WAT     H228245   5.170   4.024   6.166
 9335WAT      O28246   0.790   4.973   1.430
 9335WAT     H128247   0.771   4.989   1.333
 9335WAT     H228248   0.880   5.010   1.453
 9336WAT      O28249   4.368   1.568   1.416
 9336WAT     H128250   4.356   1.483   1.365
 9336WAT     H228251   4.327   1.558   1.507
 9337WAT      O28252   4.076   3.380   9.864
 9337WAT     H128253   4.082   3.480   9.867
 9337WAT     H228254   4.117   3.347   9.779
 9338WAT      O28255   5.241   2.251   0.894
 9338WAT     H128256   5.246   2.192   0.814
 9338WAT     H228257   5.284   2.205   0.972
 9339WAT      O28258   9.020   4.378   3.738
 9339WAT     H128259   9.112   4.340   3.743
 9339WAT     H228260   8.968   4.332   3.666
 9340WAT      O28261   0.072   1.063   0.072
 9340WAT     H128262   0.141   0.999   0.106
 9340WAT     H228263   0.095   1.090  -0.021
 9341WAT      O28264   7.399   5.869   6.157
 9341WAT     H128265   7.358   5.820   6.080
 9341WAT     H228266   7.476   5.924   6.123
 9342WAT      O28267   7.567   7.256   7.984
 9342WAT     H128268   7.600   7.339   7.939
 9342WAT     H228269   7.541   7.278   8.078
 9343WAT      O28270   2.272   0.959   4.997
 9343WAT     H128271   2.232   1.045   5.029
 9343WAT     H228272   2.347   0.978   4.934
 9344WAT      O28273   6.474   6.057   9.393
 9344WAT     H128274   6.414   5.977   9.394
 9344WAT     H228275   6.478   6.095   9.301
 9345WAT      O28276   4.444   5.562   0.183
 9345WAT     H128277   4.455   5.509   0.099
 9345WAT     H228278   4.352   5.599   0.187
 9346WAT      O28279   3.561   3.989   2.388
 9346WAT     H128280   3.515   3.900   2.391
 9346WAT     H228281   3.503   4.058   2.432
 9347WAT      O28282   1.286   0.012   7.191
 9347WAT     H128283   1.249  -0.057   7.254
 9347WAT     H228284   1.221   0.026   7.116
 9348WAT      O28285   3.960   9.256   6.019
 9348WAT     H128286   3.904   9.304   5.952
 9348WAT     H228287   3.912   9.253   6.107
 9349WAT      O28288   7.840   2.039   4.020
 9349WAT     H128289   7.875   2.002   4.106
 9349WAT     H228290   7.907   2.023   3.947
 9350WAT      O28291   4.987   8.057   5.189
 9350WAT     H128292   4.950   8.038   5.280
 9350WAT     H228293   5.037   7.977   5.156
 9351WAT      O28294   6.193   8.334   8.634
 9351WAT     H128295   6.192   8.313   8.536
 9351WAT     H228296   6.124   8.404   8.654
 9352WAT      O28297   4.849   3.230   9.860
 9352WAT     H128298   4.871   3.143   9.815
 9352WAT     H228299   4.910   3.301   9.827
 9353WAT      O28300   2.420   9.628   9.426
 9353WAT     H128301   2.455   9.671   9.510
 9353WAT     H228302   2.361   9.551   9.450
 9354WAT      O28303   8.349   9.637   3.457
 9354WAT     H128304   8.318   9.557   3.508
 9354WAT     H228305   8.295   9.716   3.482
 9355WAT      O28306   4.443   2.933   5.011
 9355WAT     H128307   4.452   2.907   5.108
 9355WAT     H228308   4.531   2.920   4.965
 9356WAT      O28309   2.329   4.955   7.882
 9356WAT     H128310   2.394   4.945   7.807
 9356WAT     H228311   2.341   4.880   7.947
 9357WAT      O28312   8.879   5.939   7.851
 9357WAT     H128313   8.926   5.922   7.764
 9357WAT     H228314   8.872   6.038   7.866
 9358WAT      O28315   2.041   5.436   4.102
 9358WAT     H128316   2.054   5.417   4.200
 9358WAT     H228317   2.131   5.446   4.059
 9359WAT      O28318   7.251   4.514   4.727
 9359WAT     H128319   7.155   4.529   4.753
 9359WAT     H228320   7.299   4.601   4.729
 9360WAT      O28321   0.561   8.841   1.641
 9360WAT     H128322   0.569   8.845   1.740
 9360WAT     H228323   0.614   8.764   1.606
 9361WAT      O28324   7.229   8.874   6.743
 9361WAT     H128325   7.131   8.853   6.754
 9361WAT     H228326   7.284   8.801   6.781
 9362WAT      O28327   1.113   0.939   1.771
 9362WAT     H128328   1.018   0.949   1.801
 9362WAT     H228329   1.174   0.974   1.842
 9363WAT      O28330   5.398   2.129   1.098
 9363WAT     H128331   5.455   2.048   1.110
 9363WAT     H228332   5.317   2.121   1.155
 9364WAT      O28333   9.779   0.117   9.455
 9364WAT     H128334   9.831   0.129   9.539
 9364WAT     H228335   9.833   0.066   9.389
 9365WAT      O28336   5.661   2.651   1.594
 9365WAT     H128337   5.718   2.656   1.677
 9365WAT     H228338   5.710   2.691   1.517
 9366WAT      O28339   7.721   2.242   3.047
 9366WAT     H128340   7.686   2.328   3.084
 9366WAT     H228341   7.820   2.248   3.038
 9367WAT      O28342   4.367   5.691   6.022
 9367WAT     H128343   4.370   5.791   6.034
 9367WAT     H228344   4.402   5.668   5.931
 9368WAT      O28345   0.553   3.368   6.078
 9368WAT     H128346   0.458   3.399   6.081
 9368WAT     H228347   0.603   3.424   6.012
 9369WAT      O28348   8.557   8.211   3.850
 9369WAT     H128349   8.612   8.220   3.933
 9369WAT     H228350   8.461   8.229   3.871
 9370WAT      O28351   2.105   6.268   4.205
 9370WAT     H128352   2.138   6.198   4.142
 9370WAT     H228353   2.157   6.263   4.290
 9371WAT      O28354   1.430   7.775   2.405
 9371WAT     H128355   1.342   7.807   2.438
 9371WAT     H228356   1.436   7.790   2.306
 9372WAT      O28357   0.979   8.136   8.771
 9372WAT     H128358   0.969   8.230   8.803
 9372WAT     H228359   1.039   8.134   8.692
 9373WAT      O28360   7.338   9.771   9.377
 9373WAT     H128361   7.404   9.698   9.395
 9373WAT     H228362   7.322   9.823   9.461
 9374WAT      O28363   0.331   1.462   8.272
 9374WAT     H128364   0.234   1.460   8.296
 9374WAT     H228365   0.365   1.368   8.266
 9375WAT      O28366   9.713   4.687   6.935
 9375WAT     H128367   9.659   4.640   7.004
 9375WAT     H228368   9.682   4.661   6.844
 9376WAT      O28369   3.032   1.020   4.073
 9376WAT     H128370   3.121   0.989   4.039
 9376WAT     H228371   3.044   1.100   4.131
 9377WAT      O28372   1.910   2.144   8.314
 9377WAT     H128373   1.962   2.060   8.299
 9377WAT     H228374   1.959   2.203   8.380
 9378WAT      O28375   9.245   4.704   6.906
 9378WAT     H128376   9.160   4.754   6.890
 9378WAT     H228377   9.268   4.705   7.003
 9379WAT      O28378   9.247   5.776   5.643
 9379WAT     H128379   9.340   5.738   5.649
 9379WAT     H228380   9.219   5.809   5.733
 9380WAT      O28381   8.020   0.513   4.004
 9380WAT     H128382   8.107   0.558   3.981
 9380WAT     H228383   7.972   0.567   4.073
 9381WAT      O28384   6.561   8.534   3.631
 9381WAT     H128385   6.594   8.472   3.703
 9381WAT     H228386   6.463   8.521   3.619
 9382WAT      O28387   6.663   5.686   6.786
 9382WAT     H128388   6.674   5.587   6.793
 9382WAT     H228389   6.744   5.726   6.744
 9383WAT      O28390   7.023   9.719   1.415
 9383WAT     H128391   6.935   9.720   1.463
 9383WAT     H228392   7.008   9.705   1.317
 9384WAT      O28393   3.961   6.148   9.064
 9384WAT     H128394   4.056   6.178   9.061
 9384WAT     H228395   3.952   6.068   9.124
 9385WAT      O28396   3.256   8.829   3.515
 9385WAT     H128397   3.183   8.893   3.491
 9385WAT     H228398   3.227   8.736   3.492
 9386WAT      O28399   0.480   2.936   9.271
 9386WAT     H128400   0.521   2.982   9.193
 9386WAT     H228401   0.468   2.839   9.250
 9387WAT      O28402   5.792   5.318   9.561
 9387WAT     H128403   5.835   5.249   9.503
 9387WAT     H228404   5.850   5.335   9.641
 9388WAT      O28405   3.716   4.370   9.778
 9388WAT     H128406   3.643   4.381   9.845
 9388WAT     H228407   3.716   4.448   9.715
 9389WAT      O28408   4.021   6.419   8.343
 9389WAT     H128409   4.022   6.480   8.264
 9389WAT     H228410   3.938   6.364   8.341
 9390WAT      O28411   4.629   3.469   5.112
 9390WAT     H128412   4.575   3.515   5.183
 9390WAT     H228413   4.574   3.398   5.069
 9391WAT      O28414   4.501   2.329   5.073
 9391WAT     H128415   4.477   2.403   5.135
 9391WAT     H228416   4.568   2.362   5.006
 9392WAT      O28417   7.545   5.508   0.334
 9392WAT     H128418   7.637   5.473   0.346
 9392WAT     H228419   7.545   5.607   0.349
 9393WAT      O28420   6.434   1.515   3.681
 9393WAT     H128421   6.506   1.581   3.703
 9393WAT     H228422   6.344   1.558   3.692
 9394WAT      O28423   3.769   4.281   7.108
 9394WAT     H128424   3.703   4.216   7.072
 9394WAT     H228425   3.858   4.237   7.119
 9395WAT      O28426   8.254   3.096   6.089
 9395WAT     H128427   8.318   3.025   6.119
 9395WAT     H228428   8.281   3.129   5.998
 9396WAT      O28429   0.403   6.431   1.882
 9396WAT     H128430   0.355   6.344   1.873
 9396WAT     H228431   0.376   6.475   1.968
 9397WAT      O28432   6.641   8.608   8.503
 9397WAT     H128433   6.740   8.597   8.499
 9397WAT     H228434   6.615   8.693   8.457
 9398WAT      O28435   0.546   2.948   6.355
 9398WAT     H128436   0.529   3.020   6.288
 9398WAT     H228437   0.460   2.916   6.393
 9399WAT      O28438   4.472   8.494   1.266
 9399WAT     H128439   4.442   8.399   1.261
 9399WAT     H228440   4.438   8.544   1.186
 9400WAT      O28441   1.393   2.998   8.711
 9400WAT     H128442   1.334   2.963   8.639
 9400WAT     H228443   1.362   2.963   8.800
 9401WAT      O28444   8.346   0.925   1.004
 9401WAT     H128445   8.439   0.888   1.003
 9401WAT     H228446   8.335   0.985   1.083
 9402WAT      O28447   2.510   2.967   5.304
 9402WAT     H128448   2.460   2.929   5.382
 9402WAT     H228449   2.485   3.064   5.293
 9403WAT      O28450   6.119   7.753   0.428
 9403WAT     H128451   6.093   7.714   0.516
 9403WAT     H228452   6.215   7.732   0.408
 9404WAT      O28453   9.408   7.361   3.982
 9404WAT     H128454   9.463   7.445   3.977
 9404WAT     H228455   9.379   7.335   3.890
 9405WAT      O28456   1.511   1.740   3.018
 9405WAT     H128457   1.527   1.764   2.922
 9405WAT     H228458   1.573   1.667   3.044
 9406WAT      O28459   5.649   6.301   8.858
 9406WAT     H128460   5.583   6.270   8.926
 9406WAT     H228461   5.604   6.360   8.792
 9407WAT      O28462   0.888   8.969   0.750
 9407WAT     H128463   0.936   8.975   0.837
 9407WAT     H228464   0.934   9.027   0.682
 9408WAT      O28465   5.400   7.411   4.187
 9408WAT     H128466   5.420   7.474   4.112
 9408WAT     H228467   5.380   7.464   4.270
 9409WAT      O28468   7.871   6.814   5.349
 9409WAT     H128469   7.851   6.767   5.434
 9409WAT     H228470   7.964   6.851   5.352
 9410WAT      O28471   9.031   9.115   0.168
 9410WAT     H128472   8.944   9.117   0.118
 9410WAT     H228473   9.027   9.180   0.244
 9411WAT      O28474   3.742   8.821   4.898
 9411WAT     H128475   3.749   8.920   4.895
 9411WAT     H228476   3.736   8.785   4.805
 9412WAT      O28477   5.891   6.971   5.551
 9412WAT     H128478   5.875   7.062   5.590
 9412WAT     H228479   5.949   6.980   5.469
 9413WAT      O28480   6.575   8.456   7.743
 9413WAT     H128481   6.508   8.399   7.695
 9413WAT     H228482   6.600   8.534   7.685
 9414WAT      O28483   7.075   3.877   6.548
 9414WAT     H128484   7.087   3.949   6.616
 9414WAT     H228485   7.128   3.796   6.575
 9415WAT      O28486   5.636   2.969   8.381
 9415WAT     H128487   5.615   2.969   8.479
 9415WAT     H228488   5.682   3.054   8.357
 9416WAT      O28489   9.613   9.350   2.517
 9416WAT     H128490   9.584   9.446   2.521
 9416WAT     H228491   9.602   9.309   2.608
 9417WAT      O28492   3.351   8.707   1.478
 9417WAT     H128493   3.404   8.634   1.434
 9417WAT     H228494   3.313   8.768   1.408
 9418WAT      O28495   2.957   8.763   0.510
 9418WAT     H128496   2.898   8.806   0.441
 9418WAT     H228497   2.974   8.828   0.584
 9419WAT      O28498   0.953   4.701   6.495
 9419WAT     H128499   0.995   4.773   6.439
 9419WAT     H228500   0.929   4.623   6.437
 9420WAT      O28501   9.412   0.569   1.965
 9420WAT     H128502   9.451   0.490   2.013
 9420WAT     H228503   9.313   0.568   1.974
 9421WAT      O28504   8.865   6.304   1.390
 9421WAT     H128505   8.920   6.352   1.458
 9421WAT     H228506   8.869   6.353   1.303
 9422WAT      O28507   9.288   2.206   6.361
 9422WAT     H128508   9.295   2.129   6.297
 9422WAT     H228509   9.326   2.288   6.318
 9423WAT      O28510   5.058   7.616   6.244
 9423WAT     H128511   5.000   7.550   6.196
 9423WAT     H228512   5.140   7.570   6.277
 9424WAT      O28513   9.430   2.813   0.644
 9424WAT     H128514   9.447   2.862   0.559
 9424WAT     H228515   9.331   2.811   0.662
 9425WAT      O28516   9.025   8.188   1.003
 9425WAT     H128517   8.961   8.257   1.035
 9425WAT     H228518   9.113   8.231   0.981
 9426WAT      O28519   3.709   3.013   0.404
 9426WAT     H128520   3.727   3.106   0.373
 9426WAT     H228521   3.793   2.959   0.398
 9427WAT      O28522   2.727   2.056   1.595
 9427WAT     H128523   2.740   1.958   1.611
 9427WAT     H228524   2.650   2.088   1.650
 9428WAT      O28525   8.061   4.255   8.688
 9428WAT     H128526   8.030   4.284   8.779
 9428WAT     H228527   8.127   4.321   8.653
 9429WAT      O28528   5.210   3.155   1.327
 9429WAT     H128529   5.230   3.171   1.424
 9429WAT     H228530   5.113   3.132   1.316
 9430WAT      O28531   0.432   1.580   5.673
 9430WAT     H128532   0.422   1.527   5.589
 9430WAT     H228533   0.491   1.660   5.655
 9431WAT      O28534   8.600   1.673   6.922
 9431WAT     H128535   8.577   1.767   6.897
 9431WAT     H228536   8.529   1.611   6.890
 9432WAT      O28537   7.399   8.896   1.882
 9432WAT     H128538   7.370   8.891   1.787
 9432WAT     H228539   7.499   8.899   1.886
 9433WAT      O28540   0.535   4.168   9.181
 9433WAT     H128541   0.536   4.094   9.248
 9433WAT     H228542   0.615   4.226   9.194
 9434WAT      O28543   7.239   1.184   7.545
 9434WAT     H128544   7.271   1.101   7.499
 9434WAT     H228545   7.250   1.262   7.484
 9435WAT      O28546   3.854   2.112   5.487
 9435WAT     H128547   3.925   2.073   5.545
 9435WAT     H228548   3.779   2.046   5.476
 9436WAT      O28549   5.380   4.112   6.440
 9436WAT     H128550   5.329   4.030   6.466
 9436WAT     H228551   5.371   4.127   6.342
 9437WAT      O28552   1.113   6.529   9.272
 9437WAT     H128553   1.145   6.559   9.183
 9437WAT     H228554   1.190   6.523   9.336
 9438WAT      O28555   6.595   7.989   8.722
 9438WAT     H128556   6.655   7.923   8.767
 9438WAT     H228557   6.562   8.055   8.790
 9439WAT      O28558   8.489   5.445   1.496
 9439WAT     H128559   8.399   5.467   1.532
 9439WAT     H228560   8.542   5.396   1.565
 9440WAT      O28561   0.845   3.955   2.764
 9440WAT     H128562   0.770   3.988   2.706
 9440WAT     H228563   0.815   3.874   2.814
 9441WAT      O28564   4.248   5.753   9.052
 9441WAT     H128565   4.192   5.737   9.134
 9441WAT     H228566   4.245   5.850   9.029
 9442WAT      O28567   8.718   0.146   5.650
 9442WAT     H128568   8.818   0.147   5.641
 9442WAT     H228569   8.691   0.084   5.723
 9443WAT      O28570   3.147   3.254   3.787
 9443WAT     H128571   3.082   3.330   3.790
 9443WAT     H228572   3.111   3.177   3.840
 9444WAT      O28573   6.841   6.983   0.778
 9444WAT     H128574   6.914   6.914   0.778
 9444WAT     H228575   6.802   6.991   0.687
 9445WAT      O28576   6.742   3.216   6.352
 9445WAT     H128577   6.827   3.210   6.300
 9445WAT     H228578   6.710   3.124   6.375
 9446WAT      O28579   2.948   4.291   6.895
 9446WAT     H128580   2.878   4.361   6.878
 9446WAT     H228581   2.903   4.205   6.916
 9447WAT      O28582   5.413   1.493   1.092
 9447WAT     H128583   5.428   1.570   1.155
 9447WAT     H228584   5.331   1.443   1.120
 9448WAT      O28585   4.304   8.056   0.361
 9448WAT     H128586   4.206   8.069   0.375
 9448WAT     H228587   4.326   7.958   0.363
 9449WAT      O28588   1.922   3.335   2.820
 9449WAT     H128589   1.885   3.343   2.913
 9449WAT     H228590   1.975   3.417   2.798
 9450WAT      O28591   6.884   4.804   6.442
 9450WAT     H128592   6.911   4.852   6.358
 9450WAT     H228593   6.943   4.834   6.517
 9451WAT      O28594   3.388   6.288   0.091
 9451WAT     H128595   3.385   6.189   0.103
 9451WAT     H228596   3.480   6.315   0.063
 9452WAT      O28597   0.343   8.984   2.158
 9452WAT     H128598   0.309   9.041   2.232
 9452WAT     H228599   0.431   9.020   2.125
 9453WAT      O28600   1.098   2.818   4.653
 9453WAT     H128601   1.118   2.791   4.558
 9453WAT     H228602   1.181   2.856   4.695
 9454WAT      O28603   7.347   6.059   2.159
 9454WAT     H128604   7.354   6.118   2.079
 9454WAT     H228605   7.314   6.113   2.237
 9455WAT      O28606   0.018   6.125   5.868
 9455WAT     H128607   0.037   6.186   5.945
 9455WAT     H228608  -0.030   6.175   5.796
 9456WAT      O28609   3.820   6.046   2.200
 9456WAT     H128610   3.817   6.050   2.300
 9456WAT     H228611   3.743   6.097   2.162
 9457WAT      O28612   2.452   8.555   7.497
 9457WAT     H128613   2.377   8.491   7.486
 9457WAT     H228614   2.486   8.582   7.406
 9458WAT      O28615   8.828   0.959   3.216
 9458WAT     H128616   8.774   1.014   3.152
 9458WAT     H228617   8.800   0.979   3.310
 9459WAT      O28618   8.507   1.189   0.185
 9459WAT     H128619   8.459   1.185   0.272
 9459WAT     H228620   8.472   1.266   0.131
 9460WAT      O28621   2.583   8.172   7.269
 9460WAT     H128622   2.597   8.217   7.357
 9460WAT     H228623   2.663   8.116   7.247
 9461WAT      O28624   8.004   9.497   0.175
 9461WAT     H128625   8.038   9.474   0.084
 9461WAT     H228626   8.053   9.578   0.209
 9462WAT      O28627   1.429   5.436   6.063
 9462WAT     H128628   1.477   5.505   6.009
 9462WAT     H228629   1.494   5.388   6.122
 9463WAT      O28630   0.448   0.634   3.637
 9463WAT     H128631   0.424   0.726   3.667
 9463WAT     H228632   0.448   0.631   3.537
 9464WAT      O28633   3.245   2.965   7.198
 9464WAT     H128634   3.224   2.966   7.296
 9464WAT     H228635   3.168   3.002   7.146
 9465WAT      O28636   0.245   2.689   1.550
 9465WAT     H128637   0.258   2.637   1.635
 9465WAT     H228638   0.301   2.771   1.553
 9466WAT      O28639   1.080   0.570   3.444
 9466WAT     H128640   0.989   0.612   3.444
 9466WAT     H228641   1.086   0.504   3.370
 9467WAT      O28642   7.975   3.414   3.416
 9467WAT     H128643   8.066   3.450   3.435
 9467WAT     H228644   7.952   3.342   3.481
 9468WAT      O28645   7.628   6.294   6.550
 9468WAT     H128646   7.701   6.278   6.617
 9468WAT     H228647   7.663   6.279   6.458
 9469WAT      O28648   7.890   2.671   4.216
 9469WAT     H128649   7.854   2.763   4.230
 9469WAT     H228650   7.987   2.677   4.193
 9470WAT      O28651   5.359   4.134   2.202
 9470WAT     H128652   5.455   4.157   2.184
 9470WAT     H228653   5.352   4.086   2.289
 9471WAT      O28654   7.853   2.373   4.183
 9471WAT     H128655   7.855   2.470   4.205
 9471WAT     H228656   7.937   2.349   4.133
 9472WAT      O28657   0.098   4.708   0.033
 9472WAT     H128658   0.045   4.791   0.050
 9472WAT     H228659   0.059   4.658  -0.045
 9473WAT      O28660   2.035   6.814   3.394
 9473WAT     H128661   2.108   6.829   3.327
 9473WAT     H228662   1.962   6.881   3.380
 9474WAT      O28663   2.309   4.468   7.590
 9474WAT     H128664   2.375   4.450   7.517
 9474WAT     H228665   2.293   4.384   7.643
 9475WAT      O28666   5.040   1.996   5.032
 9475WAT     H128667   5.031   2.012   5.130
 9475WAT     H228668   5.120   1.939   5.014
 9476WAT      O28669   0.869   8.436   6.412
 9476WAT     H128670   0.866   8.349   6.462
 9476WAT     H228671   0.965   8.459   6.393
 9477WAT      O28672   0.359   1.844   6.482
 9477WAT     H128673   0.269   1.868   6.519
 9477WAT     H228674   0.404   1.926   6.449
 9478WAT      O28675   1.680   2.631   7.550
 9478WAT     H128676   1.734   2.710   7.578
 9478WAT     H228677   1.742   2.558   7.521
 9479WAT      O28678   6.610   9.193   4.544
 9479WAT     H128679   6.564   9.153   4.465
 9479WAT     H228680   6.707   9.209   4.522
 9480WAT      O28681   2.383   7.162   8.473
 9480WAT     H128682   2.419   7.150   8.381
 9480WAT     H228683   2.423   7.094   8.534
 9481WAT      O28684   6.569   2.425   9.637
 9481WAT     H128685   6.614   2.442   9.725
 9481WAT     H228686   6.520   2.338   9.641
 9482WAT      O28687   1.959   0.507   9.736
 9482WAT     H128688   1.938   0.605   9.733
 9482WAT     H228689   1.902   0.462   9.805
 9483WAT      O28690   5.677   5.289   7.452
 9483WAT     H128691   5.656   5.235   7.533
 9483WAT     H228692   5.750   5.244   7.401
 9484WAT      O28693   0.840   3.363   6.693
 9484WAT     H128694   0.852   3.347   6.595
 9484WAT     H228695   0.930   3.368   6.737
 9485WAT      O28696   5.570   1.555   9.286
 9485WAT     H128697   5.597   1.650   9.299
 9485WAT     H228698   5.471   1.547   9.302
 9486WAT      O28699   5.782   8.355   1.706
 9486WAT     H128700   5.879   8.374   1.721
 9486WAT     H228701   5.759   8.266   1.743
 9487WAT      O28702   4.121   5.249   0.149
 9487WAT     H128703   4.170   5.170   0.185
 9487WAT     H228704   4.144   5.330   0.203
 9488WAT      O28705   6.507   7.948   6.251
 9488WAT     H128706   6.604   7.948   6.273
 9488WAT     H228707   6.461   7.876   6.303
 9489WAT      O28708   3.827   3.001   4.272
 9489WAT     H128709   3.761   2.970   4.340
 9489WAT     H228710   3.833   2.933   4.198
 9490WAT      O28711   8.345   7.740   1.672
 9490WAT     H128712   8.346   7.734   1.772
 9490WAT     H228713   8.352   7.649   1.632
 9491WAT      O28714   1.916   1.443   2.901
 9491WAT     H128715   1.903   1.523   2.843
 9491WAT     H228716   2.011   1.437   2.930
 9492WAT      O28717   8.929   1.310   4.110
 9492WAT     H128718   8.973   1.260   4.184
 9492WAT     H228719   8.841   1.345   4.141
 9493WAT      O28720   4.617   2.411   4.844
 9493WAT     H128721   4.582   2.342   4.780
 9493WAT     H228722   4.717   2.417   4.834
 9494WAT      O28723   6.817   9.675   1.603
 9494WAT     H128724   6.850   9.690   1.696
 9494WAT     H228725   6.774   9.759   1.569
 9495WAT      O28726   5.057   8.106   3.222
 9495WAT     H128727   5.106   8.191   3.241
 9495WAT     H228728   5.034   8.101   3.125
 9496WAT      O28729   7.746   2.091   1.559
 9496WAT     H128730   7.675   2.034   1.599
 9496WAT     H228731   7.802   2.036   1.497
 9497WAT      O28732   8.370   2.215   7.038
 9497WAT     H128733   8.372   2.167   6.950
 9497WAT     H228734   8.463   2.240   7.065
 9498WAT      O28735   4.288   1.786   9.099
 9498WAT     H128736   4.315   1.871   9.144
 9498WAT     H228737   4.200   1.755   9.136
 9499WAT      O28738   5.748   1.294   2.171
 9499WAT     H128739   5.652   1.297   2.198
 9499WAT     H228740   5.755   1.260   2.078
 9500WAT      O28741   0.835   8.702   0.441
 9500WAT     H128742   0.747   8.656   0.428
 9500WAT     H228743   0.866   8.689   0.535
 9501WAT      O28744   5.476   9.530   1.581
 9501WAT     H128745   5.473   9.520   1.681
 9501WAT     H228746   5.455   9.625   1.557
 9502WAT      O28747   0.265   7.379   1.645
 9502WAT     H128748   0.241   7.282   1.643
 9502WAT     H228749   0.208   7.428   1.579
 9503WAT      O28750   1.520   1.845   0.904
 9503WAT     H128751   1.553   1.846   0.809
 9503WAT     H228752   1.516   1.751   0.937
 9504WAT      O28753   8.420   1.516   6.827
 9504WAT     H128754   8.339   1.553   6.783
 9504WAT     H228755   8.394   1.437   6.884
 9505WAT      O28756   8.433   1.272   5.642
 9505WAT     H128757   8.525   1.234   5.630
 9505WAT     H228758   8.367   1.216   5.591
 9506WAT      O28759   7.516   1.720   3.761
 9506WAT     H128760   7.530   1.637   3.815
 9506WAT     H228761   7.600   1.774   3.760
 9507WAT      O28762   7.432   2.688   8.405
 9507WAT     H128763   7.516   2.655   8.447
 9507WAT     H228764   7.406   2.775   8.448
 9508WAT      O28765   5.742   5.708   0.466
 9508WAT     H128766   5.647   5.697   0.496
 9508WAT     H228767   5.750   5.790   0.410
 9509WAT      O28768   0.937   5.841   4.969
 9509WAT     H128769   0.970   5.777   4.899
 9509WAT     H228770   0.979   5.818   5.056
 9510WAT      O28771   2.215   9.099   0.944
 9510WAT     H128772   2.233   9.138   0.854
 9510WAT     H228773   2.273   9.018   0.957
 9511WAT      O28774   0.465   1.364   5.927
 9511WAT     H128775   0.398   1.294   5.901
 9511WAT     H228776   0.467   1.436   5.858
 9512WAT      O28777   4.225   0.860   8.648
 9512WAT     H128778   4.208   0.852   8.746
 9512WAT     H228779   4.138   0.863   8.599
 9513WAT      O28780   8.998   4.492   1.969
 9513WAT     H128781   9.071   4.533   2.023
 9513WAT     H228782   8.952   4.562   1.915
 9514WAT      O28783   5.179   0.899   8.809
 9514WAT     H128784   5.109   0.848   8.758
 9514WAT     H228785   5.250   0.931   8.746
 9515WAT      O28786   2.962   7.643   1.912
 9515WAT     H128787   3.034   7.676   1.852
 9515WAT     H228788   2.922   7.560   1.873
 9516WAT      O28789   6.823   8.753   7.593
 9516WAT     H128790   6.880   8.779   7.514
 9516WAT     H228791   6.748   8.695   7.561
 9517WAT      O28792   4.078   2.584   1.155
 9517WAT     H128793   4.015   2.531   1.099
 9517WAT     H228794   4.030   2.618   1.236
 9518WAT      O28795   5.023   8.304   8.318
 9518WAT     H128796   5.099   8.363   8.290
 9518WAT     H228797   4.954   8.301   8.245
 9519WAT      O28798   4.095   3.506   8.661
 9519WAT     H128799   4.173   3.556   8.624
 9519WAT     H228800   4.021   3.571   8.683
 9520WAT      O28801   4.157   7.667   0.300
 9520WAT     H128802   4.160   7.649   0.202
 9520WAT     H228803   4.063   7.685   0.329
 9521WAT      O28804   6.058   7.941   7.956
 9521WAT     H128805   6.066   7.842   7.967
 9521WAT     H228806   6.110   7.970   7.875
 9522WAT      O28807   6.599   4.998   3.596
 9522WAT     H128808   6.540   4.945   3.535
 9522WAT     H228809   6.550   5.078   3.630
 9523WAT      O28810   5.551   6.530   5.869
 9523WAT     H128811   5.608   6.599   5.915
 9523WAT     H228812   5.489   6.574   5.805
 9524WAT      O28813   2.892   4.818   7.565
 9524WAT     H128814   2.854   4.873   7.639
 9524WAT     H228815   2.862   4.856   7.477
 9525WAT      O28816   8.788   6.859   0.317
 9525WAT     H128817   8.763   6.763   0.311
 9525WAT     H228818   8.887   6.868   0.329
 9526WAT      O28819   3.543   7.063   9.040
 9526WAT     H128820   3.640   7.084   9.050
 9526WAT     H228821   3.530   6.964   9.040
 9527WAT      O28822   7.285   7.072   6.642
 9527WAT     H128823   7.340   7.133   6.585
 9527WAT     H228824   7.256   6.993   6.589
 9528WAT      O28825   3.793   9.820   5.616
 9528WAT     H128826   3.716   9.761   5.594
 9528WAT     H228827   3.799   9.832   5.715
 9529WAT      O28828   7.896   5.162   1.972
 9529WAT     H128829   7.829   5.106   2.020
 9529WAT     H228830   7.917   5.120   1.884
 9530WAT      O28831   5.321   2.316   2.237
 9530WAT     H128832   5.294   2.337   2.331
 9530WAT     H228833   5.357   2.399   2.194
 9531WAT      O28834   3.506   7.243   7.838
 9531WAT     H128835   3.454   7.178   7.782
 9531WAT     H228836   3.603   7.218   7.836
 9532WAT      O28837   2.016   5.732   5.393
 9532WAT     H128838   1.961   5.709   5.313
 9532WAT     H228839   2.060   5.820   5.379
 9533WAT      O28840   4.215   5.117   8.778
 9533WAT     H128841   4.137   5.071   8.735
 9533WAT     H228842   4.295   5.057   8.775
 9534WAT      O28843   2.737   1.819   0.658
 9534WAT     H128844   2.688   1.738   0.690
 9534WAT     H228845   2.784   1.798   0.573
 9535WAT      O28846   2.172   6.123   6.104
 9535WAT     H128847   2.114   6.127   6.023
 9535WAT     H228848   2.267   6.107   6.077
 9536WAT      O28849   7.426   2.286   1.780
 9536WAT     H128850   7.398   2.336   1.699
 9536WAT     H228851   7.347   2.239   1.819
 9537WAT      O28852   0.664   5.625   8.022
 9537WAT     H128853   0.682   5.657   7.929
 9537WAT     H228854   0.634   5.702   8.079
 9538WAT      O28855   2.987   6.550   6.080
 9538WAT     H128856   3.014   6.608   6.156
 9538WAT     H228857   2.890   6.527   6.088
 9539WAT      O28858   8.204   6.108   5.985
 9539WAT     H128859   8.303   6.094   5.975
 9539WAT     H228860   8.166   6.139   5.897
 9540WAT      O28861   5.085   3.106   6.804
 9540WAT     H128862   5.124   3.104   6.712
 9540WAT     H228863   5.157   3.087   6.871
 9541WAT      O28864   9.444   3.367   9.216
 9541WAT     H128865   9.361   3.421   9.205
 9541WAT     H228866   9.492   3.363   9.128
 9542WAT      O28867   9.160   1.307   1.781
 9542WAT     H128868   9.255   1.282   1.766
 9542WAT     H228869   9.124   1.350   1.698
 9543WAT      O28870   9.091   9.069   5.753
 9543WAT     H128871   9.055   9.082   5.660
 9543WAT     H228872   9.019   9.035   5.812
 9544WAT      O28873   4.127   3.860   5.785
 9544WAT     H128874   4.169   3.818   5.704
 9544WAT     H228875   4.075   3.940   5.758
 9545WAT      O28876   0.744   6.238   2.146
 9545WAT     H128877   0.668   6.182   2.179
 9545WAT     H228878   0.829   6.205   2.188
 9546WAT      O28879   3.434   1.777   2.124
 9546WAT     H128880   3.454   1.769   2.026
 9546WAT     H228881   3.518   1.765   2.176
 9547WAT      O28882   3.604   6.510   9.876
 9547WAT     H128883   3.548   6.551   9.804
 9547WAT     H228884   3.617   6.413   9.858
 9548WAT      O28885   5.892   0.672   3.164
 9548WAT     H128886   5.947   0.628   3.093
 9548WAT     H228887   5.953   0.705   3.237
 9549WAT      O28888   2.149   8.358   4.192
 9549WAT     H128889   2.089   8.436   4.178
 9549WAT     H228890   2.178   8.322   4.103
 9550WAT      O28891   1.918   5.887   9.191
 9550WAT     H128892   1.879   5.978   9.192
 9550WAT     H228893   1.845   5.819   9.187
 9551WAT      O28894   9.532   0.134   2.468
 9551WAT     H128895   9.562   0.134   2.372
 9551WAT     H228896   9.449   0.190   2.477
 9552WAT      O28897   3.240   7.074   5.232
 9552WAT     H128898   3.153   7.029   5.208
 9552WAT     H228899   3.310   7.004   5.248
 9553WAT      O28900   3.202   0.380   9.322
 9553WAT     H128901   3.270   0.376   9.396
 9553WAT     H228902   3.110   0.376   9.361
 9554WAT      O28903   1.866   6.413   4.223
 9554WAT     H128904   1.797   6.350   4.257
 9554WAT     H228905   1.951   6.364   4.205
 9555WAT      O28906   8.382   1.355   5.111
 9555WAT     H128907   8.464   1.345   5.166
 9555WAT     H228908   8.399   1.320   5.019
 9556WAT      O28909   3.348   6.893   1.026
 9556WAT     H128910   3.386   6.848   1.107
 9556WAT     H228911   3.398   6.978   1.008
 9557WAT      O28912   7.071   9.813   8.845
 9557WAT     H128913   6.999   9.786   8.781
 9557WAT     H228914   7.085   9.912   8.840
 9558WAT      O28915   6.354   5.439   5.904
 9558WAT     H128916   6.316   5.397   5.986
 9558WAT     H228917   6.445   5.401   5.886
 9559WAT      O28918   0.367   1.781   2.000
 9559WAT     H128919   0.444   1.768   2.063
 9559WAT     H228920   0.346   1.694   1.955
 9560WAT      O28921   3.189   0.414   9.790
 9560WAT     H128922   3.167   0.317   9.788
 9560WAT     H228923   3.108   0.466   9.817
 9561WAT      O28924   7.077   5.296   2.880
 9561WAT     H128925   7.082   5.394   2.860
 9561WAT     H228926   7.024   5.250   2.808
 9562WAT      O28927   4.883   3.716   3.957
 9562WAT     H128928   4.841   3.801   3.925
 9562WAT     H228929   4.962   3.694   3.900
 9563WAT      O28930   0.105   5.899   6.723
 9563WAT     H128931   0.027   5.951   6.759
 9563WAT     H228932   0.081   5.859   6.635
 9564WAT      O28933   1.501   8.185   1.247
 9564WAT     H128934   1.477   8.279   1.220
 9564WAT     H228935   1.530   8.134   1.166
 9565WAT      O28936   3.230   4.715   6.605
 9565WAT     H128937   3.141   4.670   6.607
 9565WAT     H228938   3.223   4.806   6.647
 9566WAT      O28939   9.868   1.705   7.212
 9566WAT     H128940   9.940   1.741   7.151
 9566WAT     H228941   9.905   1.631   7.268
 9567WAT      O28942   7.286   8.224   6.149
 9567WAT     H128943   7.247   8.307   6.108
 9567WAT     H228944   7.326   8.167   6.077
 9568WAT      O28945   5.890   7.050   9.553
 9568WAT     H128946   5.885   6.978   9.623
 9568WAT     H228947   5.826   7.123   9.577
 9569WAT      O28948   8.093   6.476   4.920
 9569WAT     H128949   8.146   6.551   4.960
 9569WAT     H228950   8.040   6.511   4.843
 9570WAT      O28951   0.440   3.070   8.721
 9570WAT     H128952   0.426   3.122   8.637
 9570WAT     H228953   0.404   3.121   8.798
 9571WAT      O28954   5.101   3.183   1.759
 9571WAT     H128955   5.017   3.129   1.751
 9571WAT     H228956   5.148   3.160   1.844
 9572WAT      O28957   8.808   2.512   6.522
 9572WAT     H128958   8.797   2.448   6.598
 9572WAT     H228959   8.747   2.485   6.447
 9573WAT      O28960   3.340   4.623   0.462
 9573WAT     H128961   3.365   4.530   0.489
 9573WAT     H228962   3.304   4.672   0.541
 9574WAT      O28963   1.899   4.099   7.682
 9574WAT     H128964   1.944   4.185   7.705
 9574WAT     H228965   1.801   4.115   7.670
 9575WAT      O28966   7.371   3.807   6.873
 9575WAT     H128967   7.356   3.870   6.797
 9575WAT     H228968   7.287   3.800   6.927
 9576WAT      O28969   9.475   9.307   8.201
 9576WAT     H128970   9.455   9.294   8.104
 9576WAT     H228971   9.473   9.219   8.248
 9577WAT      O28972   5.919   4.678   5.151
 9577WAT     H128973   5.917   4.578   5.151
 9577WAT     H228974   5.826   4.713   5.164
 9578WAT      O28975   7.977   1.048   1.635
 9578WAT     H128976   8.068   1.010   1.619
 9578WAT     H228977   7.909   0.990   1.591
 9579WAT      O28978   5.042   4.624   2.447
 9579WAT     H128979   4.961   4.665   2.491
 9579WAT     H228980   5.113   4.693   2.438
 9580WAT      O28981   0.124   1.961   4.448
 9580WAT     H128982   0.122   1.895   4.373
 9580WAT     H228983   0.219   1.985   4.469
 9581WAT      O28984   0.138   9.686   1.668
 9581WAT     H128985   0.042   9.659   1.676
 9581WAT     H228986   0.160   9.754   1.738
 9582WAT      O28987   4.444   6.282   8.686
 9582WAT     H128988   4.370   6.216   8.682
 9582WAT     H228989   4.421   6.356   8.749
 9583WAT      O28990   7.439   8.661   4.659
 9583WAT     H128991   7.522   8.656   4.604
 9583WAT     H228992   7.407   8.755   4.664
 9584WAT      O28993   6.647   4.053   9.236
 9584WAT     H128994   6.717   4.087   9.173
 9584WAT     H228995   6.608   4.129   9.288
 9585WAT      O28996   3.939   8.115   8.394
 9585WAT     H128997   4.036   8.095   8.378
 9585WAT     H228998   3.920   8.111   8.492
 9586WAT      O28999   5.391   0.978   5.461
 9586WAT     H129000   5.451   0.913   5.415
 9586WAT     H229001   5.442   1.025   5.533
 9587WAT      O29002   5.117   7.717   0.673
 9587WAT     H129003   5.140   7.639   0.615
 9587WAT     H229004   5.181   7.792   0.655
 9588WAT      O29005   2.247   9.409   5.854
 9588WAT     H129006   2.330   9.375   5.812
 9588WAT     H229007   2.246   9.385   5.951
 9589WAT      O29008   5.665   0.250   8.941
 9589WAT     H129009   5.727   0.185   8.986
 9589WAT     H229010   5.596   0.281   9.007
 9590WAT      O29011   4.294   9.661   9.210
 9590WAT     H129012   4.232   9.739   9.209
 9590WAT     H229013   4.384   9.688   9.177
 9591WAT      O29014   0.414   2.869   1.238
 9591WAT     H129015   0.320   2.850   1.266
 9591WAT     H229016   0.419   2.963   1.203
 9592WAT      O29017   0.931   5.015   4.014
 9592WAT     H129018   0.860   5.009   4.085
 9592WAT     H229019   0.892   5.058   3.932
 9593WAT      O29020   6.579   9.734   5.904
 9593WAT     H129021   6.666   9.725   5.854
 9593WAT     H229022   6.527   9.810   5.866
 9594WAT      O29023   8.749   7.592   8.026
 9594WAT     H129024   8.714   7.499   8.038
 9594WAT     H229025   8.692   7.656   8.078
 9595WAT      O29026   1.415   7.256   5.450
 9595WAT     H129027   1.499   7.222   5.408
 9595WAT     H229028   1.399   7.350   5.421
 9596WAT      O29029   7.368   0.366   0.490
 9596WAT     H129030   7.335   0.299   0.424
 9596WAT     H229031   7.410   0.443   0.442
 9597WAT      O29032   3.374   6.247   8.024
 9597WAT     H129033   3.400   6.241   8.120
 9597WAT     H229034   3.321   6.166   7.999
 9598WAT      O29035   4.941   6.551   5.858
 9598WAT     H129036   4.883   6.549   5.777
 9598WAT     H229037   5.011   6.480   5.850
 9599WAT      O29038   4.489   8.437   4.602
 9599WAT     H129039   4.481   8.426   4.503
 9599WAT     H229040   4.487   8.534   4.625
 9600WAT      O29041   2.534   4.750   6.844
 9600WAT     H129042   2.540   4.705   6.755
 9600WAT     H229043   2.619   4.801   6.861
 9601WAT      O29044   5.624   6.967   3.221
 9601WAT     H129045   5.584   7.027   3.152
 9601WAT     H229046   5.551   6.931   3.279
 9602WAT      O29047   9.035   6.742   7.328
 9602WAT     H129048   8.956   6.714   7.273
 9602WAT     H229049   9.036   6.842   7.336
 9603WAT      O29050   1.841   8.771   5.159
 9603WAT     H129051   1.819   8.695   5.221
 9603WAT     H229052   1.788   8.852   5.185
 9604WAT      O29053   9.229   0.440   9.245
 9604WAT     H129054   9.278   0.517   9.204
 9604WAT     H229055   9.283   0.357   9.234
 9605WAT      O29056   9.816   7.598   6.172
 9605WAT     H129057   9.822   7.650   6.257
 9605WAT     H229058   9.844   7.504   6.188
 9606WAT      O29059   4.045   1.316   4.020
 9606WAT     H129060   4.056   1.410   4.053
 9606WAT     H229061   4.014   1.318   3.925
 9607WAT      O29062   8.631   0.020   9.492
 9607WAT     H129063   8.727  -0.005   9.505
 9607WAT     H229064   8.574  -0.037   9.549
 9608WAT      O29065   6.275   2.087   6.378
 9608WAT     H129066   6.308   2.171   6.335
 9608WAT     H229067   6.195   2.053   6.328
 9609WAT      O29068   9.726   7.822   1.092
 9609WAT     H129069   9.802   7.757   1.090
 9609WAT     H229070   9.730   7.876   1.176
 9610WAT      O29071   0.971   4.325   4.903
 9610WAT     H129072   0.922   4.311   4.817
 9610WAT     H229073   1.041   4.395   4.891
 9611WAT      O29074   3.844   0.347   5.102
 9611WAT     H129075   3.790   0.416   5.053
 9611WAT     H229076   3.790   0.264   5.112
 9612WAT      O29077   4.580   0.474   4.696
 9612WAT     H129078   4.641   0.413   4.645
 9612WAT     H229079   4.583   0.451   4.793
 9613WAT      O29080   7.113   0.428   3.118
 9613WAT     H129081   7.196   0.484   3.111
 9613WAT     H229082   7.081   0.428   3.212
 9614WAT      O29083   6.892   6.532   5.974
 9614WAT     H129084   6.986   6.560   5.960
 9614WAT     H229085   6.850   6.508   5.887
 9615WAT      O29086   0.476   3.587   4.879
 9615WAT     H129087   0.438   3.634   4.800
 9615WAT     H229088   0.408   3.586   4.953
 9616WAT      O29089   5.980   0.633   6.414
 9616WAT     H129090   6.006   0.544   6.451
 9616WAT     H229091   6.062   0.681   6.383
 9617WAT      O29092   7.154   5.204   3.273
 9617WAT     H129093   7.199   5.292   3.264
 9617WAT     H229094   7.104   5.200   3.360
 9618WAT      O29095   9.045   9.184   1.920
 9618WAT     H129096   8.992   9.102   1.899
 9618WAT     H229097   9.022   9.216   2.011
 9619WAT      O29098   7.923   0.668   2.662
 9619WAT     H129099   7.947   0.603   2.734
 9619WAT     H229100   7.858   0.625   2.600
 9620WAT      O29101   5.217   1.532   8.129
 9620WAT     H129102   5.176   1.473   8.198
 9620WAT     H229103   5.317   1.525   8.135
 9621WAT      O29104   3.991   6.235   5.124
 9621WAT     H129105   4.004   6.334   5.117
 9621WAT     H229106   4.058   6.197   5.187
 9622WAT      O29107   1.163   1.610   8.252
 9622WAT     H129108   1.242   1.555   8.223
 9622WAT     H229109   1.191   1.672   8.325
 9623WAT      O29110   9.874   0.756   6.399
 9623WAT     H129111   9.799   0.767   6.334
 9623WAT     H229112   9.930   0.678   6.372
 9624WAT      O29113   4.705   5.961   6.325
 9624WAT     H129114   4.705   5.952   6.225
 9624WAT     H229115   4.789   6.008   6.353
 9625WAT      O29116   0.223   9.069   1.918
 9625WAT     H129117   0.257   8.975   1.924
 9625WAT     H229118   0.166   9.090   1.997
 9626WAT      O29119   1.200   8.586   5.751
 9626WAT     H129120   1.250   8.667   5.721
 9626WAT     H229121   1.128   8.565   5.685
 9627WAT      O29122   7.262   4.612   8.092
 9627WAT     H129123   7.173   4.634   8.131
 9627WAT     H229124   7.265   4.641   7.997
 9628WAT      O29125   0.328   9.415   8.284
 9628WAT     H129126   0.232   9.392   8.265
 9628WAT     H229127   0.342   9.419   8.383
 9629WAT      O29128   0.790   0.440   9.279
 9629WAT     H129129   0.728   0.377   9.325
 9629WAT     H229130   0.884   0.408   9.288
 9630WAT      O29131   3.548   2.081   2.498
 9630WAT     H129132   3.560   2.115   2.405
 9630WAT     H229133   3.574   1.985   2.503
 9631WAT      O29134   3.204   9.452   6.234
 9631WAT     H129135   3.156   9.431   6.320
 9631WAT     H229136   3.152   9.414   6.157
 9632WAT      O29137   2.516   5.110   9.833
 9632WAT     H129138   2.474   5.020   9.851
 9632WAT     H229139   2.544   5.115   9.737
 9633WAT      O29140   5.038   8.876   1.175
 9633WAT     H129141   4.956   8.878   1.233
 9633WAT     H229142   5.078   8.784   1.178
 9634WAT      O29143   1.451   2.368   4.105
 9634WAT     H129144   1.375   2.416   4.148
 9634WAT     H229145   1.512   2.332   4.175
 9635WAT      O29146   0.918   1.144   7.768
 9635WAT     H129147   0.830   1.183   7.794
 9635WAT     H229148   0.908   1.046   7.751
 9636WAT      O29149   8.837   7.965   0.179
 9636WAT     H129150   8.826   7.915   0.264
 9636WAT     H229151   8.837   8.064   0.198
 9637WAT      O29152   9.598   7.466   7.814
 9637WAT     H129153   9.500   7.462   7.794
 9637WAT     H229154   9.650   7.468   7.728
 9638WAT      O29155   7.930   6.123   5.101
 9638WAT     H129156   7.879   6.086   5.178
 9638WAT     H229157   8.023   6.084   5.101
 9639WAT      O29158   8.414   3.628   3.323
 9639WAT     H129159   8.496   3.591   3.279
 9639WAT     H229160   8.339   3.562   3.315
 9640WAT      O29161   8.658   4.516   3.901
 9640WAT     H129162   8.712   4.440   3.938
 9640WAT     H229163   8.618   4.489   3.814
 9641WAT      O29164   9.484   8.422   8.603
 9641WAT     H129165   9.473   8.393   8.698
 9641WAT     H229166   9.395   8.444   8.563
 9642WAT      O29167   9.497   6.871   6.340
 9642WAT     H129168   9.571   6.853   6.404
 9642WAT     H229169   9.535   6.901   6.252
 9643WAT      O29170   3.131   1.458   2.300
 9643WAT     H129171   3.108   1.541   2.350
 9643WAT     H229172   3.228   1.458   2.278
 9644WAT      O29173   7.810   1.283   2.320
 9644WAT     H129174   7.824   1.199   2.267
 9644WAT     H229175   7.857   1.358   2.275
 9645WAT      O29176   6.409   7.300   1.304
 9645WAT     H129177   6.333   7.308   1.240
 9645WAT     H229178   6.406   7.375   1.369
 9646WAT      O29179   3.156   4.834   5.379
 9646WAT     H129180   3.067   4.792   5.360
 9646WAT     H229181   3.226   4.793   5.320
 9647WAT      O29182   0.803   7.873   6.581
 9647WAT     H129183   0.720   7.903   6.627
 9647WAT     H229184   0.788   7.871   6.483
 9648WAT      O29185   7.500   5.735   3.223
 9648WAT     H129186   7.499   5.790   3.140
 9648WAT     H229187   7.582   5.756   3.276
 9649WAT      O29188   2.363   4.706   9.846
 9649WAT     H129189   2.318   4.792   9.821
 9649WAT     H229190   2.341   4.683   9.940
 9650WAT      O29191   3.469   8.622   6.110
 9650WAT     H129192   3.369   8.620   6.116
 9650WAT     H229193   3.507   8.665   6.192
 9651WAT      O29194   4.124   0.052   3.424
 9651WAT     H129195   4.168   0.108   3.355
 9651WAT     H229196   4.182   0.046   3.505
 9652WAT      O29197   1.678   9.795   8.003
 9652WAT     H129198   1.720   9.860   8.065
 9652WAT     H229199   1.590   9.831   7.970
 9653WAT      O29200   7.461   2.081   3.401
 9653WAT     H129201   7.507   2.001   3.439
 9653WAT     H229202   7.520   2.161   3.409
 9654WAT      O29203   4.279   0.276   6.535
 9654WAT     H129204   4.356   0.214   6.518
 9654WAT     H229205   4.219   0.276   6.455
 9655WAT      O29206   2.668   2.022   9.038
 9655WAT     H129207   2.755   2.003   9.084
 9655WAT     H229208   2.593   1.986   9.094
 9656WAT      O29209   8.601   1.069   0.666
 9656WAT     H129210   8.643   1.016   0.592
 9656WAT     H229211   8.672   1.118   0.716
 9657WAT      O29212   2.821   9.471   6.699
 9657WAT     H129213   2.833   9.373   6.715
 9657WAT     H229214   2.796   9.486   6.603
 9658WAT      O29215   3.369   7.893   7.859
 9658WAT     H129216   3.461   7.909   7.896
 9658WAT     H229217   3.319   7.979   7.856
 9659WAT      O29218   3.778   7.752   7.777
 9659WAT     H129219   3.710   7.812   7.818
 9659WAT     H229220   3.758   7.741   7.680
 9660WAT      O29221   3.967   0.116   0.345
 9660WAT     H129222   4.048   0.152   0.392
 9660WAT     H229223   3.913   0.062   0.410
 9661WAT      O29224   9.361   8.562   5.709
 9661WAT     H129225   9.269   8.578   5.745
 9661WAT     H229226   9.399   8.648   5.674
 9662WAT      O29227   4.986   9.562   4.219
 9662WAT     H129228   4.924   9.508   4.277
 9662WAT     H229229   5.062   9.596   4.274
 9663WAT      O29230   6.562   9.552   8.187
 9663WAT     H129231   6.565   9.647   8.219
 9663WAT     H229232   6.619   9.543   8.105
 9664WAT      O29233   9.565   8.678   9.079
 9664WAT     H129234   9.637   8.675   9.010
 9664WAT     H229235   9.547   8.585   9.112
 9665WAT      O29236   9.858   1.766   1.850
 9665WAT     H129237   9.846   1.667   1.837
 9665WAT     H229238   9.875   1.784   1.947
 9666WAT      O29239   5.601   8.033   4.241
 9666WAT     H129240   5.528   7.991   4.187
 9666WAT     H229241   5.561   8.081   4.319
 9667WAT      O29242   0.550   5.363   8.069
 9667WAT     H129243   0.480   5.364   7.998
 9667WAT     H229244   0.586   5.456   8.083
 9668WAT      O29245   4.581   2.403   0.450
 9668WAT     H129246   4.617   2.365   0.365
 9668WAT     H229247   4.653   2.455   0.496
 9669WAT      O29248   9.160   4.585   5.194
 9669WAT     H129249   9.227   4.512   5.184
 9669WAT     H229250   9.183   4.640   5.274
 9670WAT      O29251   8.653   5.521   0.503
 9670WAT     H129252   8.683   5.585   0.573
 9670WAT     H229253   8.558   5.495   0.520
 9671WAT      O29254   7.024   9.137   6.822
 9671WAT     H129255   7.031   9.187   6.736
 9671WAT     H229256   7.004   9.041   6.804
 9672WAT      O29257   5.670   2.722   7.200
 9672WAT     H129258   5.614   2.720   7.282
 9672WAT     H229259   5.652   2.639   7.146
 9673WAT      O29260   2.357   5.290   5.267
 9673WAT     H129261   2.436   5.344   5.238
 9673WAT     H229262   2.287   5.351   5.303
 9674WAT      O29263   9.777   4.110   4.155
 9674WAT     H129264   9.708   4.071   4.214
 9674WAT     H229265   9.858   4.051   4.153
 9675WAT      O29266   4.370   5.702   6.317
 9675WAT     H129267   4.438   5.760   6.362
 9675WAT     H229268   4.416   5.634   6.259
 9676WAT      O29269   0.212   3.955   2.567
 9676WAT     H129270   0.303   3.931   2.602
 9676WAT     H229271   0.197   4.053   2.578
 9677WAT      O29272   9.355   5.668   3.451
 9677WAT     H129273   9.318   5.757   3.478
 9677WAT     H229274   9.296   5.596   3.486
 9678WAT      O29275   5.890   0.678   9.633
 9678WAT     H129276   5.844   0.736   9.700
 9678WAT     H229277   5.822   0.640   9.569
 9679WAT      O29278   4.575   3.756   7.525
 9679WAT     H129279   4.559   3.657   7.528
 9679WAT     H229280   4.611   3.786   7.614
 9680WAT      O29281   0.734   3.694   1.666
 9680WAT     H129282   0.691   3.694   1.575
 9680WAT     H229283   0.712   3.779   1.713
 9681WAT      O29284   9.203   1.634   3.131
 9681WAT     H129285   9.193   1.561   3.199
 9681WAT     H229286   9.117   1.685   3.124
 9682WAT      O29287   3.117   5.726   4.955
 9682WAT     H129288   3.114   5.773   4.866
 9682WAT     H229289   3.036   5.668   4.964
 9683WAT      O29290   8.465   0.427   2.050
 9683WAT     H129291   8.560   0.395   2.057
 9683WAT     H229292   8.462   0.508   1.992
 9684WAT      O29293   6.826   2.077   5.457
 9684WAT     H129294   6.761   2.150   5.436
 9684WAT     H229295   6.780   1.988   5.453
 9685WAT      O29296   5.647   2.245   6.667
 9685WAT     H129297   5.657   2.164   6.725
 9685WAT     H229298   5.732   2.297   6.666
 9686WAT      O29299   7.719   8.705   5.097
 9686WAT     H129300   7.667   8.758   5.030
 9686WAT     H229301   7.693   8.609   5.089
 9687WAT      O29302   9.116   4.782   6.348
 9687WAT     H129303   9.168   4.846   6.404
 9687WAT     H229304   9.027   4.822   6.326
 9688WAT      O29305   2.259   4.745   8.389
 9688WAT     H129306   2.177   4.803   8.390
 9688WAT     H229307   2.340   4.802   8.371
 9689WAT      O29308   2.017   7.594   4.898
 9689WAT     H129309   1.930   7.544   4.896
 9689WAT     H229310   1.999   7.692   4.893
 9690WAT      O29311   8.566   1.656   0.272
 9690WAT     H129312   8.573   1.669   0.173
 9690WAT     H229313   8.564   1.558   0.293
 9691WAT      O29314   7.261   0.445   5.846
 9691WAT     H129315   7.328   0.426   5.775
 9691WAT     H229316   7.172   0.410   5.818
 9692WAT      O29317   5.839   1.172   4.021
 9692WAT     H129318   5.912   1.149   3.957
 9692WAT     H229319   5.845   1.268   4.046
 9693WAT      O29320   3.270   9.229   2.821
 9693WAT     H129321   3.331   9.227   2.741
 9693WAT     H229322   3.179   9.259   2.792
 9694WAT      O29323   1.734   9.351   4.766
 9694WAT     H129324   1.832   9.342   4.746
 9694WAT     H229325   1.681   9.309   4.692
 9695WAT      O29326   6.175   6.760   5.544
 9695WAT     H129327   6.216   6.848   5.520
 9695WAT     H229328   6.225   6.720   5.621
 9696WAT      O29329   4.129   9.363   4.048
 9696WAT     H129330   4.189   9.318   3.983
 9696WAT     H229331   4.137   9.462   4.038
 9697WAT      O29332   7.656   6.537   3.184
 9697WAT     H129333   7.671   6.587   3.269
 9697WAT     H229334   7.638   6.441   3.205
 9698WAT      O29335   4.425   8.834   8.754
 9698WAT     H129336   4.404   8.931   8.768
 9698WAT     H229337   4.408   8.810   8.658
 9699WAT      O29338   1.740   4.699   8.579
 9699WAT     H129339   1.703   4.609   8.600
 9699WAT     H229340   1.840   4.697   8.586
 9700WAT      O29341   1.558   4.954   4.199
 9700WAT     H129342   1.642   4.950   4.146
 9700WAT     H229343   1.480   4.969   4.138
 9701WAT      O29344   5.597   7.071   8.291
 9701WAT     H129345   5.631   6.977   8.290
 9701WAT     H229346   5.525   7.080   8.359
 9702WAT      O29347   9.816   8.662   8.945
 9702WAT     H129348   9.847   8.588   8.885
 9702WAT     H229349   9.880   8.674   9.020
 9703WAT      O29350   2.731   5.584   4.692
 9703WAT     H129351   2.715   5.491   4.658
 9703WAT     H229352   2.793   5.632   4.630
 9704WAT      O29353   9.025   1.202   5.010
 9704WAT     H129354   9.102   1.255   4.976
 9704WAT     H229355   9.058   1.122   5.060
 9705WAT      O29356   7.025   4.148   1.574
 9705WAT     H129357   6.930   4.132   1.600
 9705WAT     H229358   7.068   4.060   1.554
 9706WAT      O29359   5.991   5.247   0.342
 9706WAT     H129360   5.996   5.346   0.354
 9706WAT     H229361   6.054   5.202   0.406
 9707WAT      O29362   3.921   6.511   7.962
 9707WAT     H129363   3.914   6.480   7.867
 9707WAT     H229364   4.018   6.525   7.985
 9708WAT      O29365   7.885   9.300   4.491
 9708WAT     H129366   7.959   9.248   4.450
 9708WAT     H229367   7.868   9.267   4.583
 9709WAT      O29368   4.370   9.101   9.718
 9709WAT     H129369   4.433   9.158   9.665
 9709WAT     H229370   4.276   9.124   9.694
 9710WAT      O29371   8.306   0.838   2.511
 9710WAT     H129372   8.380   0.844   2.444
 9710WAT     H229373   8.251   0.756   2.492
 9711WAT      O29374   7.880   9.019   0.754
 9711WAT     H129375   7.944   9.050   0.684
 9711WAT     H229376   7.838   9.098   0.799
 9712WAT      O29377   0.419   3.281   9.870
 9712WAT     H129378   0.412   3.188   9.906
 9712WAT     H229379   0.400   3.347   9.943
 9713WAT      O29380   7.472   6.727   8.934
 9713WAT     H129381   7.384   6.734   8.981
 9713WAT     H229382   7.510   6.819   8.921
 9714WAT      O29383   0.543   2.328   9.383
 9714WAT     H129384   0.504   2.238   9.403
 9714WAT     H229385   0.571   2.331   9.287
 9715WAT      O29386   3.200   3.529   1.333
 9715WAT     H129387   3.211   3.617   1.379
 9715WAT     H229388   3.284   3.475   1.345
 9716WAT      O29389   3.519   6.256   2.652
 9716WAT     H129390   3.432   6.278   2.696
 9716WAT     H229391   3.543   6.160   2.670
 9717WAT      O29392   7.354   6.450   9.789
 9717WAT     H129393   7.328   6.362   9.749
 9717WAT     H229394   7.389   6.436   9.881
 9718WAT      O29395   0.407   0.558   0.891
 9718WAT     H129396   0.320   0.510   0.884
 9718WAT     H229397   0.440   0.581   0.799
 9719WAT      O29398   2.849   4.165   4.939
 9719WAT     H129399   2.899   4.235   4.990
 9719WAT     H229400   2.847   4.080   4.990
 9720WAT      O29401   8.624   7.571   7.684
 9720WAT     H129402   8.618   7.645   7.618
 9720WAT     H229403   8.548   7.576   7.748
 9721WAT      O29404   0.123   8.144   9.455
 9721WAT     H129405   0.210   8.143   9.504
 9721WAT     H229406   0.104   8.053   9.418
 9722WAT      O29407   1.676   5.226   5.089
 9722WAT     H129408   1.622   5.276   5.157
 9722WAT     H229409   1.619   5.205   5.010
 9723WAT      O29410   2.139   8.652   1.156
 9723WAT     H129411   2.061   8.590   1.157
 9723WAT     H229412   2.125   8.724   1.224
 9724WAT      O29413   9.439   8.261   3.315
 9724WAT     H129414   9.446   8.161   3.313
 9724WAT     H229415   9.528   8.301   3.291
 9725WAT      O29416   3.753   6.708   8.001
 9725WAT     H129417   3.824   6.642   7.976
 9725WAT     H229418   3.736   6.703   8.099
 9726WAT      O29419   6.679   0.859   7.226
 9726WAT     H129420   6.707   0.802   7.303
 9726WAT     H229421   6.610   0.925   7.257
 9727WAT      O29422   1.820   6.755   7.757
 9727WAT     H129423   1.871   6.839   7.743
 9727WAT     H229424   1.850   6.686   7.691
 9728WAT      O29425   4.885   0.523   5.021
 9728WAT     H129426   4.810   0.582   5.051
 9728WAT     H229427   4.932   0.566   4.944
 9729WAT      O29428   6.205   5.303   9.878
 9729WAT     H129429   6.125   5.306   9.818
 9729WAT     H229430   6.198   5.376   9.946
 9730WAT      O29431   9.625   9.080   7.296
 9730WAT     H129432   9.625   8.997   7.240
 9730WAT     H229433   9.718   9.116   7.301
 9731WAT      O29434   7.142   0.153   7.410
 9731WAT     H129435   7.204   0.127   7.336
 9731WAT     H229436   7.195   0.188   7.488
 9732WAT      O29437   6.589   7.400   4.374
 9732WAT     H129438   6.495   7.433   4.378
 9732WAT     H229439   6.592   7.304   4.402
 9733WAT      O29440   4.493   2.718   5.412
 9733WAT     H129441   4.488   2.816   5.391
 9733WAT     H229442   4.497   2.705   5.511
 9734WAT      O29443   1.119   8.689   8.594
 9734WAT     H129444   1.094   8.781   8.566
 9734WAT     H229445   1.122   8.630   8.513
 9735WAT      O29446   2.195   6.545   8.750
 9735WAT     H129447   2.130   6.469   8.758
 9735WAT     H229448   2.216   6.581   8.841
 9736WAT      O29449   9.710   7.795   8.647
 9736WAT     H129450   9.642   7.818   8.717
 9736WAT     H229451   9.670   7.807   8.556
 9737WAT      O29452   1.679   4.525   6.858
 9737WAT     H129453   1.722   4.586   6.792
 9737WAT     H229454   1.592   4.492   6.822
 9738WAT      O29455   9.600   4.466   4.430
 9738WAT     H129456   9.607   4.367   4.442
 9738WAT     H229457   9.598   4.510   4.519
 9739WAT      O29458   0.384   6.452   0.425
 9739WAT     H129459   0.384   6.444   0.525
 9739WAT     H229460   0.408   6.365   0.384
 9740WAT      O29461   8.690   5.495   9.491
 9740WAT     H129462   8.768   5.555   9.509
 9740WAT     H229463   8.688   5.471   9.394
 9741WAT      O29464   4.652   7.275   0.084
 9741WAT     H129465   4.721   7.304   0.150
 9741WAT     H229466   4.664   7.177   0.064
 9742WAT      O29467   4.523   7.555   0.546
 9742WAT     H129468   4.490   7.596   0.461
 9742WAT     H229469   4.484   7.463   0.556
 9743WAT      O29470   6.213   7.000   7.139
 9743WAT     H129471   6.196   7.088   7.094
 9743WAT     H229472   6.267   7.014   7.221
 9744WAT      O29473   8.184   8.593   2.999
 9744WAT     H129474   8.154   8.619   2.907
 9744WAT     H229475   8.119   8.627   3.067
 9745WAT      O29476   6.737   5.114   1.749
 9745WAT     H129477   6.664   5.160   1.699
 9745WAT     H229478   6.820   5.112   1.693
 9746WAT      O29479   9.224   4.166   3.758
 9746WAT     H129480   9.173   4.081   3.773
 9746WAT     H229481   9.320   4.152   3.783
 9747WAT      O29482   0.914   6.153   7.224
 9747WAT     H129483   1.000   6.138   7.176
 9747WAT     H229484   0.840   6.106   7.175
 9748WAT      O29485   7.700   8.791   8.692
 9748WAT     H129486   7.699   8.881   8.735
 9748WAT     H229487   7.609   8.751   8.696
 9749WAT      O29488   2.345   1.212   6.240
 9749WAT     H129489   2.424   1.150   6.242
 9749WAT     H229490   2.370   1.300   6.280
 9750WAT      O29491   8.960   9.250   3.583
 9750WAT     H129492   8.916   9.189   3.517
 9750WAT     H229493   8.937   9.344   3.561
 9751WAT      O29494   0.129   8.465   4.470
 9751WAT     H129495   0.166   8.418   4.550
 9751WAT     H229496   0.050   8.519   4.498
 9752WAT      O29497   3.615   0.114   7.129
 9752WAT     H129498   3.683   0.068   7.185
 9752WAT     H229499   3.636   0.101   7.032
 9753WAT      O29500   1.328   2.285   9.578
 9753WAT     H129501   1.313   2.369   9.631
 9753WAT     H229502   1.295   2.300   9.484
 9754WAT      O29503   7.265   5.816   5.929
 9754WAT     H129504   7.302   5.868   5.852
 9754WAT     H229505   7.177   5.855   5.957
 9755WAT      O29506   3.654   7.563   5.719
 9755WAT     H129507   3.690   7.479   5.760
 9755WAT     H229508   3.557   7.550   5.696
 9756WAT      O29509   1.560   0.419   6.108
 9756WAT     H129510   1.461   0.419   6.098
 9756WAT     H229511   1.585   0.469   6.191
 9757WAT      O29512   1.526   2.966   5.715
 9757WAT     H129513   1.598   2.912   5.672
 9757WAT     H229514   1.544   2.972   5.813
 9758WAT      O29515   5.415   4.992   0.168
 9758WAT     H129516   5.355   4.973   0.090
 9758WAT     H229517   5.439   4.906   0.213
 9759WAT      O29518   6.198   9.785   2.272
 9759WAT     H129519   6.175   9.871   2.319
 9759WAT     H229520   6.202   9.802   2.173
 9760WAT      O29521   2.141   0.404   4.229
 9760WAT     H129522   2.204   0.335   4.194
 9760WAT     H229523   2.141   0.483   4.168
 9761WAT      O29524   2.774   2.505   8.022
 9761WAT     H129525   2.731   2.477   7.936
 9761WAT     H229526   2.731   2.589   8.055
 9762WAT      O29527   0.587   3.790   9.602
 9762WAT     H129528   0.499   3.748   9.579
 9762WAT     H229529   0.578   3.844   9.685
 9763WAT      O29530   6.725   5.771   4.705
 9763WAT     H129531   6.789   5.755   4.630
 9763WAT     H229532   6.633   5.784   4.669
 9764WAT      O29533   8.069   7.608   3.439
 9764WAT     H129534   8.095   7.542   3.368
 9764WAT     H229535   8.025   7.687   3.395
 9765WAT      O29536   0.779   2.080   9.465
 9765WAT     H129537   0.823   2.045   9.548
 9765WAT     H229538   0.680   2.071   9.474
 9766WAT      O29539   3.892   7.995   4.037
 9766WAT     H129540   3.862   7.934   3.963
 9766WAT     H229541   3.819   8.004   4.104
 9767WAT      O29542   0.148   9.783   5.210
 9767WAT     H129543   0.091   9.810   5.132
 9767WAT     H229544   0.230   9.839   5.213
 9768WAT      O29545   1.521   7.224   6.550
 9768WAT     H129546   1.544   7.321   6.550
 9768WAT     H229547   1.604   7.169   6.561
 9769WAT      O29548   2.698   7.938   0.859
 9769WAT     H129549   2.607   7.925   0.898
 9769WAT     H229550   2.761   7.969   0.930
 9770WAT      O29551   6.926   7.861   0.696
 9770WAT     H129552   6.946   7.818   0.608
 9770WAT     H229553   6.954   7.956   0.694
 9771WAT      O29554   2.271   7.975   5.948
 9771WAT     H129555   2.341   8.002   5.882
 9771WAT     H229556   2.312   7.911   6.014
 9772WAT      O29557   0.711   2.993   8.754
 9772WAT     H129558   0.614   3.003   8.777
 9772WAT     H229559   0.765   3.054   8.813
 9773WAT      O29560   7.228   2.175   5.866
 9773WAT     H129561   7.288   2.217   5.798
 9773WAT     H229562   7.276   2.100   5.912
 9774WAT      O29563   0.312   0.880   8.723
 9774WAT     H129564   0.306   0.796   8.776
 9774WAT     H229565   0.241   0.944   8.753
 9775WAT      O29566   0.573   2.675   3.855
 9775WAT     H129567   0.605   2.703   3.945
 9775WAT     H229568   0.497   2.734   3.826
 9776WAT      O29569   3.496   5.244   3.529
 9776WAT     H129570   3.405   5.203   3.529
 9776WAT     H229571   3.488   5.342   3.545
 9777WAT      O29572   4.741   5.817   7.783
 9777WAT     H129573   4.792   5.746   7.833
 9777WAT     H229574   4.800   5.859   7.715
 9778WAT      O29575   1.142   4.509   5.198
 9778WAT     H129576   1.097   4.522   5.286
 9778WAT     H229577   1.239   4.495   5.212
 9779WAT      O29578   3.207   4.739   1.993
 9779WAT     H129579   3.243   4.802   2.061
 9779WAT     H229580   3.283   4.692   1.948
 9780WAT      O29581   0.655   1.006   6.119
 9780WAT     H129582   0.681   0.910   6.132
 9780WAT     H229583   0.576   1.027   6.176
 9781WAT      O29584   6.307   8.875   9.378
 9781WAT     H129585   6.319   8.961   9.329
 9781WAT     H229586   6.305   8.893   9.476
 9782WAT      O29587   9.207   2.774   8.784
 9782WAT     H129588   9.179   2.784   8.879
 9782WAT     H229589   9.130   2.797   8.724
 9783WAT      O29590   1.609   5.597   2.428
 9783WAT     H129591   1.618   5.578   2.330
 9783WAT     H229592   1.651   5.686   2.448
 9784WAT      O29593   4.269   4.214   7.598
 9784WAT     H129594   4.284   4.181   7.691
 9784WAT     H229595   4.234   4.308   7.602
 9785WAT      O29596   3.572   2.948   4.696
 9785WAT     H129597   3.663   2.943   4.738
 9785WAT     H229598   3.526   3.032   4.727
 9786WAT      O29599   9.586   1.002   7.627
 9786WAT     H129600   9.671   1.016   7.677
 9786WAT     H229601   9.508   1.015   7.689
 9787WAT      O29602   8.444   3.610   4.360
 9787WAT     H129603   8.430   3.569   4.451
 9787WAT     H229604   8.408   3.703   4.360
 9788WAT      O29605   8.592   6.008   2.984
 9788WAT     H129606   8.651   5.945   3.034
 9788WAT     H229607   8.540   5.958   2.915
 9789WAT      O29608   0.055   0.626   5.907
 9789WAT     H129609   0.028   0.531   5.925
 9789WAT     H229610  -0.020   0.674   5.860
 9790WAT      O29611   6.477   7.805   8.312
 9790WAT     H129612   6.523   7.720   8.336
 9790WAT     H229613   6.431   7.842   8.393
 9791WAT      O29614   8.565   4.383   7.896
 9791WAT     H129615   8.486   4.324   7.877
 9791WAT     H229616   8.572   4.453   7.825
 9792WAT      O29617   7.079   3.496   0.892
 9792WAT     H129618   7.119   3.412   0.928
 9792WAT     H229619   7.068   3.562   0.966
 9793WAT      O29620   9.246   2.986   6.062
 9793WAT     H129621   9.148   2.999   6.081
 9793WAT     H229622   9.288   2.935   6.137
 9794WAT      O29623   8.445   4.084   4.020
 9794WAT     H129624   8.451   4.127   4.110
 9794WAT     H229625   8.351   4.092   3.986
 9795WAT      O29626   9.774   0.107   1.129
 9795WAT     H129627   9.680   0.095   1.162
 9795WAT     H229628   9.817   0.183   1.179
 9796WAT      O29629   4.460   0.645   1.617
 9796WAT     H129630   4.402   0.703   1.559
 9796WAT     H229631   4.405   0.571   1.656
 9797WAT      O29632   7.092   1.045   9.077
 9797WAT     H129633   7.019   1.097   9.031
 9797WAT     H229634   7.101   1.078   9.171
 9798WAT      O29635   5.057   0.466   0.656
 9798WAT     H129636   5.152   0.477   0.626
 9798WAT     H229637   5.009   0.404   0.594
 9799WAT      O29638   2.230   3.342   5.187
 9799WAT     H129639   2.215   3.424   5.243
 9799WAT     H229640   2.191   3.357   5.096
 9800WAT      O29641   5.761   0.610   5.706
 9800WAT     H129642   5.762   0.628   5.607
 9800WAT     H229643   5.851   0.576   5.734
 9801WAT      O29644   7.113   5.767   0.403
 9801WAT     H129645   7.021   5.728   0.411
 9801WAT     H229646   7.135   5.780   0.307
 9802WAT      O29647   4.775   6.093   9.231
 9802WAT     H129648   4.838   6.025   9.196
 9802WAT     H229649   4.810   6.130   9.318
 9803WAT      O29650   4.270   5.525   4.512
 9803WAT     H129651   4.279   5.573   4.600
 9803WAT     H229652   4.175   5.498   4.498
 9804WAT      O29653   7.875   7.779   7.677
 9804WAT     H129654   7.922   7.839   7.612
 9804WAT     H229655   7.923   7.779   7.764
 9805WAT      O29656   6.775   0.882   3.918
 9805WAT     H129657   6.718   0.963   3.908
 9805WAT     H229658   6.834   0.893   3.999
 9806WAT      O29659   1.743   4.801   7.796
 9806WAT     H129660   1.836   4.773   7.774
 9806WAT     H229661   1.682   4.775   7.721
 9807WAT      O29662   6.089   5.920   2.632
 9807WAT     H129663   6.164   5.955   2.688
 9807WAT     H229664   6.017   5.989   2.625
 9808WAT      O29665   8.713   6.876   7.474
 9808WAT     H129666   8.780   6.950   7.482
 9808WAT     H229667   8.621   6.915   7.469
 9809WAT      O29668   2.580   7.833   0.580
 9809WAT     H129669   2.543   7.763   0.640
 9809WAT     H229670   2.657   7.795   0.528
 9810WAT      O29671   3.013   2.801   4.039
 9810WAT     H129672   2.994   2.704   4.025
 9810WAT     H229673   3.088   2.811   4.104
 9811WAT      O29674   8.736   0.353   1.677
 9811WAT     H129675   8.651   0.366   1.626
 9811WAT     H229676   8.767   0.441   1.713
 9812WAT      O29677   2.118   7.691   8.798
 9812WAT     H129678   2.071   7.769   8.841
 9812WAT     H229679   2.170   7.724   8.719
 9813WAT      O29680   8.033   7.926   5.198
 9813WAT     H129681   8.008   7.973   5.283
 9813WAT     H229682   7.952   7.886   5.157
 9814WAT      O29683   4.292   7.580   1.462
 9814WAT     H129684   4.330   7.554   1.550
 9814WAT     H229685   4.334   7.525   1.389
 9815WAT      O29686   1.060   3.114   9.621
 9815WAT     H129687   1.025   3.049   9.688
 9815WAT     H229688   1.160   3.118   9.627
 9816WAT      O29689   9.671   6.888   4.626
 9816WAT     H129690   9.729   6.831   4.684
 9816WAT     H229691   9.668   6.850   4.534
 9817WAT      O29692   2.129   0.463   2.363
 9817WAT     H129693   2.150   0.558   2.339
 9817WAT     H229694   2.178   0.402   2.300
 9818WAT      O29695   8.339   8.155   9.377
 9818WAT     H129696   8.415   8.151   9.313
 9818WAT     H229697   8.253   8.146   9.327
 9819WAT      O29698   0.172   7.356   8.120
 9819WAT     H129699   0.201   7.408   8.040
 9819WAT     H229700   0.199   7.403   8.203
 9820WAT      O29701   0.633   7.621   8.779
 9820WAT     H129702   0.667   7.668   8.698
 9820WAT     H229703   0.675   7.661   8.861
 9821WAT      O29704   2.426   4.365   6.799
 9821WAT     H129705   2.365   4.308   6.745
 9821WAT     H229706   2.449   4.448   6.747
 9822WAT      O29707   8.945   7.264   2.216
 9822WAT     H129708   9.029   7.211   2.227
 9822WAT     H229709   8.931   7.320   2.297
 9823WAT      O29710   5.154   1.027   6.637
 9823WAT     H129711   5.097   0.945   6.637
 9823WAT     H229712   5.106   1.101   6.589
 9824WAT      O29713   3.647   8.831   1.092
 9824WAT     H129714   3.680   8.779   1.171
 9824WAT     H229715   3.604   8.916   1.123
 9825WAT      O29716   5.537   5.550   6.758
 9825WAT     H129717   5.490   5.585   6.838
 9825WAT     H229718   5.580   5.626   6.709
 9826WAT      O29719   5.226   8.656   0.173
 9826WAT     H129720   5.234   8.606   0.259
 9826WAT     H229721   5.318   8.676   0.138
 9827WAT      O29722   3.968   9.148   7.430
 9827WAT     H129723   3.994   9.238   7.397
 9827WAT     H229724   4.050   9.094   7.450
 9828WAT      O29725   6.741   4.139   1.616
 9828WAT     H129726   6.758   4.237   1.614
 9828WAT     H229727   6.679   4.114   1.541
 9829WAT      O29728   2.436   8.784   1.662
 9829WAT     H129729   2.517   8.797   1.605
 9829WAT     H229730   2.378   8.712   1.623
 9830WAT      O29731   0.500   8.373   9.443
 9830WAT     H129732   0.495   8.346   9.347
 9830WAT     H229733   0.411   8.408   9.472
 9831WAT      O29734   3.785   7.841   3.833
 9831WAT     H129735   3.837   7.781   3.773
 9831WAT     H229736   3.742   7.914   3.780
 9832WAT      O29737   8.508   0.867   9.628
 9832WAT     H129738   8.529   0.772   9.653
 9832WAT     H229739   8.556   0.929   9.690
 9833WAT      O29740   0.120   4.361   5.861
 9833WAT     H129741   0.218   4.367   5.878
 9833WAT     H229742   0.082   4.285   5.913
 9834WAT      O29743   9.465   2.221   7.622
 9834WAT     H129744   9.367   2.226   7.601
 9834WAT     H229745   9.507   2.149   7.566
 9835WAT      O29746   8.266   5.661   3.271
 9835WAT     H129747   8.255   5.598   3.348
 9835WAT     H229748   8.176   5.693   3.241
 9836WAT      O29749   5.941   9.235   3.597
 9836WAT     H129750   6.037   9.242   3.568
 9836WAT     H229751   5.925   9.300   3.671
 9837WAT      O29752   9.057   0.251   8.257
 9837WAT     H129753   9.007   0.197   8.325
 9837WAT     H229754   9.051   0.206   8.168
 9838WAT      O29755   3.364   5.603   3.056
 9838WAT     H129756   3.270   5.600   3.092
 9838WAT     H229757   3.365   5.652   2.969
 9839WAT      O29758   9.875   7.199   3.640
 9839WAT     H129759   9.858   7.131   3.712
 9839WAT     H229760   9.971   7.198   3.615
 9840WAT      O29761   6.135   6.099   1.521
 9840WAT     H129762   6.161   6.193   1.541
 9840WAT     H229763   6.059   6.072   1.581
 9841WAT      O29764   2.734   6.430   5.408
 9841WAT     H129765   2.783   6.342   5.405
 9841WAT     H229766   2.783   6.493   5.467
 9842WAT      O29767   2.663   5.828   6.695
 9842WAT     H129768   2.632   5.866   6.608
 9842WAT     H229769   2.752   5.869   6.719
 9843WAT      O29770   5.535   9.160   7.855
 9843WAT     H129771   5.469   9.100   7.810
 9843WAT     H229772   5.502   9.254   7.851
 9844WAT      O29773   4.404   9.303   6.718
 9844WAT     H129774   4.481   9.348   6.762
 9844WAT     H229775   4.337   9.275   6.787
 9845WAT      O29776   4.484   4.923   2.807
 9845WAT     H129777   4.402   4.929   2.863
 9845WAT     H229778   4.474   4.851   2.739
 9846WAT      O29779   8.149   8.252   5.087
 9846WAT     H129780   8.114   8.251   5.181
 9846WAT     H229781   8.143   8.160   5.049
 9847WAT      O29782   6.057   3.687   5.111
 9847WAT     H129783   6.061   3.694   5.011
 9847WAT     H229784   6.106   3.604   5.140
 9848WAT      O29785   2.555   4.544   8.144
 9848WAT     H129786   2.640   4.586   8.175
 9848WAT     H229787   2.561   4.445   8.156
 9849WAT      O29788   2.429   7.816   9.748
 9849WAT     H129789   2.471   7.747   9.807
 9849WAT     H229790   2.331   7.798   9.739
 9850WAT      O29791   5.366   8.824   0.456
 9850WAT     H129792   5.324   8.804   0.545
 9850WAT     H229793   5.450   8.770   0.447
 9851WAT      O29794   5.946   4.447   7.153
 9851WAT     H129795   5.985   4.532   7.118
 9851WAT     H229796   5.849   4.441   7.128
 9852WAT      O29797   8.354   4.087   1.121
 9852WAT     H129798   8.285   4.158   1.136
 9852WAT     H229799   8.355   4.060   1.025
 9853WAT      O29800   8.484   0.411   8.691
 9853WAT     H129801   8.446   0.405   8.784
 9853WAT     H229802   8.458   0.329   8.640
 9854WAT      O29803   1.362   3.423   5.726
 9854WAT     H129804   1.381   3.399   5.822
 9854WAT     H229805   1.280   3.376   5.696
 9855WAT      O29806   0.385   0.176   0.756
 9855WAT     H129807   0.295   0.146   0.722
 9855WAT     H229808   0.375   0.211   0.849
 9856WAT      O29809   3.442   2.174   9.692
 9856WAT     H129810   3.380   2.227   9.634
 9856WAT     H229811   3.470   2.091   9.644
 9857WAT      O29812   4.832   8.235   5.571
 9857WAT     H129813   4.927   8.248   5.544
 9857WAT     H229814   4.789   8.324   5.587
 9858WAT      O29815   3.163   3.352   4.976
 9858WAT     H129816   3.163   3.330   5.073
 9858WAT     H229817   3.080   3.402   4.953
 9859WAT      O29818   4.328   2.412   8.352
 9859WAT     H129819   4.317   2.473   8.430
 9859WAT     H229820   4.332   2.466   8.268
 9860WAT      O29821   6.851   8.146   9.610
 9860WAT     H129822   6.839   8.246   9.608
 9860WAT     H229823   6.783   8.105   9.669
 9861WAT      O29824   2.454   7.957   7.500
 9861WAT     H129825   2.403   8.004   7.427
 9861WAT     H229826   2.477   8.023   7.572
 9862WAT      O29827   2.479   4.214   5.147
 9862WAT     H129828   2.419   4.226   5.226
 9862WAT     H229829   2.454   4.280   5.076
 9863WAT      O29830   4.980   2.097   3.419
 9863WAT     H129831   5.051   2.038   3.380
 9863WAT     H229832   5.007   2.192   3.410
 9864WAT      O29833   4.048   5.409   0.799
 9864WAT     H129834   4.105   5.328   0.807
 9864WAT     H229835   3.955   5.388   0.830
 9865WAT      O29836   1.639   2.376   3.701
 9865WAT     H129837   1.595   2.459   3.734
 9865WAT     H229838   1.738   2.391   3.694
 9866WAT      O29839   9.854   9.020   3.529
 9866WAT     H129840   9.857   8.936   3.582
 9866WAT     H229841   9.897   9.094   3.581
 9867WAT      O29842   8.619   6.391   8.497
 9867WAT     H129843   8.607   6.448   8.416
 9867WAT     H229844   8.678   6.437   8.563
 9868WAT      O29845   3.567   1.286   0.640
 9868WAT     H129846   3.544   1.242   0.553
 9868WAT     H229847   3.486   1.291   0.698
 9869WAT      O29848   7.628   1.310   7.122
 9869WAT     H129849   7.575   1.392   7.144
 9869WAT     H229850   7.583   1.230   7.162
 9870WAT      O29851   3.629   6.110   6.338
 9870WAT     H129852   3.538   6.082   6.367
 9870WAT     H229853   3.628   6.207   6.316
 9871WAT      O29854   6.591   7.146   3.657
 9871WAT     H129855   6.532   7.066   3.673
 9871WAT     H229856   6.611   7.153   3.560
 9872WAT      O29857   6.419   8.492   9.619
 9872WAT     H129858   6.468   8.577   9.598
 9872WAT     H229859   6.320   8.511   9.624
 9873WAT      O29860   1.389   8.344   3.819
 9873WAT     H129861   1.303   8.294   3.833
 9873WAT     H229862   1.375   8.441   3.841
 9874WAT      O29863   6.358   8.082   4.234
 9874WAT     H129864   6.267   8.121   4.248
 9874WAT     H229865   6.356   7.984   4.257
 9875WAT      O29866   5.052   0.582   6.864
 9875WAT     H129867   4.964   0.535   6.865
 9875WAT     H229868   5.113   0.541   6.932
 9876WAT      O29869   6.929   3.538   4.242
 9876WAT     H129870   6.877   3.529   4.327
 9876WAT     H229871   7.016   3.491   4.252
 9877WAT      O29872   8.610   3.159   9.061
 9877WAT     H129873   8.586   3.250   9.028
 9877WAT     H229874   8.536   3.125   9.120
 9878WAT      O29875   5.456   9.354   5.359
 9878WAT     H129876   5.439   9.258   5.338
 9878WAT     H229877   5.369   9.400   5.376
 9879WAT      O29878   2.903   7.459   4.073
 9879WAT     H129879   2.883   7.438   4.169
 9879WAT     H229880   2.818   7.455   4.020
 9880WAT      O29881   7.581   7.573   6.722
 9880WAT     H129882   7.491   7.577   6.764
 9880WAT     H229883   7.622   7.664   6.721
 9881WAT      O29884   7.775   6.502   7.679
 9881WAT     H129885   7.791   6.530   7.585
 9881WAT     H229886   7.714   6.568   7.723
 9882WAT      O29887   2.329   9.552   5.296
 9882WAT     H129888   2.231   9.531   5.297
 9882WAT     H229889   2.370   9.527   5.384
 9883WAT      O29890   8.827   3.160   7.572
 9883WAT     H129891   8.920   3.179   7.604
 9883WAT     H229892   8.767   3.235   7.598
 9884WAT      O29893   5.061   2.788   5.288
 9884WAT     H129894   5.079   2.691   5.300
 9884WAT     H229895   5.002   2.802   5.208
 9885WAT      O29896   4.466   1.339   0.351
 9885WAT     H129897   4.508   1.429   0.368
 9885WAT     H229898   4.383   1.330   0.407
 9886WAT      O29899   1.520   7.022   8.588
 9886WAT     H129900   1.526   6.955   8.662
 9886WAT     H229901   1.493   6.977   8.503
 9887WAT      O29902   4.048   1.130   7.950
 9887WAT     H129903   3.984   1.081   8.009
 9887WAT     H229904   4.119   1.067   7.918
 9888WAT      O29905   5.854   7.036   8.564
 9888WAT     H129906   5.864   7.131   8.593
 9888WAT     H229907   5.905   7.022   8.479
 9889WAT      O29908   9.383   3.091   5.163
 9889WAT     H129909   9.469   3.091   5.111
 9889WAT     H229910   9.327   3.014   5.135
 9890WAT      O29911   5.582   8.908   3.298
 9890WAT     H129912   5.517   8.953   3.236
 9890WAT     H229913   5.563   8.936   3.392
 9891WAT      O29914   9.714   6.192   9.352
 9891WAT     H129915   9.710   6.197   9.452
 9891WAT     H229916   9.670   6.272   9.313
 9892WAT      O29917   3.570   8.402   5.703
 9892WAT     H129918   3.509   8.369   5.631
 9892WAT     H229919   3.590   8.328   5.768
 9893WAT      O29920   0.539   7.469   7.840
 9893WAT     H129921   0.626   7.442   7.799
 9893WAT     H229922   0.508   7.398   7.903
 9894WAT      O29923   4.183   8.988   6.271
 9894WAT     H129924   4.112   8.963   6.336
 9894WAT     H229925   4.238   8.907   6.249
 9895WAT      O29926   5.772   7.769   0.725
 9895WAT     H129927   5.778   7.749   0.628
 9895WAT     H229928   5.679   7.797   0.748
 9896WAT      O29929   4.628   0.375   0.262
 9896WAT     H129930   4.663   0.437   0.192
 9896WAT     H229931   4.569   0.425   0.325
 9897WAT      O29932   2.167   0.732   2.285
 9897WAT     H129933   2.111   0.739   2.202
 9897WAT     H229934   2.149   0.810   2.344
 9898WAT      O29935   0.200   5.254   6.750
 9898WAT     H129936   0.155   5.289   6.831
 9898WAT     H229937   0.148   5.280   6.669
 9899WAT      O29938   0.642   6.506   7.803
 9899WAT     H129939   0.668   6.419   7.760
 9899WAT     H229940   0.709   6.576   7.778
 9900WAT      O29941   9.073   6.795   5.844
 9900WAT     H129942   9.090   6.711   5.896
 9900WAT     H229943   9.161   6.837   5.819
 9901WAT      O29944   3.436   1.672   6.061
 9901WAT     H129945   3.434   1.598   6.128
 9901WAT     H229946   3.343   1.707   6.047
 9902WAT      O29947   5.334   4.674   5.086
 9902WAT     H129948   5.273   4.641   5.014
 9902WAT     H229949   5.280   4.716   5.159
 9903WAT      O29950   5.965   1.874   4.767
 9903WAT     H129951   5.949   1.951   4.705
 9903WAT     H229952   6.050   1.888   4.817
 9904WAT      O29953   5.389   5.815   4.040
 9904WAT     H129954   5.314   5.848   3.983
 9904WAT     H229955   5.429   5.733   3.997
 9905WAT      O29956   5.840   5.011   1.715
 9905WAT     H129957   5.756   4.971   1.678
 9905WAT     H229958   5.906   5.025   1.641
 9906WAT      O29959   9.864   3.621   2.267
 9906WAT     H129960   9.768   3.628   2.238
 9906WAT     H229961   9.895   3.526   2.257
 9907WAT      O29962   3.815   3.719   7.862
 9907WAT     H129963   3.859   3.680   7.781
 9907WAT     H229964   3.730   3.764   7.836
 9908WAT      O29965   6.400   4.243   8.008
 9908WAT     H129966   6.304   4.241   7.980
 9908WAT     H229967   6.442   4.328   7.978
 9909WAT      O29968   3.003   7.387   6.125
 9909WAT     H129969   2.979   7.346   6.037
 9909WAT     H229970   3.083   7.341   6.163
 9910WAT      O29971   5.419   0.560   4.750
 9910WAT     H129972   5.429   0.625   4.825
 9910WAT     H229973   5.455   0.600   4.666
 9911WAT      O29974   2.301   2.557   9.827
 9911WAT     H129975   2.214   2.549   9.875
 9911WAT     H229976   2.355   2.475   9.842
 9912WAT      O29977   2.628   4.915   9.096
 9912WAT     H129978   2.695   4.841   9.090
 9912WAT     H229979   2.535   4.877   9.089
 9913WAT      O29980   2.892   0.727   2.101
 9913WAT     H129981   2.904   0.630   2.120
 9913WAT     H229982   2.927   0.747   2.009
 9914WAT      O29983   3.590   9.317   2.925
 9914WAT     H129984   3.681   9.282   2.949
 9914WAT     H229985   3.594   9.361   2.835
 9915WAT      O29986   5.417   7.613   9.303
 9915WAT     H129987   5.379   7.605   9.395
 9915WAT     H229988   5.376   7.545   9.243
 9916WAT      O29989   4.794   1.665   1.373
 9916WAT     H129990   4.850   1.590   1.409
 9916WAT     H229991   4.842   1.751   1.385
 9917WAT      O29992   3.103   0.681   4.265
 9917WAT     H129993   3.126   0.778   4.258
 9917WAT     H229994   3.026   0.661   4.203
 9918WAT      O29995   8.402   3.215   6.423
 9918WAT     H129996   8.464   3.262   6.360
 9918WAT     H229997   8.424   3.241   6.517
 9919WAT      O29998   4.143   1.803   6.821
 9919WAT     H129999   4.149   1.843   6.730
 9919WAT     H230000   4.202   1.722   6.827
 9920WAT      O30001   8.614   9.162   6.284
 9920WAT     H130002   8.546   9.217   6.332
 9920WAT     H230003   8.598   9.065   6.303
 9921WAT      O30004   3.467   4.561   9.284
 9921WAT     H130005   3.480   4.516   9.373
 9921WAT     H230006   3.373   4.594   9.277
 9922WAT      O30007   5.169   7.770   9.803
 9922WAT     H130008   5.095   7.834   9.785
 9922WAT     H230009   5.136   7.694   9.859
 9923WAT      O30010   3.543   6.794   4.649
 9923WAT     H130011   3.635   6.806   4.612
 9923WAT     H230012   3.480   6.770   4.575
 9924WAT      O30013   5.930   9.377   6.933
 9924WAT     H130014   5.859   9.384   6.864
 9924WAT     H230015   5.891   9.344   7.019
 9925WAT      O30016   8.510   9.011   5.861
 9925WAT     H130017   8.594   9.059   5.887
 9925WAT     H230018   8.509   8.996   5.763
 9926WAT      O30019   4.638   0.570   2.435
 9926WAT     H130020   4.601   0.663   2.435
 9926WAT     H230021   4.595   0.517   2.508
 9927WAT      O30022   7.813   0.574   0.419
 9927WAT     H130023   7.860   0.639   0.359
 9927WAT     H230024   7.876   0.545   0.491
 9928WAT      O30025   4.178   7.084   3.645
 9928WAT     H130026   4.241   7.153   3.682
 9928WAT     H230027   4.221   7.038   3.567
 9929WAT      O30028   5.867   1.125   2.387
 9929WAT     H130029   5.841   1.169   2.301
 9929WAT     H230030   5.890   1.030   2.370
 9930WAT      O30031   5.616   5.784   5.972
 9930WAT     H130032   5.630   5.789   5.873
 9930WAT     H230033   5.576   5.696   5.996
 9931WAT      O30034   1.231   3.439   9.238
 9931WAT     H130035   1.206   3.369   9.171
 9931WAT     H230036   1.330   3.454   9.234
 9932WAT      O30037   9.228   9.176   4.291
 9932WAT     H130038   9.319   9.187   4.250
 9932WAT     H230039   9.158   9.186   4.220
 9933WAT      O30040   8.166   3.385   6.307
 9933WAT     H130041   8.235   3.324   6.347
 9933WAT     H230042   8.164   3.371   6.208
 9934WAT      O30043   4.771   0.347   6.090
 9934WAT     H130044   4.740   0.276   6.027
 9934WAT     H230045   4.870   0.348   6.095
 9935WAT      O30046   8.444   7.394   8.382
 9935WAT     H130047   8.352   7.402   8.421
 9935WAT     H230048   8.473   7.298   8.385
 9936WAT      O30049   4.549   1.728   1.285
 9936WAT     H130050   4.638   1.694   1.317
 9936WAT     H230051   4.479   1.708   1.353
 9937WAT      O30052   8.714   1.558   4.474
 9937WAT     H130053   8.730   1.575   4.377
 9937WAT     H230054   8.616   1.554   4.492
 9938WAT      O30055   5.667   0.125   4.684
 9938WAT     H130056   5.711   0.090   4.601
 9938WAT     H230057   5.627   0.215   4.665
 9939WAT      O30058   1.480   8.463   5.562
 9939WAT     H130059   1.406   8.504   5.508
 9939WAT     H230060   1.544   8.416   5.501
 9940WAT      O30061   5.701   1.351   8.323
 9940WAT     H130062   5.739   1.433   8.282
 9940WAT     H230063   5.731   1.343   8.418
 9941WAT      O30064   6.304   0.267   5.844
 9941WAT     H130065   6.335   0.358   5.818
 9941WAT     H230066   6.213   0.251   5.804
 9942WAT      O30067   5.943   4.619   0.798
 9942WAT     H130068   6.015   4.551   0.814
 9942WAT     H230069   5.983   4.711   0.799
 9943WAT      O30070   9.173   1.307   3.164
 9943WAT     H130071   9.089   1.268   3.202
 9943WAT     H230072   9.224   1.353   3.237
 9944WAT      O30073   7.137   1.735   9.509
 9944WAT     H130074   7.229   1.751   9.544
 9944WAT     H230075   7.072   1.794   9.556
 9945WAT      O30076   5.747   3.961   9.291
 9945WAT     H130077   5.681   3.982   9.363
 9945WAT     H230078   5.749   4.036   9.225
 9946WAT      O30079   1.240   4.999   2.140
 9946WAT     H130080   1.200   4.984   2.050
 9946WAT     H230081   1.237   4.914   2.193
 9947WAT      O30082   1.648   5.802   0.715
 9947WAT     H130083   1.639   5.716   0.766
 9947WAT     H230084   1.662   5.783   0.618
 9948WAT      O30085   2.344   0.895   4.078
 9948WAT     H130086   2.376   0.801   4.091
 9948WAT     H230087   2.356   0.921   3.982
 9949WAT      O30088   1.624   6.390   7.950
 9949WAT     H130089   1.645   6.294   7.967
 9949WAT     H230090   1.622   6.407   7.851
 9950WAT      O30091   7.838   4.888   6.673
 9950WAT     H130092   7.842   4.892   6.573
 9950WAT     H230093   7.743   4.890   6.703
 9951WAT      O30094   1.525   1.659   5.013
 9951WAT     H130095   1.444   1.631   5.064
 9951WAT     H230096   1.525   1.615   4.923
 9952WAT      O30097   9.800   5.200   2.433
 9952WAT     H130098   9.703   5.199   2.407
 9952WAT     H230099   9.808   5.221   2.530
 9953WAT      O30100   9.319   2.215   5.530
 9953WAT     H130101   9.388   2.269   5.482
 9953WAT     H230102   9.338   2.118   5.519
 9954WAT      O30103   4.381   4.934   7.870
 9954WAT     H130104   4.288   4.933   7.907
 9954WAT     H230105   4.438   4.994   7.926
 9955WAT      O30106   2.567   4.646   7.887
 9955WAT     H130107   2.645   4.589   7.861
 9955WAT     H230108   2.551   4.638   7.986
 9956WAT      O30109   8.786   1.446   7.625
 9956WAT     H130110   8.809   1.413   7.534
 9956WAT     H230111   8.842   1.526   7.647
 9957WAT      O30112   4.726   0.374   4.458
 9957WAT     H130113   4.822   0.379   4.429
 9957WAT     H230114   4.684   0.293   4.418
 9958WAT      O30115   9.863   4.461   1.801
 9958WAT     H130116   9.855   4.428   1.707
 9958WAT     H230117   9.819   4.396   1.864
 9959WAT      O30118   3.566   7.853   5.915
 9959WAT     H130119   3.537   7.772   5.965
 9959WAT     H230120   3.495   7.923   5.921
 9960WAT      O30121   8.188   1.041   9.780
 9960WAT     H130122   8.097   1.000   9.790
 9960WAT     H230123   8.200   1.074   9.687
 9961WAT      O30124   7.615   1.200   4.966
 9961WAT     H130125   7.557   1.231   4.891
 9961WAT     H230126   7.665   1.118   4.938
 9962WAT      O30127   6.659   0.181   1.924
 9962WAT     H130128   6.600   0.102   1.945
 9962WAT     H230129   6.733   0.186   1.991
 9963WAT      O30130   5.325   9.339   5.008
 9963WAT     H130131   5.401   9.375   5.063
 9963WAT     H230132   5.328   9.379   4.917
 9964WAT      O30133   0.122   9.370   4.855
 9964WAT     H130134   0.124   9.309   4.775
 9964WAT     H230135   0.158   9.321   4.934
 9965WAT      O30136   7.333   3.500   5.939
 9965WAT     H130137   7.347   3.563   6.015
 9965WAT     H230138   7.406   3.431   5.939
 9966WAT      O30139   0.700   0.309   0.644
 9966WAT     H130140   0.709   0.385   0.580
 9966WAT     H230141   0.732   0.225   0.601
 9967WAT      O30142   1.764   0.114   1.716
 9967WAT     H130143   1.816   0.042   1.762
 9967WAT     H230144   1.685   0.139   1.772
 9968WAT      O30145   3.046   3.860   1.893
 9968WAT     H130146   2.965   3.808   1.920
 9968WAT     H230147   3.066   3.929   1.963
 9969WAT      O30148   2.501   3.186   6.758
 9969WAT     H130149   2.426   3.188   6.691
 9969WAT     H230150   2.563   3.261   6.739
 9970WAT      O30151   3.789   1.194   9.172
 9970WAT     H130152   3.773   1.223   9.077
 9970WAT     H230153   3.809   1.096   9.173
 9971WAT      O30154   5.780   5.099   3.095
 9971WAT     H130155   5.850   5.122   3.162
 9971WAT     H230156   5.789   5.002   3.069
 9972WAT      O30157   1.992   1.464   0.458
 9972WAT     H130158   2.028   1.378   0.423
 9972WAT     H230159   1.911   1.490   0.406
 9973WAT      O30160   2.052   3.100   4.849
 9973WAT     H130161   2.113   3.038   4.897
 9973WAT     H230162   1.999   3.049   4.781
 9974WAT      O30163   2.892   0.656   0.428
 9974WAT     H130164   2.805   0.612   0.405
 9974WAT     H230165   2.911   0.729   0.363
 9975WAT      O30166   0.095   0.512   9.213
 9975WAT     H130167   0.102   0.596   9.159
 9975WAT     H230168   0.052   0.441   9.158
 9976WAT      O30169   9.623   7.835   8.983
 9976WAT     H130170   9.682   7.772   9.034
 9976WAT     H230171   9.550   7.784   8.938
 9977WAT      O30172   8.686   1.031   2.196
 9977WAT     H130173   8.721   0.961   2.258
 9977WAT     H230174   8.649   1.107   2.248
 9978WAT      O30175   8.149   3.643   4.658
 9978WAT     H130176   8.219   3.575   4.682
 9978WAT     H230177   8.066   3.596   4.628
 9979WAT      O30178   8.465   9.093   1.822
 9979WAT     H130179   8.466   9.157   1.899
 9979WAT     H230180   8.407   9.129   1.749
 9980WAT      O30181   8.769   3.334   2.208
 9980WAT     H130182   8.711   3.307   2.285
 9980WAT     H230183   8.725   3.308   2.122
 9981WAT      O30184   8.829   7.625   0.988
 9981WAT     H130185   8.819   7.704   0.927
 9981WAT     H230186   8.821   7.655   1.083
 9982WAT      O30187   7.333   7.354   3.131
 9982WAT     H130188   7.418   7.387   3.091
 9982WAT     H230189   7.302   7.417   3.202
 9983WAT      O30190   7.034   1.149   3.970
 9983WAT     H130191   6.999   1.144   3.877
 9983WAT     H230192   7.044   1.245   3.997
 9984WAT      O30193   7.638   7.110   0.349
 9984WAT     H130194   7.611   7.018   0.376
 9984WAT     H230195   7.628   7.172   0.427
 9985WAT      O30196   0.666   8.228   4.335
 9985WAT     H130197   0.676   8.224   4.434
 9985WAT     H230198   0.601   8.300   4.311
 9986WAT      O30199   6.226   1.558   1.817
 9986WAT     H130200   6.234   1.603   1.728
 9986WAT     H230201   6.312   1.566   1.866
 9987WAT      O30202   8.417   2.304   2.195
 9987WAT     H130203   8.463   2.353   2.121
 9987WAT     H230204   8.363   2.369   2.250
 9988WAT      O30205   0.850   9.366   0.915
 9988WAT     H130206   0.943   9.401   0.929
 9988WAT     H230207   0.830   9.364   0.817
 9989WAT      O30208   0.101   1.807   2.081
 9989WAT     H130209   0.094   1.895   2.128
 9989WAT     H230210   0.197   1.785   2.066
 9990WAT      O30211   8.553   8.587   4.806
 9990WAT     H130212   8.629   8.571   4.742
 9990WAT     H230213   8.582   8.653   4.875
 9991WAT      O30214   3.674   3.046   3.540
 9991WAT     H130215   3.678   2.992   3.624
 9991WAT     H230216   3.727   3.130   3.551
 9992WAT      O30217   4.865   3.879   8.446
 9992WAT     H130218   4.825   3.843   8.362
 9992WAT     H230219   4.957   3.914   8.428
 9993WAT      O30220   4.255   6.955   3.404
 9993WAT     H130221   4.177   6.992   3.355
 9993WAT     H230222   4.287   6.872   3.357
 9994WAT      O30223   4.431   3.311   9.004
 9994WAT     H130224   4.427   3.255   9.087
 9994WAT     H230225   4.483   3.394   9.023
 9995WAT      O30226   2.083   6.543   1.786
 9995WAT     H130227   2.179   6.545   1.812
 9995WAT     H230228   2.075   6.541   1.687
 9996WAT      O30229   1.520   0.735   0.447
 9996WAT     H130230   1.527   0.740   0.546
 9996WAT     H230231   1.553   0.821   0.407
 9997WAT      O30232   4.300   4.209   9.626
 9997WAT     H130233   4.212   4.174   9.596
 9997WAT     H230234   4.310   4.304   9.594
 9998WAT      O30235   0.379   5.992   6.741
 9998WAT     H130236   0.291   5.946   6.735
 9998WAT     H230237   0.366   6.084   6.778
 9999WAT      O30238   7.363   4.868   8.318
 9999WAT     H130239   7.302   4.831   8.248
 9999WAT     H230240   7.325   4.953   8.354
10000WAT      O30241   3.171   9.498   0.152
10000WAT     H130242   3.258   9.543   0.129
10000WAT     H230243   3.169   9.480   0.250
10001WAT      O30244   2.441   6.438   7.500
10001WAT     H130245   2.434   6.339   7.498
10001WAT     H230246   2.443   6.470   7.595
10002WAT      O30247   0.105   6.678   8.057
10002WAT     H130248   0.035   6.622   8.014
10002WAT     H230249   0.161   6.721   7.986
10003WAT      O30250   0.833   0.006   6.062
10003WAT     H130251   0.776   0.087   6.072
10003WAT     H230252   0.900   0.022   5.989
10004WAT      O30253   5.393   4.942   8.539
10004WAT     H130254   5.329   4.977   8.607
10004WAT     H230255   5.480   4.919   8.583
10005WAT      O30256   1.460   5.075   8.161
10005WAT     H130257   1.426   5.001   8.103
10005WAT     H230258   1.528   5.129   8.111
10006WAT      O30259   3.973   5.006   8.144
10006WAT     H130260   4.026   5.085   8.113
10006WAT     H230261   4.035   4.930   8.162
10007WAT      O30262   8.141   3.231   1.863
10007WAT     H130263   8.154   3.304   1.796
10007WAT     H230264   8.126   3.144   1.815
10008WAT      O30265   3.259   0.000   7.390
10008WAT     H130266   3.204   0.068   7.439
10008WAT     H230267   3.270   0.029   7.295
10009WAT      O30268   6.665   2.359   7.949
10009WAT     H130269   6.593   2.419   7.982
10009WAT     H230270   6.643   2.264   7.970
10010WAT      O30271   7.992   0.241   0.789
10010WAT     H130272   8.091   0.236   0.801
10010WAT     H230273   7.956   0.151   0.763
10011WAT      O30274   4.186   9.264   8.702
10011WAT     H130275   4.097   9.261   8.747
10011WAT     H230276   4.178   9.229   8.609
10012WAT      O30277   6.048   2.476   5.066
10012WAT     H130278   5.975   2.527   5.111
10012WAT     H230279   6.129   2.476   5.125
10013WAT      O30280   7.471   5.154   8.133
10013WAT     H130281   7.514   5.068   8.104
10013WAT     H230282   7.530   5.200   8.200
10014WAT      O30283   9.457   9.033   6.405
10014WAT     H130284   9.550   8.997   6.394
10014WAT     H230285   9.452   9.126   6.369
10015WAT      O30286   7.126   8.407   9.584
10015WAT     H130287   7.170   8.319   9.599
10015WAT     H230288   7.030   8.402   9.611
10016WAT      O30289   0.852   8.220   6.586
10016WAT     H130290   0.893   8.221   6.677
10016WAT     H230291   0.889   8.144   6.532
10017WAT      O30292   4.579   7.973   7.365
10017WAT     H130293   4.570   8.063   7.406
10017WAT     H230294   4.676   7.952   7.350
10018WAT      O30295   4.185   8.709   3.746
10018WAT     H130296   4.217   8.691   3.839
10018WAT     H230297   4.092   8.746   3.750
10019WAT      O30298   1.972   8.298   5.285
10019WAT     H130299   1.955   8.221   5.347
10019WAT     H230300   1.993   8.263   5.194
10020WAT      O30301   2.360   4.483   2.551
10020WAT     H130302   2.291   4.538   2.504
10020WAT     H230303   2.397   4.415   2.488
10021WAT      O30304   7.379   7.296   1.403
10021WAT     H130305   7.338   7.213   1.368
10021WAT     H230306   7.373   7.368   1.333
10022WAT      O30307   6.215   3.460   5.870
10022WAT     H130308   6.251   3.480   5.780
10022WAT     H230309   6.274   3.394   5.917
10023WAT      O30310   6.235   5.905   7.924
10023WAT     H130311   6.303   5.885   7.994
10023WAT     H230312   6.207   6.000   7.930
10024WAT      O30313   9.643   9.163   0.538
10024WAT     H130314   9.641   9.165   0.438
10024WAT     H230315   9.694   9.083   0.569
10025WAT      O30316   3.395   7.873   3.701
10025WAT     H130317   3.378   7.818   3.783
10025WAT     H230318   3.471   7.935   3.718
10026WAT      O30319   5.768   2.901   6.137
10026WAT     H130320   5.862   2.892   6.103
10026WAT     H230321   5.707   2.922   6.061
10027WAT      O30322   1.933   4.811   1.011
10027WAT     H130323   1.857   4.746   0.998
10027WAT     H230324   1.938   4.872   0.932
10028WAT      O30325   7.040   6.861   7.449
10028WAT     H130326   7.043   6.927   7.373
10028WAT     H230327   6.978   6.787   7.426
10029WAT      O30328   8.483   9.278   5.587
10029WAT     H130329   8.583   9.277   5.586
10029WAT     H230330   8.449   9.228   5.508
10030WAT      O30331   3.629   0.106   0.516
10030WAT     H130332   3.678   0.186   0.552
10030WAT     H230333   3.548   0.137   0.465
10031WAT      O30334   2.955   2.368   1.344
10031WAT     H130335   2.934   2.271   1.340
10031WAT     H230336   3.044   2.385   1.301
10032WAT      O30337   6.671   0.325   6.769
10032WAT     H130338   6.722   0.251   6.814
10032WAT     H230339   6.606   0.285   6.705
10033WAT      O30340   9.757   0.990   5.807
10033WAT     H130341   9.668   1.016   5.768
10033WAT     H230342   9.791   1.065   5.864
10034WAT      O30343   9.253   2.754   2.538
10034WAT     H130344   9.239   2.682   2.470
10034WAT     H230345   9.167   2.776   2.583
10035WAT      O30346   9.447   8.695   3.998
10035WAT     H130347   9.421   8.675   3.904
10035WAT     H230348   9.545   8.682   4.009
10036WAT      O30349   8.522   6.550   7.337
10036WAT     H130350   8.534   6.599   7.250
10036WAT     H230351   8.508   6.453   7.318
10037WAT      O30352   9.554   2.741   5.192
10037WAT     H130353   9.529   2.794   5.273
10037WAT     H230354   9.641   2.695   5.209
10038WAT      O30355   1.224   4.639   3.753
10038WAT     H130356   1.131   4.638   3.717
10038WAT     H230357   1.252   4.733   3.770
10039WAT      O30358   5.405   8.274   0.278
10039WAT     H130359   5.373   8.188   0.238
10039WAT     H230360   5.443   8.257   0.369
10040WAT      O30361   6.202   7.938   9.800
10040WAT     H130362   6.126   8.001   9.782
10040WAT     H230363   6.276   7.955   9.734
10041WAT      O30364   9.347   8.464   1.824
10041WAT     H130365   9.408   8.402   1.775
10041WAT     H230366   9.347   8.441   1.922
10042WAT      O30367   7.716   5.827   8.813
10042WAT     H130368   7.783   5.760   8.782
10042WAT     H230369   7.726   5.839   8.912
10043WAT      O30370   7.844   1.684   9.885
10043WAT     H130371   7.810   1.777   9.871
10043WAT     H230372   7.863   1.642   9.797
10044WAT      O30373   0.978   1.574   2.677
10044WAT     H130374   0.910   1.501   2.673
10044WAT     H230375   1.048   1.550   2.745
10045WAT      O30376   4.032   7.286   6.503
10045WAT     H130377   4.131   7.289   6.486
10045WAT     H230378   4.011   7.339   6.585
10046WAT      O30379   0.099   8.834   9.142
10046WAT     H130380   0.075   8.862   9.049
10046WAT     H230381   0.191   8.869   9.164
10047WAT      O30382   4.372   1.648   6.995
10047WAT     H130383   4.346   1.625   7.089
10047WAT     H230384   4.434   1.726   6.996
10048WAT      O30385   2.971   9.698   8.311
10048WAT     H130386   3.020   9.652   8.237
10048WAT     H230387   2.880   9.724   8.280
10049WAT      O30388   1.570   2.887   4.605
10049WAT     H130389   1.631   2.810   4.586
10049WAT     H230390   1.508   2.900   4.528
10050WAT      O30391   9.072   4.857   2.186
10050WAT     H130392   9.143   4.790   2.162
10050WAT     H230393   8.983   4.821   2.160
10051WAT      O30394   0.327   8.337   7.231
10051WAT     H130395   0.355   8.376   7.144
10051WAT     H230396   0.275   8.406   7.283
10052WAT      O30397   1.881   1.785   3.990
10052WAT     H130398   1.789   1.810   3.961
10052WAT     H230399   1.906   1.837   4.072
10053WAT      O30400   5.478   3.893   0.655
10053WAT     H130401   5.476   3.903   0.555
10053WAT     H230402   5.408   3.827   0.683
10054WAT      O30403   0.170   8.440   6.731
10054WAT     H130404   0.219   8.353   6.735
10054WAT     H230405   0.236   8.515   6.719
10055WAT      O30406   3.949   2.862   1.762
10055WAT     H130407   3.960   2.915   1.846
10055WAT     H230408   3.852   2.843   1.748
10056WAT      O30409   7.006   2.782   5.702
10056WAT     H130410   7.002   2.882   5.707
10056WAT     H230411   6.936   2.742   5.760
10057WAT      O30412   0.099   8.064   7.449
10057WAT     H130413   0.139   8.132   7.511
10057WAT     H230414   0.091   8.103   7.357
10058WAT      O30415   7.731   7.303   5.675
10058WAT     H130416   7.683   7.219   5.705
10058WAT     H230417   7.673   7.352   5.610
10059WAT      O30418   9.454   4.321   2.501
10059WAT     H130419   9.523   4.350   2.434
10059WAT     H230420   9.487   4.240   2.550
10060WAT      O30421   8.513   6.946   0.632
10060WAT     H130422   8.442   7.000   0.587
10060WAT     H230423   8.540   6.992   0.717
10061WAT      O30424   2.595   6.522   8.165
10061WAT     H130425   2.673   6.548   8.108
10061WAT     H230426   2.580   6.592   8.234
10062WAT      O30427   5.847   8.308   9.448
10062WAT     H130428   5.828   8.325   9.545
10062WAT     H230429   5.788   8.235   9.415
10063WAT      O30430   7.936   6.430   1.628
10063WAT     H130431   7.906   6.377   1.707
10063WAT     H230432   7.941   6.371   1.547
10064WAT      O30433   4.117   0.285   7.102
10064WAT     H130434   4.162   0.360   7.150
10064WAT     H230435   4.183   0.238   7.044
10065WAT      O30436   9.773   1.073   1.822
10065WAT     H130437   9.688   1.021   1.814
10065WAT     H230438   9.848   1.022   1.779
10066WAT      O30439   2.683   0.006   6.617
10066WAT     H130440   2.739   0.043   6.543
10066WAT     H230441   2.733  -0.068   6.663
10067WAT      O30442   4.696   6.385   8.461
10067WAT     H130443   4.691   6.346   8.553
10067WAT     H230444   4.785   6.361   8.421
10068WAT      O30445   0.118   6.159   5.510
10068WAT     H130446   0.096   6.227   5.580
10068WAT     H230447   0.207   6.180   5.470
10069WAT      O30448   3.122   3.203   6.645
10069WAT     H130449   3.065   3.139   6.696
10069WAT     H230450   3.142   3.165   6.554
10070WAT      O30451   1.177   3.126   8.377
10070WAT     H130452   1.092   3.100   8.331
10070WAT     H230453   1.203   3.055   8.442
10071WAT      O30454   5.581   0.471   2.249
10071WAT     H130455   5.546   0.378   2.235
10071WAT     H230456   5.508   0.537   2.230
10072WAT      O30457   8.311   1.424   9.581
10072WAT     H130458   8.354   1.509   9.611
10072WAT     H230459   8.259   1.441   9.497
10073WAT      O30460   4.080   9.484   0.970
10073WAT     H130461   4.149   9.534   0.917
10073WAT     H230462   3.998   9.473   0.916
10074WAT      O30463   6.756   3.650   5.237
10074WAT     H130464   6.753   3.684   5.143
10074WAT     H230465   6.799   3.718   5.296
10075WAT      O30466   3.509   6.978   2.511
10075WAT     H130467   3.534   7.074   2.501
10075WAT     H230468   3.546   6.943   2.597
10076WAT      O30469   3.931   8.240   9.750
10076WAT     H130470   3.939   8.323   9.804
10076WAT     H230471   3.843   8.197   9.767
10077WAT      O30472   4.856   3.071   5.161
10077WAT     H130473   4.807   3.032   5.239
10077WAT     H230474   4.901   2.998   5.110
10078WAT      O30475   9.842   0.377   5.915
10078WAT     H130476   9.874   0.346   6.004
10078WAT     H230477   9.758   0.328   5.890
10079WAT      O30478   4.463   1.636   0.743
10079WAT     H130479   4.367   1.659   0.725
10079WAT     H230480   4.518   1.719   0.744
10080WAT      O30481   3.041   9.218   5.738
10080WAT     H130482   3.025   9.220   5.640
10080WAT     H230483   3.062   9.125   5.767
10081WAT      O30484   3.305   1.739   2.648
10081WAT     H130485   3.245   1.818   2.661
10081WAT     H230486   3.304   1.712   2.552
10082WAT      O30487   2.062   4.555   5.417
10082WAT     H130488   2.032   4.549   5.512
10082WAT     H230489   2.134   4.624   5.408
10083WAT      O30490   6.499   9.700   7.260
10083WAT     H130491   6.422   9.758   7.231
10083WAT     H230492   6.463   9.624   7.315
10084WAT      O30493   5.266   4.539   0.493
10084WAT     H130494   5.279   4.617   0.431
10084WAT     H230495   5.322   4.554   0.575
10085WAT      O30496   1.764   2.001   2.231
10085WAT     H130497   1.813   2.019   2.316
10085WAT     H230498   1.811   2.046   2.155
10086WAT      O30499   9.439   7.858   4.703
10086WAT     H130500   9.353   7.909   4.700
10086WAT     H230501   9.430   7.782   4.767
10087WAT      O30502   1.522   5.277   7.513
10087WAT     H130503   1.614   5.250   7.487
10087WAT     H230504   1.526   5.336   7.594
10088WAT      O30505   2.649   2.382   7.441
10088WAT     H130506   2.585   2.447   7.400
10088WAT     H230507   2.696   2.426   7.518
10089WAT      O30508   6.365   8.277   5.103
10089WAT     H130509   6.450   8.310   5.144
10089WAT     H230510   6.375   8.180   5.080
10090WAT      O30511   5.407   8.598   1.107
10090WAT     H130512   5.483   8.639   1.057
10090WAT     H230513   5.443   8.530   1.172
10091WAT      O30514   0.847   8.647   4.183
10091WAT     H130515   0.886   8.634   4.274
10091WAT     H230516   0.919   8.679   4.120
10092WAT      O30517   2.856   6.967   6.633
10092WAT     H130518   2.838   6.992   6.728
10092WAT     H230519   2.950   6.932   6.626
10093WAT      O30520   8.670   7.221   7.252
10093WAT     H130521   8.643   7.129   7.282
10093WAT     H230522   8.757   7.215   7.204
10094WAT      O30523   5.000   8.729   6.489
10094WAT     H130524   5.055   8.675   6.425
10094WAT     H230525   4.932   8.670   6.532
10095WAT      O30526   2.419   0.627   2.283
10095WAT     H130527   2.330   0.673   2.281
10095WAT     H230528   2.479   0.669   2.214
10096WAT      O30529   3.517   9.506   5.368
10096WAT     H130530   3.449   9.439   5.341
10096WAT     H230531   3.607   9.462   5.374
10097WAT      O30532   3.577   3.931   0.475
10097WAT     H130533   3.488   3.960   0.510
10097WAT     H230534   3.602   3.987   0.396
10098WAT      O30535   2.060   3.748   0.448
10098WAT     H130536   2.044   3.695   0.365
10098WAT     H230537   2.155   3.740   0.475
10099WAT      O30538   3.545   6.540   0.440
10099WAT     H130539   3.471   6.489   0.397
10099WAT     H230540   3.626   6.538   0.381
10100WAT      O30541   6.441   3.217   6.283
10100WAT     H130542   6.349   3.188   6.256
10100WAT     H230543   6.505   3.142   6.269
10101WAT      O30544   6.408   8.484   8.023
10101WAT     H130545   6.415   8.396   7.976
10101WAT     H230546   6.430   8.558   7.959
10102WAT      O30547   7.464   1.763   9.080
10102WAT     H130548   7.367   1.771   9.106
10102WAT     H230549   7.479   1.675   9.037
10103WAT      O30550   3.966   3.844   3.556
10103WAT     H130551   4.025   3.801   3.625
10103WAT     H230552   3.955   3.781   3.479
10104WAT      O30553   2.290   6.179   6.615
10104WAT     H130554   2.316   6.173   6.711
10104WAT     H230555   2.193   6.159   6.605
10105WAT      O30556   7.787   8.959   0.177
10105WAT     H130557   7.767   9.037   0.236
10105WAT     H230558   7.784   8.988   0.081
10106WAT      O30559   4.131   6.693   8.309
10106WAT     H130560   4.153   6.627   8.237
10106WAT     H230561   4.181   6.778   8.294
10107WAT      O30562   7.877   4.883   5.874
10107WAT     H130563   7.964   4.844   5.846
10107WAT     H230564   7.808   4.811   5.881
10108WAT      O30565   0.065   2.498   3.051
10108WAT     H130566   0.165   2.500   3.042
10108WAT     H230567   0.024   2.507   2.960
10109WAT      O30568   1.871   8.559   1.102
10109WAT     H130569   1.847   8.488   1.035
10109WAT     H230570   1.840   8.648   1.069
10110WAT      O30571   6.867   6.892   2.754
10110WAT     H130572   6.923   6.865   2.832
10110WAT     H230573   6.815   6.974   2.777
10111WAT      O30574   7.384   0.669   4.697
10111WAT     H130575   7.413   0.754   4.742
10111WAT     H230576   7.310   0.628   4.750
10112WAT      O30577   6.875   7.118   5.358
10112WAT     H130578   6.925   7.194   5.400
10112WAT     H230579   6.800   7.155   5.303
10113WAT      O30580   2.948   1.405   0.581
10113WAT     H130581   2.969   1.481   0.643
10113WAT     H230582   3.003   1.325   0.606
10114WAT      O30583   1.145   9.468   5.430
10114WAT     H130584   1.070   9.512   5.481
10114WAT     H230585   1.170   9.524   5.352
10115WAT      O30586   7.053   2.333   4.611
10115WAT     H130587   6.973   2.360   4.664
10115WAT     H230588   7.106   2.266   4.662
10116WAT      O30589   4.594   2.543   9.002
10116WAT     H130590   4.606   2.461   8.946
10116WAT     H230591   4.562   2.619   8.945
10117WAT      O30592   4.733   0.483   3.642
10117WAT     H130593   4.808   0.544   3.669
10117WAT     H230594   4.675   0.465   3.722
10118WAT      O30595   0.401   6.331   4.882
10118WAT     H130596   0.501   6.328   4.887
10118WAT     H230597   0.366   6.405   4.939
10119WAT      O30598   0.153   1.596   2.385
10119WAT     H130599   0.091   1.554   2.319
10119WAT     H230600   0.129   1.564   2.477
10120WAT      O30601   2.258   4.605   0.606
10120WAT     H130602   2.193   4.629   0.678
10120WAT     H230603   2.208   4.567   0.528
10121WAT      O30604   2.670   2.463   4.961
10121WAT     H130605   2.676   2.563   4.956
10121WAT     H230606   2.647   2.427   4.871
10122WAT      O30607   0.552   9.357   5.734
10122WAT     H130608   0.584   9.450   5.716
10122WAT     H230609   0.592   9.295   5.667
10123WAT      O30610   3.315   7.434   1.318
10123WAT     H130611   3.386   7.385   1.267
10123WAT     H230612   3.255   7.369   1.363
10124WAT      O30613   2.726   5.064   0.829
10124WAT     H130614   2.747   5.109   0.742
10124WAT     H230615   2.769   4.974   0.831
10125WAT      O30616   9.142   7.249   9.330
10125WAT     H130617   9.149   7.155   9.363
10125WAT     H230618   9.052   7.286   9.351
10126WAT      O30619   1.863   6.378   3.255
10126WAT     H130620   1.915   6.313   3.199
10126WAT     H230621   1.926   6.435   3.307
10127WAT      O30622   6.300   3.273   4.649
10127WAT     H130623   6.304   3.177   4.619
10127WAT     H230624   6.383   3.294   4.701
10128WAT      O30625   2.315   0.383   6.331
10128WAT     H130626   2.298   0.288   6.306
10128WAT     H230627   2.337   0.436   6.249
10129WAT      O30628   3.211   7.574   8.574
10129WAT     H130629   3.214   7.477   8.597
10129WAT     H230630   3.115   7.603   8.568
10130WAT      O30631   6.959   7.348   2.495
10130WAT     H130632   7.054   7.347   2.464
10130WAT     H230633   6.900   7.381   2.420
10131WAT      O30634   6.427   9.676   4.287
10131WAT     H130635   6.369   9.724   4.354
10131WAT     H230636   6.521   9.671   4.322
10132WAT      O30637   7.635   0.743   1.316
10132WAT     H130638   7.665   0.700   1.231
10132WAT     H230639   7.570   0.817   1.295
10133WAT      O30640   5.653   1.813   0.671
10133WAT     H130641   5.588   1.846   0.603
10133WAT     H230642   5.736   1.781   0.625
10134WAT      O30643   3.397   2.089   4.513
10134WAT     H130644   3.329   2.137   4.456
10134WAT     H230645   3.483   2.140   4.512
10135WAT      O30646   0.921   2.440   2.502
10135WAT     H130647   0.876   2.517   2.547
10135WAT     H230648   0.986   2.398   2.566
10136WAT      O30649   8.051   1.929   1.766
10136WAT     H130650   7.963   1.959   1.803
10136WAT     H230651   8.036   1.875   1.683
10137WAT      O30652   4.022   6.261   4.838
10137WAT     H130653   4.063   6.172   4.860
10137WAT     H230654   3.971   6.294   4.918
10138WAT      O30655   7.045   4.579   0.332
10138WAT     H130656   6.972   4.521   0.366
10138WAT     H230657   7.127   4.567   0.388
10139WAT      O30658   2.864   7.906   9.832
10139WAT     H130659   2.781   7.960   9.846
10139WAT     H230660   2.842   7.809   9.837
10140WAT      O30661   6.618   3.757   6.071
10140WAT     H130662   6.578   3.758   5.980
10140WAT     H230663   6.596   3.842   6.119
10141WAT      O30664   2.242   8.598   1.587
10141WAT     H130665   2.142   8.606   1.585
10141WAT     H230666   2.272   8.546   1.507
10142WAT      O30667   6.311   4.655   0.887
10142WAT     H130668   6.394   4.671   0.833
10142WAT     H230669   6.261   4.578   0.849
10143WAT      O30670   9.169   3.533   5.277
10143WAT     H130671   9.141   3.563   5.368
10143WAT     H230672   9.180   3.433   5.276
10144WAT      O30673   6.943   8.376   4.628
10144WAT     H130674   6.880   8.451   4.605
10144WAT     H230675   6.902   8.317   4.697
10145WAT      O30676   7.082   3.368   7.948
10145WAT     H130677   7.043   3.287   7.992
10145WAT     H230678   7.021   3.446   7.962
10146WAT      O30679   9.386   4.504   5.632
10146WAT     H130680   9.311   4.449   5.595
10146WAT     H230681   9.350   4.587   5.673
10147WAT      O30682   2.535   2.541   0.424
10147WAT     H130683   2.507   2.486   0.346
10147WAT     H230684   2.513   2.492   0.509
10148WAT      O30685   2.439   6.554   5.746
10148WAT     H130686   2.373   6.493   5.701
10148WAT     H230687   2.452   6.636   5.690
10149WAT      O30688   0.120   8.976   4.792
10149WAT     H130689   0.042   8.976   4.854
10149WAT     H230690   0.097   9.025   4.708
10150WAT      O30691   8.463   2.293   5.910
10150WAT     H130692   8.480   2.391   5.920
10150WAT     H230693   8.537   2.242   5.955
10151WAT      O30694   1.809   6.669   5.772
10151WAT     H130695   1.826   6.764   5.745
10151WAT     H230696   1.763   6.621   5.698
10152WAT      O30697   8.092   1.872   9.098
10152WAT     H130698   8.060   1.859   9.004
10152WAT     H230699   8.149   1.794   9.125
10153WAT      O30700   6.786   7.395   6.569
10153WAT     H130701   6.863   7.456   6.592
10153WAT     H230702   6.771   7.397   6.470
10154WAT      O30703   8.528   3.528   4.708
10154WAT     H130704   8.595   3.477   4.763
10154WAT     H230705   8.449   3.470   4.690
10155WAT      O30706   4.373   7.218   3.757
10155WAT     H130707   4.415   7.128   3.769
10155WAT     H230708   4.421   7.285   3.814
10156WAT      O30709   0.402   0.000   7.355
10156WAT     H130710   0.397   0.098   7.375
10156WAT     H230711   0.476  -0.017   7.289
10157WAT      O30712   6.322   4.677   5.623
10157WAT     H130713   6.320   4.734   5.540
10157WAT     H230714   6.229   4.648   5.645
10158WAT      O30715   5.832   5.828   6.438
10158WAT     H130716   5.900   5.872   6.380
10158WAT     H230717   5.784   5.757   6.385
10159WAT      O30718   6.155   1.068   3.535
10159WAT     H130719   6.093   1.005   3.581
10159WAT     H230720   6.105   1.151   3.509
10160WAT      O30721   5.327   9.526   5.894
10160WAT     H130722   5.329   9.426   5.896
10160WAT     H230723   5.417   9.560   5.866
10161WAT      O30724   4.438   3.716   8.190
10161WAT     H130725   4.353   3.665   8.203
10161WAT     H230726   4.436   3.761   8.100
10162WAT      O30727   7.841   4.131   0.127
10162WAT     H130728   7.859   4.046   0.175
10162WAT     H230729   7.832   4.112   0.029
10163WAT      O30730   7.579   0.560   4.573
10163WAT     H130731   7.611   0.477   4.620
10163WAT     H230732   7.509   0.605   4.629
10164WAT      O30733   2.546   8.506   1.938
10164WAT     H130734   2.582   8.588   1.984
10164WAT     H230735   2.446   8.506   1.944
10165WAT      O30736   2.265   8.419   6.759
10165WAT     H130737   2.271   8.319   6.768
10165WAT     H230738   2.347   8.460   6.798
10166WAT      O30739   8.345   3.879   6.062
10166WAT     H130740   8.262   3.824   6.071
10166WAT     H230741   8.386   3.864   5.972
10167WAT      O30742   5.314   2.280   3.470
10167WAT     H130743   5.296   2.256   3.566
10167WAT     H230744   5.231   2.320   3.430
10168WAT      O30745   7.369   0.095   7.759
10168WAT     H130746   7.315   0.011   7.752
10168WAT     H230747   7.338   0.161   7.692
10169WAT      O30748   3.817   5.034   6.954
10169WAT     H130749   3.790   5.075   6.866
10169WAT     H230750   3.910   5.064   6.977
10170WAT      O30751   6.509   2.531   5.323
10170WAT     H130752   6.542   2.456   5.381
10170WAT     H230753   6.562   2.614   5.342
10171WAT      O30754   5.526   2.911   5.225
10171WAT     H130755   5.459   2.851   5.181
10171WAT     H230756   5.552   2.984   5.162
10172WAT      O30757   1.795   0.665   1.029
10172WAT     H130758   1.843   0.592   1.078
10172WAT     H230759   1.825   0.754   1.065
10173WAT      O30760   4.839   4.891   3.174
10173WAT     H130761   4.809   4.969   3.230
10173WAT     H230762   4.926   4.857   3.209
10174WAT      O30763   6.063   4.774   0.041
10174WAT     H130764   6.122   4.814   0.111
10174WAT     H230765   6.040   4.842  -0.028
10175WAT      O30766   3.314   8.578   4.406
10175WAT     H130767   3.411   8.601   4.396
10175WAT     H230768   3.264   8.607   4.325
10176WAT      O30769   3.696   2.634   1.160
10176WAT     H130770   3.626   2.578   1.116
10176WAT     H230771   3.782   2.583   1.162
10177WAT      O30772   0.245   2.414   4.776
10177WAT     H130773   0.305   2.408   4.696
10177WAT     H230774   0.224   2.509   4.795
10178WAT      O30775   8.340   2.147   4.410
10178WAT     H130776   8.289   2.148   4.324
10178WAT     H230777   8.280   2.119   4.485
10179WAT      O30778   3.256   6.714   8.037
10179WAT     H130779   3.158   6.727   8.025
10179WAT     H230780   3.287   6.636   7.984
10180WAT      O30781   5.287   8.073   0.111
10180WAT     H130782   5.201   8.124   0.116
10180WAT     H230783   5.284   7.996   0.175
10181WAT      O30784   6.366   4.241   8.268
10181WAT     H130785   6.384   4.224   8.171
10181WAT     H230786   6.273   4.276   8.279
10182WAT      O30787   8.206   3.314   9.756
10182WAT     H130788   8.170   3.322   9.663
10182WAT     H230789   8.277   3.384   9.770
10183WAT      O30790   8.275   4.089   9.176
10183WAT     H130791   8.368   4.079   9.210
10183WAT     H230792   8.277   4.106   9.078
10184WAT      O30793   7.207   1.853   4.452
10184WAT     H130794   7.209   1.949   4.425
10184WAT     H230795   7.170   1.846   4.545
10185WAT      O30796   7.448   7.475   9.089
10185WAT     H130797   7.458   7.405   9.160
10185WAT     H230798   7.515   7.458   9.016
10186WAT      O30799   6.376   2.799   4.704
10186WAT     H130800   6.323   2.871   4.659
10186WAT     H230801   6.357   2.801   4.802
10187WAT      O30802   0.130   2.946   2.106
10187WAT     H130803   0.086   2.988   2.186
10187WAT     H230804   0.083   2.861   2.083
10188WAT      O30805   6.842   0.868   9.218
10188WAT     H130806   6.940   0.858   9.201
10188WAT     H230807   6.799   0.778   9.219
10189WAT      O30808   2.294   6.328   5.691
10189WAT     H130809   2.301   6.256   5.761
10189WAT     H230810   2.221   6.304   5.627
10190WAT      O30811   8.763   5.267   3.959
10190WAT     H130812   8.673   5.226   3.941
10190WAT     H230813   8.787   5.329   3.884
10191WAT      O30814   2.754   7.098   3.565
10191WAT     H130815   2.752   7.175   3.628
10191WAT     H230816   2.845   7.056   3.566
10192WAT      O30817   8.670   6.684   4.553
10192WAT     H130818   8.727   6.698   4.472
10192WAT     H230819   8.612   6.603   4.540
10193WAT      O30820   6.679   1.068   8.803
10193WAT     H130821   6.582   1.042   8.812
10193WAT     H230822   6.736   0.991   8.829
10194WAT      O30823   0.099   4.796   3.117
10194WAT     H130824   0.173   4.777   3.182
10194WAT     H230825   0.011   4.789   3.164
10195WAT      O30826   0.041   1.468   5.826
10195WAT     H130827  -0.049   1.450   5.787
10195WAT     H230828   0.066   1.563   5.810
10196WAT      O30829   1.405   1.851   9.035
10196WAT     H130830   1.387   1.947   9.015
10196WAT     H230831   1.331   1.794   8.999
10197WAT      O30832   9.838   5.517   0.213
10197WAT     H130833   9.881   5.429   0.191
10197WAT     H230834   9.810   5.563   0.129
10198WAT      O30835   1.972   1.727   6.193
10198WAT     H130836   2.031   1.773   6.127
10198WAT     H230837   1.999   1.631   6.200
10199WAT      O30838   6.829   3.539   2.995
10199WAT     H130839   6.897   3.567   3.064
10199WAT     H230840   6.746   3.594   3.006
10200WAT      O30841   2.152   4.719   6.616
10200WAT     H130842   2.161   4.625   6.650
10200WAT     H230843   2.098   4.720   6.532
10201WAT      O30844   2.945   8.955   4.231
10201WAT     H130845   3.023   9.017   4.240
10201WAT     H230846   2.951   8.906   4.144
10202WAT      O30847   0.995   4.792   7.266
10202WAT     H130848   1.079   4.740   7.254
10202WAT     H230849   0.921   4.730   7.294
10203WAT      O30850   7.393   5.103   3.443
10203WAT     H130851   7.322   5.165   3.409
10203WAT     H230852   7.437   5.057   3.366
10204WAT      O30853   5.879   6.626   7.252
10204WAT     H130854   5.876   6.561   7.175
10204WAT     H230855   5.838   6.584   7.332
10205WAT      O30856   9.497   7.386   2.303
10205WAT     H130857   9.422   7.452   2.315
10205WAT     H230858   9.475   7.323   2.228
10206WAT      O30859   0.194   8.376   7.960
10206WAT     H130860   0.281   8.389   8.006
10206WAT     H230861   0.121   8.368   8.028
10207WAT      O30862   2.509   9.318   5.777
10207WAT     H130863   2.498   9.265   5.861
10207WAT     H230864   2.575   9.392   5.793
10208WAT      O30865   4.855   5.441   0.659
10208WAT     H130866   4.936   5.487   0.697
10208WAT     H230867   4.826   5.368   0.721
10209WAT      O30868   5.439   4.208   6.844
10209WAT     H130869   5.485   4.217   6.932
10209WAT     H230870   5.356   4.153   6.854
10210WAT      O30871   9.691   8.195   5.883
10210WAT     H130872   9.770   8.134   5.879
10210WAT     H230873   9.636   8.173   5.963
10211WAT      O30874   1.113   6.047   1.023
10211WAT     H130875   1.177   6.043   0.946
10211WAT     H230876   1.081   5.955   1.045
10212WAT      O30877   8.930   4.704   4.121
10212WAT     H130878   8.851   4.705   4.183
10212WAT     H230879   8.976   4.792   4.124
10213WAT      O30880   1.441   3.039   3.389
10213WAT     H130881   1.396   3.119   3.431
10213WAT     H230882   1.503   2.998   3.456
10214WAT      O30883   7.134   7.367   8.097
10214WAT     H130884   7.207   7.387   8.161
10214WAT     H230885   7.165   7.298   8.031
10215WAT      O30886   4.910   2.655   5.719
10215WAT     H130887   4.892   2.587   5.648
10215WAT     H230888   5.002   2.642   5.755
10216WAT      O30889   5.842   1.419   0.526
10216WAT     H130890   5.851   1.518   0.535
10216WAT     H230891   5.899   1.374   0.594
10217WAT      O30892   0.381   2.131   2.865
10217WAT     H130893   0.390   2.036   2.895
10217WAT     H230894   0.284   2.153   2.854
10218WAT      O30895   9.626   7.030   7.855
10218WAT     H130896   9.716   7.036   7.812
10218WAT     H230897   9.637   7.001   7.950
10219WAT      O30898   0.745   5.106   7.413
10219WAT     H130899   0.648   5.130   7.410
10219WAT     H230900   0.800   5.189   7.421
10220WAT      O30901   3.882   6.133   7.729
10220WAT     H130902   3.844   6.096   7.644
10220WAT     H230903   3.889   6.232   7.722
10221WAT      O30904   4.812   6.724   8.869
10221WAT     H130905   4.821   6.625   8.862
10221WAT     H230906   4.848   6.755   8.957
10222WAT      O30907   3.085   0.668   9.527
10222WAT     H130908   3.074   0.712   9.616
10222WAT     H230909   3.182   0.663   9.503
10223WAT      O30910   3.516   7.060   6.839
10223WAT     H130911   3.447   6.993   6.866
10223WAT     H230912   3.532   7.053   6.741
10224WAT      O30913   4.053   8.644   4.030
10224WAT     H130914   4.020   8.566   3.978
10224WAT     H230915   4.121   8.613   4.097
10225WAT      O30916   6.660   8.465   7.337
10225WAT     H130917   6.679   8.374   7.372
10225WAT     H230918   6.745   8.508   7.307
10226WAT      O30919   6.086   6.042   6.004
10226WAT     H130920   6.082   6.116   5.936
10226WAT     H230921   6.007   5.982   5.993
10227WAT      O30922   3.108   6.814   6.001
10227WAT     H130923   3.029   6.803   5.942
10227WAT     H230924   3.079   6.807   6.097
10228WAT      O30925   6.205   6.506   8.250
10228WAT     H130926   6.146   6.528   8.327
10228WAT     H230927   6.289   6.560   8.255
10229WAT      O30928   2.511   6.247   6.387
10229WAT     H130929   2.449   6.229   6.462
10229WAT     H230930   2.459   6.278   6.307
10230WAT      O30931   4.496   4.874   0.057
10230WAT     H130932   4.421   4.901   0.117
10230WAT     H230933   4.463   4.865  -0.037
10231WAT      O30934   3.037   7.120   2.499
10231WAT     H130935   2.991   7.201   2.535
10231WAT     H230936   3.133   7.140   2.483
10232WAT      O30937   9.074   3.191   3.369
10232WAT     H130938   9.108   3.110   3.418
10232WAT     H230939   9.013   3.242   3.429
10233WAT      O30940   2.937   1.023   4.970
10233WAT     H130941   2.951   0.961   4.892
10233WAT     H230942   2.962   1.116   4.943
10234WAT      O30943   8.935   1.442   9.114
10234WAT     H130944   8.927   1.362   9.173
10234WAT     H230945   9.000   1.507   9.154
10235WAT      O30946   0.412   8.335   5.326
10235WAT     H130947   0.466   8.419   5.324
10235WAT     H230948   0.344   8.341   5.399
10236WAT      O30949   9.844   2.920   7.422
10236WAT     H130950   9.932   2.894   7.462
10236WAT     H230951   9.786   2.838   7.414
10237WAT      O30952   4.454   0.860   9.132
10237WAT     H130953   4.532   0.902   9.084
10237WAT     H230954   4.390   0.931   9.160
10238WAT      O30955   2.918   4.208   0.753
10238WAT     H130956   2.902   4.140   0.824
10238WAT     H230957   2.922   4.299   0.794
10239WAT      O30958   2.611   8.439   1.029
10239WAT     H130959   2.679   8.501   0.991
10239WAT     H230960   2.521   8.482   1.027
10240WAT      O30961   8.040   8.120   1.768
10240WAT     H130962   8.061   8.066   1.850
10240WAT     H230963   8.013   8.059   1.694
10241WAT      O30964   9.683   0.255   3.640
10241WAT     H130965   9.641   0.166   3.626
10241WAT     H230966   9.751   0.271   3.568
10242WAT      O30967   7.402   7.206   2.164
10242WAT     H130968   7.385   7.248   2.075
10242WAT     H230969   7.315   7.179   2.206
10243WAT      O30970   0.599   1.415   9.551
10243WAT     H130971   0.622   1.336   9.608
10243WAT     H230972   0.529   1.469   9.597
10244WAT      O30973   3.211   7.137   1.204
10244WAT     H130974   3.118   7.114   1.174
10244WAT     H230975   3.216   7.132   1.304
10245WAT      O30976   6.766   0.501   3.212
10245WAT     H130977   6.809   0.590   3.197
10245WAT     H230978   6.671   0.513   3.242
10246WAT      O30979   7.832   0.955   5.111
10246WAT     H130980   7.918   0.989   5.146
10246WAT     H230981   7.800   0.879   5.167
10247WAT      O30982   0.007   5.244   3.109
10247WAT     H130983   0.089   5.201   3.146
10247WAT     H230984   0.032   5.310   3.038
10248WAT      O30985   3.916   5.017   1.241
10248WAT     H130986   3.957   4.974   1.160
10248WAT     H230987   3.908   4.949   1.313
10249WAT      O30988   6.170   8.703   6.490
10249WAT     H130989   6.079   8.669   6.512
10249WAT     H230990   6.182   8.795   6.530
10250WAT      O30991   9.358   8.962   1.103
10250WAT     H130992   9.406   9.045   1.075
10250WAT     H230993   9.379   8.943   1.199
10251WAT      O30994   1.708   6.969   0.804
10251WAT     H130995   1.774   7.003   0.870
10251WAT     H230996   1.747   6.890   0.756
10252WAT      O30997   6.595   4.396   2.365
10252WAT     H130998   6.693   4.409   2.349
10252WAT     H230999   6.574   4.421   2.459
10253WAT      O31000   4.696   8.796   7.939
10253WAT     H131001   4.710   8.844   8.026
10253WAT     H231002   4.773   8.735   7.922
10254WAT      O31003   7.529   7.664   3.340
10254WAT     H131004   7.598   7.683   3.270
10254WAT     H231005   7.559   7.586   3.395
10255WAT      O31006   0.766   8.523   8.357
10255WAT     H131007   0.776   8.431   8.394
10255WAT     H231008   0.670   8.551   8.363
10256WAT      O31009   0.618   6.861   2.644
10256WAT     H131010   0.715   6.843   2.627
10256WAT     H231011   0.563   6.821   2.570
10257WAT      O31012   6.625   5.485   7.109
10257WAT     H131013   6.602   5.444   7.021
10257WAT     H231014   6.604   5.583   7.106
10258WAT      O31015   3.911   2.736   4.362
10258WAT     H131016   3.830   2.791   4.383
10258WAT     H231017   3.991   2.795   4.353
10259WAT      O31018   2.666   4.641   1.503
10259WAT     H131019   2.572   4.613   1.521
10259WAT     H231020   2.688   4.721   1.559
10260WAT      O31021   7.770   9.285   7.813
10260WAT     H131022   7.842   9.226   7.779
10260WAT     H231023   7.724   9.330   7.737
10261WAT      O31024   1.023   1.399   1.472
10261WAT     H131025   1.025   1.469   1.401
10261WAT     H231026   0.948   1.336   1.455
10262WAT      O31027   6.425   8.676   9.211
10262WAT     H131028   6.330   8.667   9.181
10262WAT     H231029   6.427   8.723   9.299
10263WAT      O31030   7.524   4.460   7.320
10263WAT     H131031   7.568   4.372   7.343
10263WAT     H231032   7.541   4.481   7.224
10264WAT      O31033   3.264   4.328   4.498
10264WAT     H131034   3.178   4.281   4.480
10264WAT     H231035   3.315   4.339   4.413
10265WAT      O31036   9.776   1.339   9.009
10265WAT     H131037   9.722   1.397   8.948
10265WAT     H231038   9.723   1.320   9.092
10266WAT      O31039   7.195   6.261   3.149
10266WAT     H131040   7.260   6.310   3.208
10266WAT     H231041   7.193   6.165   3.175
10267WAT      O31042   9.241   5.370   3.202
10267WAT     H131043   9.178   5.354   3.278
10267WAT     H231044   9.316   5.303   3.206
10268WAT      O31045   1.720   1.616   9.244
10268WAT     H131046   1.759   1.636   9.155
10268WAT     H231047   1.627   1.653   9.249
10269WAT      O31048   9.670   3.008   5.107
10269WAT     H131049   9.612   2.927   5.116
10269WAT     H231050   9.765   2.984   5.126
10270WAT      O31051   1.697   7.435   7.509
10270WAT     H131052   1.725   7.342   7.532
10270WAT     H231053   1.771   7.483   7.462
10271WAT      O31054   9.416   6.178   2.174
10271WAT     H131055   9.417   6.275   2.151
10271WAT     H231056   9.348   6.162   2.246
10272WAT      O31057   7.857   7.107   7.903
10272WAT     H131058   7.783   7.082   7.840
10272WAT     H231059   7.821   7.117   7.995
10273WAT      O31060   6.655   5.477   0.234
10273WAT     H131061   6.745   5.503   0.198
10273WAT     H231062   6.651   5.378   0.245
10274WAT      O31063   1.501   9.438   4.473
10274WAT     H131064   1.525   9.532   4.450
10274WAT     H231065   1.581   9.391   4.510
10275WAT      O31066   8.417   1.066   4.443
10275WAT     H131067   8.384   0.978   4.477
10275WAT     H231068   8.411   1.068   4.343
10276WAT      O31069   0.545   9.019   0.541
10276WAT     H131070   0.619   8.992   0.478
10276WAT     H231071   0.557   8.971   0.628
10277WAT      O31072   4.181   6.609   1.428
10277WAT     H131073   4.161   6.595   1.524
10277WAT     H231074   4.099   6.642   1.381
10278WAT      O31075   5.405   1.154   3.290
10278WAT     H131076   5.416   1.180   3.386
10278WAT     H231077   5.327   1.092   3.282
10279WAT      O31078   9.597   0.459   3.507
10279WAT     H131079   9.636   0.395   3.574
10279WAT     H231080   9.537   0.524   3.554
10280WAT      O31081   4.866   0.087   3.169
10280WAT     H131082   4.961   0.057   3.169
10280WAT     H231083   4.857   0.172   3.118
10281WAT      O31084   1.160   4.825   2.716
10281WAT     H131085   1.173   4.727   2.729
10281WAT     H231086   1.091   4.840   2.644
10282WAT      O31087   3.324   9.068   5.280
10282WAT     H131088   3.226   9.055   5.263
10282WAT     H231089   3.376   8.993   5.238
10283WAT      O31090   0.422   5.220   7.087
10283WAT     H131091   0.492   5.171   7.035
10283WAT     H231092   0.423   5.317   7.062
10284WAT      O31093   0.082   5.709   5.699
10284WAT     H131094   0.034   5.789   5.664
10284WAT     H231095   0.181   5.725   5.695
10285WAT      O31096   4.279   1.442   4.803
10285WAT     H131097   4.253   1.453   4.899
10285WAT     H231098   4.322   1.352   4.791
10286WAT      O31099   1.519   3.108   3.803
10286WAT     H131100   1.587   3.088   3.733
10286WAT     H231101   1.562   3.158   3.878
10287WAT      O31102   8.647   5.744   4.768
10287WAT     H131103   8.643   5.842   4.787
10287WAT     H231104   8.705   5.699   4.836
10288WAT      O31105   1.970   3.641   4.952
10288WAT     H131106   1.893   3.587   4.918
10288WAT     H231107   1.947   3.738   4.950
10289WAT      O31108   3.077   3.876   8.406
10289WAT     H131109   3.156   3.934   8.427
10289WAT     H231110   3.009   3.930   8.357
10290WAT      O31111   0.915   5.027   7.207
10290WAT     H131112   0.846   5.059   7.272
10290WAT     H231113   0.933   4.930   7.224
10291WAT      O31114   3.921   8.348   7.097
10291WAT     H131115   3.954   8.385   7.184
10291WAT     H231116   3.869   8.419   7.049
10292WAT      O31117   8.988   4.327   5.007
10292WAT     H131118   9.087   4.315   4.992
10292WAT     H231119   8.969   4.423   5.027
10293WAT      O31120   8.940   3.167   8.427
10293WAT     H131121   8.990   3.087   8.393
10293WAT     H231122   8.994   3.249   8.411
10294WAT      O31123   2.307   3.093   1.241
10294WAT     H131124   2.394   3.141   1.231
10294WAT     H231125   2.322   2.995   1.239
10295WAT      O31126   8.968   9.289   9.764
10295WAT     H131127   8.920   9.204   9.785
10295WAT     H231128   8.950   9.356   9.835
10296WAT      O31129   7.189   8.754   1.282
10296WAT     H131130   7.183   8.770   1.381
10296WAT     H231131   7.249   8.676   1.265
10297WAT      O31132   0.678   6.815   3.711
10297WAT     H131133   0.728   6.891   3.669
10297WAT     H231134   0.614   6.777   3.645
10298WAT      O31135   0.726   1.880   7.802
10298WAT     H131136   0.779   1.825   7.737
10298WAT     H231137   0.642   1.832   7.825
10299WAT      O31138   5.972   6.991   4.415
10299WAT     H131139   6.044   7.059   4.430
10299WAT     H231140   5.890   7.019   4.464
10300WAT      O31141   4.507   5.681   5.785
10300WAT     H131142   4.577   5.609   5.784
10300WAT     H231143   4.552   5.770   5.779
10301WAT      O31144   8.634   7.915   1.148
10301WAT     H131145   8.733   7.923   1.134
10301WAT     H231146   8.616   7.891   1.243
10302WAT      O31147   5.621   1.537   8.884
10302WAT     H131148   5.585   1.618   8.931
10302WAT     H231149   5.706   1.508   8.929
10303WAT      O31150   8.456   4.361   7.194
10303WAT     H131151   8.556   4.357   7.197
10303WAT     H231152   8.427   4.397   7.105
10304WAT      O31153   0.129   4.073   6.926
10304WAT     H131154   0.158   4.014   7.001
10304WAT     H231155   0.181   4.158   6.928
10305WAT      O31156   5.758   7.465   5.877
10305WAT     H131157   5.745   7.443   5.780
10305WAT     H231158   5.678   7.515   5.910
10306WAT      O31159   5.349   0.487   3.480
10306WAT     H131160   5.360   0.546   3.399
10306WAT     H231161   5.406   0.406   3.469
10307WAT      O31162   7.614   8.127   2.418
10307WAT     H131163   7.696   8.155   2.468
10307WAT     H231164   7.612   8.028   2.410
10308WAT      O31165   0.707   3.138   5.765
10308WAT     H131166   0.694   3.048   5.805
10308WAT     H231167   0.651   3.147   5.683
10309WAT      O31168   4.617   3.318   3.308
10309WAT     H131169   4.671   3.347   3.229
10309WAT     H231170   4.621   3.389   3.379
10310WAT      O31171   4.755   0.016   3.685
10310WAT     H131172   4.704  -0.070   3.694
10310WAT     H231173   4.811   0.013   3.602
10311WAT      O31174   1.740   3.383   0.909
10311WAT     H131175   1.706   3.320   0.979
10311WAT     H231176   1.663   3.436   0.872
10312WAT      O31177   8.121   6.825   3.419
10312WAT     H131178   8.138   6.755   3.350
10312WAT     H231179   8.137   6.788   3.510
10313WAT      O31180   9.080   5.274   4.963
10313WAT     H131181   9.087   5.248   5.060
10313WAT     H231182   9.016   5.213   4.917
10314WAT      O31183   4.830   0.066   8.447
10314WAT     H131184   4.768   0.133   8.405
10314WAT     H231185   4.776   0.000   8.500
10315WAT      O31186   6.093   5.942   3.556
10315WAT     H131187   6.155   5.866   3.539
10315WAT     H231188   6.048   5.969   3.471
10316WAT      O31189   1.783   1.724   5.100
10316WAT     H131190   1.690   1.715   5.063
10316WAT     H231191   1.786   1.686   5.192
10317WAT      O31192   4.454   8.462   1.815
10317WAT     H131193   4.375   8.434   1.762
10317WAT     H231194   4.446   8.425   1.908
10318WAT      O31195   7.946   1.756   1.549
10318WAT     H131196   7.926   1.803   1.463
10318WAT     H231197   8.019   1.689   1.534
10319WAT      O31198   4.736   2.871   4.870
10319WAT     H131199   4.704   2.796   4.812
10319WAT     H231200   4.782   2.833   4.950
10320WAT      O31201   9.025   0.711   1.587
10320WAT     H131202   8.966   0.692   1.665
10320WAT     H231203   8.991   0.662   1.507
10321WAT      O31204   2.587   1.090   6.260
10321WAT     H131205   2.644   1.042   6.327
10321WAT     H231206   2.611   1.187   6.260
10322WAT      O31207   7.774   2.291   4.814
10322WAT     H131208   7.731   2.356   4.751
10322WAT     H231209   7.819   2.341   4.888
10323WAT      O31210   7.114   1.110   9.329
10323WAT     H131211   7.086   1.067   9.415
10323WAT     H231212   7.210   1.139   9.335
10324WAT      O31213   4.256   0.508   3.837
10324WAT     H131214   4.206   0.521   3.923
10324WAT     H231215   4.353   0.492   3.857
10325WAT      O31216   2.719   1.292   8.978
10325WAT     H131217   2.761   1.207   8.947
10325WAT     H231218   2.619   1.284   8.972
10326WAT      O31219   8.249   4.581   6.766
10326WAT     H131220   8.289   4.557   6.678
10326WAT     H231221   8.153   4.608   6.754
10327WAT      O31222   2.658   6.539   4.065
10327WAT     H131223   2.578   6.501   4.019
10327WAT     H231224   2.630   6.599   4.140
10328WAT      O31225   8.121   4.162   8.031
10328WAT     H131226   8.030   4.158   7.988
10328WAT     H231227   8.148   4.070   8.059
10329WAT      O31228   6.315   6.662   0.556
10329WAT     H131229   6.290   6.633   0.649
10329WAT     H231230   6.404   6.622   0.532
10330WAT      O31231   8.045   2.783   7.344
10330WAT     H131232   8.106   2.743   7.276
10330WAT     H231233   8.030   2.880   7.323
10331WAT      O31234   2.909   6.550   3.934
10331WAT     H131235   2.832   6.563   3.997
10331WAT     H231236   2.875   6.542   3.841
10332WAT      O31237   8.578   8.673   5.836
10332WAT     H131238   8.533   8.668   5.746
10332WAT     H231239   8.532   8.741   5.892
10333WAT      O31240   7.511   5.838   4.396
10333WAT     H131241   7.518   5.869   4.490
10333WAT     H231242   7.528   5.915   4.334
10334WAT      O31243   4.778   5.032   9.220
10334WAT     H131244   4.874   5.013   9.241
10334WAT     H231245   4.732   4.947   9.194
10335WAT      O31246   3.011   4.194   8.161
10335WAT     H131247   3.081   4.153   8.102
10335WAT     H231248   2.952   4.122   8.197
10336WAT      O31249   2.234   8.225   5.439
10336WAT     H131250   2.279   8.279   5.511
10336WAT     H231251   2.158   8.276   5.401
10337WAT      O31252   6.292   6.629   9.108
10337WAT     H131253   6.200   6.621   9.147
10337WAT     H231254   6.331   6.718   9.134
10338WAT      O31255   4.266   0.062   5.877
10338WAT     H131256   4.284  -0.034   5.897
10338WAT     H231257   4.320   0.120   5.938
10339WAT      O31258   3.880   5.767   5.926
10339WAT     H131259   3.832   5.843   5.883
10339WAT     H231260   3.900   5.697   5.857
10340WAT      O31261   1.854   0.216   3.178
10340WAT     H131262   1.870   0.206   3.276
10340WAT     H231263   1.934   0.181   3.128
10341WAT      O31264   5.123   2.497   7.812
10341WAT     H131265   5.143   2.438   7.734
10341WAT     H231266   5.124   2.593   7.782
10342WAT      O31267   0.029   7.350   9.155
10342WAT     H131268  -0.054   7.393   9.118
10342WAT     H231269   0.084   7.420   9.200
10343WAT      O31270   0.970   5.858   0.337
10343WAT     H131271   0.979   5.894   0.244
10343WAT     H231272   0.879   5.879   0.372
10344WAT      O31273   2.869   3.973   0.363
10344WAT     H131274   2.920   4.027   0.296
10344WAT     H231275   2.889   3.876   0.350
10345WAT      O31276   2.005   4.603   3.866
10345WAT     H131277   1.979   4.566   3.956
10345WAT     H231278   1.964   4.548   3.794
10346WAT      O31279   6.826   2.959   1.568
10346WAT     H131280   6.768   2.879   1.552
10346WAT     H231281   6.841   3.007   1.482
10347WAT      O31282   3.925   6.260   9.775
10347WAT     H131283   3.879   6.278   9.688
10347WAT     H231284   4.009   6.313   9.779
10348WAT      O31285   7.179   1.430   4.336
10348WAT     H131286   7.261   1.376   4.318
10348WAT     H231287   7.098   1.372   4.325
10349WAT      O31288   9.208   4.390   6.883
10349WAT     H131289   9.157   4.354   6.805
10349WAT     H231290   9.194   4.489   6.890
10350WAT      O31291   9.417   9.308   2.334
10350WAT     H131292   9.465   9.331   2.249
10350WAT     H231293   9.473   9.335   2.412
10351WAT      O31294   4.925   2.410   4.957
10351WAT     H131295   4.973   2.334   4.914
10351WAT     H231296   4.901   2.386   5.051
10352WAT      O31297   7.322   0.012   1.953
10352WAT     H131298   7.391   0.015   2.025
10352WAT     H231299   7.272   0.098   1.952
10353WAT      O31300   2.296   8.594   8.289
10353WAT     H131301   2.234   8.672   8.288
10353WAT     H231302   2.380   8.617   8.240
10354WAT      O31303   9.456   2.094   2.514
10354WAT     H131304   9.513   2.163   2.559
10354WAT     H231305   9.498   2.003   2.526
10355WAT      O31306   2.813   8.880   0.054
10355WAT     H131307   2.880   8.823   0.005
10355WAT     H231308   2.801   8.966   0.005
10356WAT      O31309   0.740   3.257   2.005
10356WAT     H131310   0.837   3.267   2.027
10356WAT     H231311   0.722   3.297   1.915
10357WAT      O31312   3.034   6.409   8.752
10357WAT     H131313   2.936   6.392   8.736
10357WAT     H231314   3.049   6.424   8.849
10358WAT      O31315   7.412   0.713   2.288
10358WAT     H131316   7.391   0.617   2.307
10358WAT     H231317   7.342   0.751   2.227
10359WAT      O31318   7.274   4.210   0.056
10359WAT     H131319   7.177   4.208   0.080
10359WAT     H231320   7.326   4.252   0.130
10360WAT      O31321   2.356   8.517   7.843
10360WAT     H131322   2.378   8.518   7.745
10360WAT     H231323   2.437   8.491   7.895
10361WAT      O31324   9.619   3.397   9.001
10361WAT     H131325   9.581   3.476   8.952
10361WAT     H231326   9.718   3.406   9.008
10362WAT      O31327   4.843   3.752   4.342
10362WAT     H131328   4.860   3.850   4.352
10362WAT     H231329   4.910   3.713   4.279
10363WAT      O31330   6.036   1.473   8.341
10363WAT     H131331   6.035   1.373   8.344
10363WAT     H231332   5.997   1.503   8.255
10364WAT      O31333   1.394   8.765   8.676
10364WAT     H131334   1.435   8.787   8.587
10364WAT     H231335   1.306   8.719   8.662
10365WAT      O31336   3.932   7.711   2.136
10365WAT     H131337   4.018   7.724   2.185
10365WAT     H231338   3.901   7.800   2.101
10366WAT      O31339   9.023   5.518   4.864
10366WAT     H131340   9.025   5.597   4.926
10366WAT     H231341   9.044   5.435   4.915
10367WAT      O31342   4.701   9.063   1.195
10367WAT     H131343   4.747   8.984   1.235
10367WAT     H231344   4.620   9.085   1.249
10368WAT      O31345   2.908   1.737   3.220
10368WAT     H131346   2.809   1.751   3.222
10368WAT     H231347   2.952   1.803   3.281
10369WAT      O31348   5.857   6.369   8.166
10369WAT     H131349   5.867   6.272   8.147
10369WAT     H231350   5.868   6.421   8.081
10370WAT      O31351   7.422   3.405   9.438
10370WAT     H131352   7.376   3.477   9.489
10370WAT     H231353   7.498   3.445   9.386
10371WAT      O31354   8.655   8.837   4.080
10371WAT     H131355   8.712   8.755   4.086
10371WAT     H231356   8.640   8.873   4.173
10372WAT      O31357   0.128   5.252   8.458
10372WAT     H131358   0.178   5.320   8.512
10372WAT     H231359   0.030   5.270   8.466
10373WAT      O31360   3.767   5.679   0.895
10373WAT     H131361   3.786   5.715   0.804
10373WAT     H231362   3.673   5.701   0.920
10374WAT      O31363   8.623   8.073   6.503
10374WAT     H131364   8.559   8.000   6.529
10374WAT     H231365   8.608   8.153   6.562
10375WAT      O31366   6.073   1.442   3.827
10375WAT     H131367   6.030   1.473   3.742
10375WAT     H231368   6.008   1.449   3.902
10376WAT      O31369   0.643   3.397   2.205
10376WAT     H131370   0.692   3.334   2.145
10376WAT     H231371   0.604   3.346   2.281
10377WAT      O31372   8.270   1.826   2.572
10377WAT     H131373   8.199   1.757   2.584
10377WAT     H231374   8.233   1.903   2.520
10378WAT      O31375   2.815   0.074   6.936
10378WAT     H131376   2.819   0.082   7.035
10378WAT     H231377   2.786  -0.019   6.912
10379WAT      O31378   4.687   2.595   2.859
10379WAT     H131379   4.675   2.528   2.787
10379WAT     H231380   4.763   2.567   2.919
10380WAT      O31381   1.496   3.785   0.675
10380WAT     H131382   1.436   3.849   0.626
10380WAT     H231383   1.591   3.807   0.655
10381WAT      O31384   3.281   0.478   3.862
10381WAT     H131385   3.219   0.399   3.862
10381WAT     H231386   3.371   0.450   3.829
10382WAT      O31387   8.597   7.555   9.466
10382WAT     H131388   8.509   7.538   9.511
10382WAT     H231389   8.615   7.481   9.400
10383WAT      O31390   5.898   2.027   3.368
10383WAT     H131391   5.890   1.964   3.290
10383WAT     H231392   5.842   1.995   3.444
10384WAT      O31393   1.115   8.510   5.238
10384WAT     H131394   1.204   8.544   5.206
10384WAT     H231395   1.042   8.557   5.189
10385WAT      O31396   9.420   2.928   1.979
10385WAT     H131397   9.383   2.911   2.070
10385WAT     H231398   9.360   2.989   1.928
10386WAT      O31399   2.400   2.190   0.492
10386WAT     H131400   2.477   2.138   0.528
10386WAT     H231401   2.385   2.271   0.549
10387WAT      O31402   1.142   2.745   8.078
10387WAT     H131403   1.106   2.723   7.988
10387WAT     H231404   1.241   2.754   8.073
10388WAT      O31405   0.152   7.754   9.106
10388WAT     H131406   0.194   7.829   9.056
10388WAT     H231407   0.053   7.768   9.109
10389WAT      O31408   1.456   2.219   4.987
10389WAT     H131409   1.456   2.134   5.041
10389WAT     H231410   1.483   2.198   4.893
10390WAT      O31411   1.212   8.874   4.734
10390WAT     H131412   1.113   8.865   4.741
10390WAT     H231413   1.256   8.839   4.817
10391WAT      O31414   4.716   3.465   0.378
10391WAT     H131415   4.731   3.447   0.281
10391WAT     H231416   4.657   3.545   0.388
10392WAT      O31417   6.146   7.361   3.274
10392WAT     H131418   6.162   7.328   3.367
10392WAT     H231419   6.221   7.331   3.214
10393WAT      O31420   9.728   9.078   6.318
10393WAT     H131421   9.757   9.116   6.230
10393WAT     H231422   9.735   9.149   6.388
10394WAT      O31423   1.248   0.208   3.666
10394WAT     H131424   1.340   0.170   3.672
10394WAT     H231425   1.222   0.218   3.570
10395WAT      O31426   8.575   7.424   5.181
10395WAT     H131427   8.563   7.346   5.243
10395WAT     H231428   8.615   7.501   5.231
10396WAT      O31429   5.259   8.118   5.203
10396WAT     H131430   5.163   8.090   5.200
10396WAT     H231431   5.271   8.205   5.156
10397WAT      O31432   4.405   9.105   6.008
10397WAT     H131433   4.421   9.082   6.103
10397WAT     H231434   4.322   9.161   6.000
10398WAT      O31435   2.771   2.129   2.132
10398WAT     H131436   2.847   2.162   2.077
10398WAT     H231437   2.706   2.081   2.073
10399WAT      O31438   5.454   0.767   1.134
10399WAT     H131439   5.399   0.810   1.062
10399WAT     H231440   5.467   0.670   1.112
10400WAT      O31441   6.215   7.472   5.630
10400WAT     H131442   6.200   7.518   5.543
10400WAT     H231443   6.139   7.492   5.692
10401WAT      O31444   1.778   0.286   4.590
10401WAT     H131445   1.838   0.298   4.670
10401WAT     H231446   1.683   0.300   4.618
10402WAT      O31447   3.187   6.279   2.535
10402WAT     H131448   3.157   6.184   2.541
10402WAT     H231449   3.153   6.319   2.450
10403WAT      O31450   3.815   1.586   8.484
10403WAT     H131451   3.903   1.555   8.519
10403WAT     H231452   3.823   1.605   8.386
10404WAT      O31453   2.014   1.045   6.741
10404WAT     H131454   1.964   0.958   6.743
10404WAT     H231455   2.074   1.046   6.660
10405WAT      O31456   3.803   1.201   1.258
10405WAT     H131457   3.840   1.222   1.168
10405WAT     H231458   3.814   1.281   1.318
10406WAT      O31459   9.813   9.459   1.446
10406WAT     H131460   9.902   9.504   1.432
10406WAT     H231461   9.763   9.508   1.518
10407WAT      O31462   6.495   0.946   4.394
10407WAT     H131463   6.483   0.966   4.297
10407WAT     H231464   6.573   0.998   4.430
10408WAT      O31465   8.751   1.259   5.739
10408WAT     H131466   8.720   1.174   5.696
10408WAT     H231467   8.703   1.271   5.826
10409WAT      O31468   0.709   3.872   7.592
10409WAT     H131469   0.771   3.832   7.525
10409WAT     H231470   0.642   3.931   7.546
10410WAT      O31471   3.453   9.373   9.618
10410WAT     H131472   3.500   9.460   9.634
10410WAT     H231473   3.520   9.299   9.616
10411WAT      O31474   8.700   3.396   4.875
10411WAT     H131475   8.788   3.443   4.865
10411WAT     H231476   8.698   3.317   4.814
10412WAT      O31477   1.611   9.484   7.244
10412WAT     H131478   1.538   9.419   7.221
10412WAT     H231479   1.668   9.445   7.316
10413WAT      O31480   8.056   5.243   7.186
10413WAT     H131481   8.055   5.217   7.089
10413WAT     H231482   7.981   5.307   7.204
10414WAT      O31483   1.452   4.222   1.416
10414WAT     H131484   1.408   4.262   1.335
10414WAT     H231485   1.537   4.270   1.435
10415WAT      O31486   1.561   1.915   0.155
10415WAT     H131487   1.634   1.849   0.174
10415WAT     H231488   1.478   1.888   0.205
10416WAT      O31489   5.803   0.839   9.851
10416WAT     H131490   5.745   0.898   9.795
10416WAT     H231491   5.874   0.894   9.894
10417WAT      O31492   0.244   4.816   2.422
10417WAT     H131493   0.166   4.875   2.444
10417WAT     H231494   0.223   4.722   2.448
10418WAT      O31495   5.197   3.987   4.327
10418WAT     H131496   5.103   3.998   4.294
10418WAT     H231497   5.260   4.024   4.259
10419WAT      O31498   2.670   5.713   5.122
10419WAT     H131499   2.632   5.695   5.213
10419WAT     H231500   2.605   5.683   5.052
10420WAT      O31501   7.675   0.281   8.040
10420WAT     H131502   7.754   0.261   8.098
10420WAT     H231503   7.701   0.350   7.972
10421WAT      O31504   9.478   0.029   8.930
10421WAT     H131505   9.394   0.083   8.924
10421WAT     H231506   9.538   0.052   8.854
10422WAT      O31507   8.183   0.078   6.311
10422WAT     H131508   8.255   0.011   6.330
10422WAT     H231509   8.097   0.047   6.351
10423WAT      O31510   6.614   8.372   9.449
10423WAT     H131511   6.598   8.452   9.391
10423WAT     H231512   6.560   8.380   9.533
10424WAT      O31513   6.740   3.178   9.712
10424WAT     H131514   6.821   3.236   9.707
10424WAT     H231515   6.714   3.165   9.807
10425WAT      O31516   8.746   4.831   0.387
10425WAT     H131517   8.839   4.831   0.423
10425WAT     H231518   8.686   4.877   0.453
10426WAT      O31519   7.034   8.075   3.288
10426WAT     H131520   7.071   7.995   3.335
10426WAT     H231521   7.088   8.156   3.312
10427WAT      O31522   6.765   4.438   1.333
10427WAT     H131523   6.749   4.425   1.430
10427WAT     H231524   6.836   4.507   1.320
10428WAT      O31525   8.843   8.542   0.401
10428WAT     H131526   8.844   8.517   0.304
10428WAT     H231527   8.752   8.523   0.439
10429WAT      O31528   1.155   8.509   7.144
10429WAT     H131529   1.155   8.456   7.229
10429WAT     H231530   1.149   8.447   7.066
10430WAT      O31531   2.421   5.299   9.021
10430WAT     H131532   2.506   5.290   8.970
10430WAT     H231533   2.358   5.360   8.972
10431WAT      O31534   3.741   3.022   9.556
10431WAT     H131535   3.828   2.986   9.590
10431WAT     H231536   3.744   3.030   9.457
10432WAT      O31537   1.046   5.072   7.771
10432WAT     H131538   1.129   5.038   7.814
10432WAT     H231539   0.976   4.999   7.772
10433WAT      O31540   5.234   4.729   4.630
10433WAT     H131541   5.217   4.706   4.725
10433WAT     H231542   5.180   4.809   4.604
10434WAT      O31543   0.928   3.350   0.104
10434WAT     H131544   0.939   3.398   0.018
10434WAT     H231545   0.835   3.314   0.111
10435WAT      O31546   2.793   7.913   6.987
10435WAT     H131547   2.849   7.923   7.070
10435WAT     H231548   2.802   7.819   6.953
10436WAT      O31549   3.136   8.576   3.431
10436WAT     H131550   3.183   8.488   3.419
10436WAT     H231551   3.047   8.573   3.385
10437WAT      O31552   9.508   6.630   4.885
10437WAT     H131553   9.421   6.678   4.881
10437WAT     H231554   9.528   6.604   4.979
10438WAT      O31555   5.776   2.590   6.129
10438WAT     H131556   5.716   2.668   6.110
10438WAT     H231557   5.825   2.565   6.046
10439WAT      O31558   5.012   6.378   1.725
10439WAT     H131559   5.067   6.448   1.678
10439WAT     H231560   5.024   6.290   1.680
10440WAT      O31561   0.244   6.650   6.113
10440WAT     H131562   0.294   6.653   6.026
10440WAT     H231563   0.257   6.737   6.161
10441WAT      O31564   6.014   3.412   6.170
10441WAT     H131565   5.938   3.446   6.226
10441WAT     H231566   5.979   3.379   6.083
10442WAT      O31567   1.339   2.166   0.238
10442WAT     H131568   1.401   2.163   0.317
10442WAT     H231569   1.354   2.251   0.188
10443WAT      O31570   8.126   0.803   8.897
10443WAT     H131571   8.103   0.709   8.925
10443WAT     H231572   8.224   0.810   8.882
10444WAT      O31573   8.497   6.949   5.012
10444WAT     H131574   8.501   6.906   4.922
10444WAT     H231575   8.505   7.048   5.003
10445WAT      O31576   4.941   3.136   1.244
10445WAT     H131577   4.904   3.142   1.337
10445WAT     H231578   4.867   3.117   1.180
10446WAT      O31579   4.694   0.010   9.243
10446WAT     H131580   4.639   0.007   9.160
10446WAT     H231581   4.660  -0.059   9.308
10447WAT      O31582   2.830   8.928   0.313
10447WAT     H131583   2.864   8.912   0.221
10447WAT     H231584   2.878   9.006   0.353
10448WAT      O31585   8.289   8.969   1.440
10448WAT     H131586   8.296   8.905   1.516
10448WAT     H231587   8.312   8.922   1.355
10449WAT      O31588   5.817   5.110   5.624
10449WAT     H131589   5.758   5.067   5.692
10449WAT     H231590   5.793   5.077   5.532
10450WAT      O31591   8.228   8.935   2.510
10450WAT     H131592   8.255   8.976   2.423
10450WAT     H231593   8.133   8.905   2.505
10451WAT      O31594   0.909   9.148   6.716
10451WAT     H131595   0.968   9.072   6.743
10451WAT     H231596   0.964   9.231   6.707
10452WAT      O31597   9.366   5.514   1.156
10452WAT     H131598   9.406   5.449   1.221
10452WAT     H231599   9.406   5.499   1.066
10453WAT      O31600   0.727   6.902   3.102
10453WAT     H131601   0.821   6.869   3.095
10453WAT     H231602   0.672   6.861   3.029
10454WAT      O31603   2.951   6.271   4.981
10454WAT     H131604   2.946   6.336   5.057
10454WAT     H231605   2.978   6.318   4.898
10455WAT      O31606   1.438   6.026   5.874
10455WAT     H131607   1.491   6.102   5.911
10455WAT     H231608   1.448   6.023   5.775
10456WAT      O31609   4.110   1.039   9.326
10456WAT     H131610   4.057   1.112   9.370
10456WAT     H231611   4.203   1.038   9.363
10457WAT      O31612   6.983   6.902   1.141
10457WAT     H131613   6.892   6.918   1.104
10457WAT     H231614   7.033   6.840   1.081
10458WAT      O31615   2.174   7.851   2.501
10458WAT     H131616   2.227   7.844   2.586
10458WAT     H231617   2.168   7.762   2.457
10459WAT      O31618   8.263   4.363   8.343
10459WAT     H131619   8.319   4.286   8.373
10459WAT     H231620   8.221   4.408   8.422
10460WAT      O31621   9.341   1.724   9.858
10460WAT     H131622   9.308   1.757   9.946
10460WAT     H231623   9.271   1.666   9.816
10461WAT      O31624   9.863   9.025   4.537
10461WAT     H131625   9.766   9.035   4.560
10461WAT     H231626   9.873   8.954   4.466
10462WAT      O31627   0.226   9.363   4.367
10462WAT     H131628   0.271   9.427   4.304
10462WAT     H231629   0.265   9.271   4.355
10463WAT      O31630   1.679   1.683   8.527
10463WAT     H131631   1.742   1.606   8.517
10463WAT     H231632   1.729   1.769   8.518
10464WAT      O31633   3.808   6.273   6.075
10464WAT     H131634   3.748   6.353   6.064
10464WAT     H231635   3.756   6.190   6.059
10465WAT      O31636   0.086   1.306   9.395
10465WAT     H131637   0.112   1.327   9.300
10465WAT     H231638  -0.013   1.301   9.402
10466WAT      O31639   4.725   0.714   1.958
10466WAT     H131640   4.736   0.635   2.018
10466WAT     H231641   4.669   0.783   2.004
10467WAT      O31642   8.734   3.036   4.624
10467WAT     H131643   8.732   2.972   4.547
10467WAT     H231644   8.826   3.037   4.664
10468WAT      O31645   1.591   1.662   3.807
10468WAT     H131646   1.627   1.579   3.848
10468WAT     H231647   1.646   1.686   3.726
10469WAT      O31648   7.433   2.862   1.594
10469WAT     H131649   7.509   2.903   1.644
10469WAT     H231650   7.455   2.767   1.571
10470WAT      O31651   8.174   7.528   0.986
10470WAT     H131652   8.186   7.464   0.910
10470WAT     H231653   8.263   7.545   1.030
10471WAT      O31654   0.969   4.137   8.293
10471WAT     H131655   0.988   4.213   8.230
10471WAT     H231656   0.914   4.170   8.369
10472WAT      O31657   8.095   9.615   4.530
10472WAT     H131658   8.160   9.687   4.509
10472WAT     H231659   8.017   9.620   4.468
10473WAT      O31660   4.058   3.234   2.083
10473WAT     H131661   4.104   3.187   2.158
10473WAT     H231662   4.066   3.333   2.095
10474WAT      O31663   7.236   3.504   0.666
10474WAT     H131664   7.171   3.503   0.742
10474WAT     H231665   7.187   3.508   0.580
10475WAT      O31666   2.919   5.996   6.674
10475WAT     H131667   2.994   6.048   6.715
10475WAT     H231668   2.864   6.056   6.617
10476WAT      O31669   6.891   2.888   0.909
10476WAT     H131670   6.906   2.983   0.882
10476WAT     H231671   6.962   2.831   0.868
10477WAT      O31672   6.517   0.763   5.332
10477WAT     H131673   6.589   0.803   5.389
10477WAT     H231674   6.552   0.745   5.240
10478WAT      O31675   3.334   4.164   5.136
10478WAT     H131676   3.386   4.248   5.146
10478WAT     H231677   3.311   4.128   5.227
10479WAT      O31678   0.867   0.305   2.143
10479WAT     H131679   0.769   0.301   2.162
10479WAT     H231680   0.889   0.247   2.065
10480WAT      O31681   4.906   1.444   5.894
10480WAT     H131682   4.840   1.514   5.924
10480WAT     H231683   4.890   1.422   5.798
10481WAT      O31684   9.822   4.207   3.054
10481WAT     H131685   9.869   4.287   3.092
10481WAT     H231686   9.889   4.143   3.019
10482WAT      O31687   3.510   0.116   4.075
10482WAT     H131688   3.442   0.055   4.116
10482WAT     H231689   3.496   0.120   3.976
10483WAT      O31690   2.347   2.073   1.581
10483WAT     H131691   2.410   2.123   1.641
10483WAT     H231692   2.353   2.110   1.488
10484WAT      O31693   7.746   6.072   8.711
10484WAT     H131694   7.743   6.124   8.796
10484WAT     H231695   7.722   5.977   8.729
10485WAT      O31696   1.207   5.321   0.250
10485WAT     H131697   1.281   5.357   0.307
10485WAT     H231698   1.218   5.223   0.239
10486WAT      O31699   5.199   4.210   4.480
10486WAT     H131700   5.191   4.131   4.418
10486WAT     H231701   5.289   4.252   4.468
10487WAT      O31702   5.842   1.039   0.846
10487WAT     H131703   5.847   1.078   0.938
10487WAT     H231704   5.761   0.982   0.838
10488WAT      O31705   6.519   3.036   3.014
10488WAT     H131706   6.550   3.045   2.919
10488WAT     H231707   6.568   3.103   3.070
10489WAT      O31708   2.778   4.403   3.755
10489WAT     H131709   2.823   4.341   3.690
10489WAT     H231710   2.840   4.479   3.775
10490WAT      O31711   5.712   4.571   0.043
10490WAT     H131712   5.615   4.578   0.065
10490WAT     H231713   5.751   4.662   0.030
10491WAT      O31714   8.085   9.204   2.251
10491WAT     H131715   8.081   9.251   2.339
10491WAT     H231716   8.153   9.130   2.256
10492WAT      O31717   2.247   4.671   4.089
10492WAT     H131718   2.248   4.679   3.990
10492WAT     H231719   2.215   4.580   4.115
10493WAT      O31720   4.373   2.532   3.322
10493WAT     H131721   4.427   2.454   3.292
10493WAT     H231722   4.281   2.526   3.283
10494WAT      O31723   8.705   0.007   7.490
10494WAT     H131724   8.734   0.043   7.402
10494WAT     H231725   8.784  -0.028   7.540
10495WAT      O31726   2.569   9.456   4.319
10495WAT     H131727   2.538   9.361   4.317
10495WAT     H231728   2.620   9.477   4.236
10496WAT      O31729   6.228   7.178   4.927
10496WAT     H131730   6.152   7.225   4.882
10496WAT     H231731   6.194   7.120   5.000
10497WAT      O31732   8.098   1.306   4.463
10497WAT     H131733   8.023   1.372   4.454
10497WAT     H231734   8.185   1.353   4.455
10498WAT      O31735   9.697   4.229   4.482
10498WAT     H131736   9.792   4.203   4.498
10498WAT     H231737   9.654   4.165   4.419
10499WAT      O31738   8.994   3.995   5.649
10499WAT     H131739   9.065   3.985   5.579
10499WAT     H231740   8.939   3.912   5.653
10500WAT      O31741   5.845   2.092   5.775
10500WAT     H131742   5.814   2.175   5.820
10500WAT     H231743   5.904   2.115   5.698
10501WAT      O31744   2.413   9.195   1.418
10501WAT     H131745   2.433   9.115   1.362
10501WAT     H231746   2.484   9.263   1.404
10502WAT      O31747   5.826   7.113   5.016
10502WAT     H131748   5.850   7.148   5.107
10502WAT     H231749   5.764   7.178   4.971
10503WAT      O31750   0.927   9.341   9.564
10503WAT     H131751   0.827   9.330   9.569
10503WAT     H231752   0.953   9.355   9.468
10504WAT      O31753   1.657   6.815   0.382
10504WAT     H131754   1.671   6.788   0.287
10504WAT     H231755   1.745   6.825   0.427
10505WAT      O31756   0.392   2.026   4.406
10505WAT     H131757   0.425   1.949   4.351
10505WAT     H231758   0.392   2.109   4.351
10506WAT      O31759   1.174   1.175   7.715
10506WAT     H131760   1.221   1.088   7.724
10506WAT     H231761   1.089   1.174   7.766
10507WAT      O31762   2.669   4.237   0.163
10507WAT     H131763   2.603   4.186   0.218
10507WAT     H231764   2.635   4.329   0.147
10508WAT      O31765   7.170   3.777   7.429
10508WAT     H131766   7.216   3.816   7.349
10508WAT     H231767   7.239   3.739   7.491
10509WAT      O31768   5.130   4.932   8.206
10509WAT     H131769   5.051   4.992   8.217
10509WAT     H231770   5.210   4.973   8.250
10510WAT      O31771   2.632   9.511   9.832
10510WAT     H131772   2.696   9.463   9.893
10510WAT     H231773   2.596   9.447   9.764
10511WAT      O31774   2.135   6.879   7.457
10511WAT     H131775   2.163   6.902   7.550
10511WAT     H231776   2.135   6.780   7.446
10512WAT      O31777   4.540   8.167   9.377
10512WAT     H131778   4.512   8.179   9.472
10512WAT     H231779   4.465   8.129   9.324
10513WAT      O31780   4.078   2.749   6.231
10513WAT     H131781   4.006   2.818   6.231
10513WAT     H231782   4.132   2.756   6.315
10514WAT      O31783   8.368   8.630   8.064
10514WAT     H131784   8.288   8.630   8.004
10514WAT     H231785   8.360   8.704   8.130
10515WAT      O31786   3.619   6.057   1.785
10515WAT     H131787   3.659   6.061   1.693
10515WAT     H231788   3.630   6.146   1.829
10516WAT      O31789   9.100   4.259   3.159
10516WAT     H131790   9.130   4.354   3.152
10516WAT     H231791   9.180   4.198   3.155
10517WAT      O31792   5.977   8.864   4.478
10517WAT     H131793   5.887   8.830   4.448
10517WAT     H231794   6.041   8.787   4.481
10518WAT      O31795   0.471   2.982   4.000
10518WAT     H131796   0.471   3.015   4.094
10518WAT     H231797   0.429   3.052   3.941
10519WAT      O31798   3.366   0.063   7.150
10519WAT     H131799   3.462   0.090   7.144
10519WAT     H231800   3.311   0.117   7.086
10520WAT      O31801   6.253   8.454   8.237
10520WAT     H131802   6.203   8.540   8.250
10520WAT     H231803   6.321   8.466   8.164
10521WAT      O31804   0.970   4.129   5.858
10521WAT     H131805   0.943   4.188   5.781
10521WAT     H231806   0.951   4.034   5.835
10522WAT      O31807   6.211   4.746   3.649
10522WAT     H131808   6.126   4.757   3.699
10522WAT     H231809   6.210   4.804   3.567
10523WAT      O31810   9.708   6.209   3.401
10523WAT     H131811   9.787   6.150   3.384
10523WAT     H231812   9.710   6.287   3.338
10524WAT      O31813   5.556   4.581   9.097
10524WAT     H131814   5.538   4.667   9.049
10524WAT     H231815   5.581   4.510   9.032
10525WAT      O31816   2.345   4.156   2.779
10525WAT     H131817   2.397   4.200   2.706
10525WAT     H231818   2.406   4.097   2.832
10526WAT      O31819   8.857   9.689   8.655
10526WAT     H131820   8.906   9.775   8.673
10526WAT     H231821   8.845   9.639   8.741
10527WAT      O31822   7.268   9.305   0.142
10527WAT     H131823   7.328   9.353   0.079
10527WAT     H231824   7.300   9.211   0.155
10528WAT      O31825   6.562   9.565   1.775
10528WAT     H131826   6.642   9.614   1.807
10528WAT     H231827   6.576   9.467   1.788
10529WAT      O31828   0.800   4.940   3.075
10529WAT     H131829   0.799   4.968   2.979
10529WAT     H231830   0.731   4.993   3.126
10530WAT      O31831   5.188   1.533   8.847
10530WAT     H131832   5.170   1.500   8.754
10530WAT     H231833   5.138   1.476   8.913
10531WAT      O31834   6.791   7.162   2.807
10531WAT     H131835   6.731   7.168   2.887
10531WAT     H231836   6.753   7.218   2.733
10532WAT      O31837   7.326   7.043   6.910
10532WAT     H131838   7.344   7.134   6.947
10532WAT     H231839   7.287   7.052   6.818
10533WAT      O31840   0.589   8.198   8.185
10533WAT     H131841   0.607   8.150   8.271
10533WAT     H231842   0.594   8.134   8.109
10534WAT      O31843   7.009   6.679   2.323
10534WAT     H131844   6.951   6.637   2.254
10534WAT     H231845   6.959   6.688   2.409
10535WAT      O31846   1.741   1.472   8.111
10535WAT     H131847   1.707   1.540   8.176
10535WAT     H231848   1.837   1.492   8.090
10536WAT      O31849   4.942   7.241   2.116
10536WAT     H131850   4.866   7.206   2.170
10536WAT     H231851   4.943   7.196   2.026
10537WAT      O31852   2.383   1.768   3.612
10537WAT     H131853   2.479   1.768   3.582
10537WAT     H231854   2.326   1.808   3.541
10538WAT      O31855   3.506   8.315   0.453
10538WAT     H131856   3.409   8.333   0.463
10538WAT     H231857   3.519   8.233   0.397
10539WAT      O31858   3.968   1.709   1.121
10539WAT     H131859   3.948   1.757   1.206
10539WAT     H231860   3.895   1.728   1.054
10540WAT      O31861   8.871   6.464   1.148
10540WAT     H131862   8.865   6.564   1.154
10540WAT     H231863   8.956   6.439   1.102
10541WAT      O31864   1.127   2.129   8.472
10541WAT     H131865   1.058   2.196   8.442
10541WAT     H231866   1.174   2.092   8.392
10542WAT      O31867   5.694   4.448   1.219
10542WAT     H131868   5.616   4.394   1.189
10542WAT     H231869   5.741   4.487   1.140
10543WAT      O31870   4.330   3.162   2.446
10543WAT     H131871   4.424   3.132   2.432
10543WAT     H231872   4.318   3.196   2.539
10544WAT      O31873   3.763   4.709   5.286
10544WAT     H131874   3.727   4.642   5.350
10544WAT     H231875   3.826   4.770   5.334
10545WAT      O31876   6.513   5.883   1.791
10545WAT     H131877   6.458   5.895   1.708
10545WAT     H231878   6.605   5.853   1.766
10546WAT      O31879   8.176   6.931   7.472
10546WAT     H131880   8.136   6.887   7.392
10546WAT     H231881   8.115   7.003   7.504
10547WAT      O31882   4.234   0.208   3.225
10547WAT     H131883   4.236   0.133   3.159
10547WAT     H231884   4.325   0.249   3.232
10548WAT      O31885   9.688   1.637   1.203
10548WAT     H131886   9.773   1.690   1.192
10548WAT     H231887   9.703   1.544   1.168
10549WAT      O31888   6.512   4.438   5.330
10549WAT     H131889   6.517   4.345   5.294
10549WAT     H231890   6.470   4.498   5.262
10550WAT      O31891   4.954   0.715   0.456
10550WAT     H131892   4.997   0.625   0.447
10550WAT     H231893   4.863   0.712   0.414
10551WAT      O31894   3.141   3.855   7.665
10551WAT     H131895   3.137   3.825   7.570
10551WAT     H231896   3.210   3.927   7.674
10552WAT      O31897   0.753   7.990   8.655
10552WAT     H131898   0.842   8.024   8.685
10552WAT     H231899   0.766   7.905   8.604
10553WAT      O31900   2.133   1.576   9.491
10553WAT     H131901   2.037   1.567   9.518
10553WAT     H231902   2.183   1.493   9.516
10554WAT      O31903   9.189   4.749   5.413
10554WAT     H131904   9.163   4.685   5.485
10554WAT     H231905   9.286   4.737   5.391
10555WAT      O31906   6.760   3.163   3.159
10555WAT     H131907   6.808   3.171   3.072
10555WAT     H231908   6.795   3.083   3.209
10556WAT      O31909   8.984   2.712   6.557
10556WAT     H131910   8.905   2.654   6.534
10556WAT     H231911   9.011   2.764   6.476
10557WAT      O31912   2.611   3.993   8.691
10557WAT     H131913   2.692   3.987   8.633
10557WAT     H231914   2.532   3.957   8.641
10558WAT      O31915   6.670   2.634   0.796
10558WAT     H131916   6.620   2.656   0.712
10558WAT     H231917   6.713   2.716   0.832
10559WAT      O31918   7.794   9.832   1.138
10559WAT     H131919   7.751   9.900   1.078
10559WAT     H231920   7.801   9.869   1.230
10560WAT      O31921   2.575   8.864   9.230
10560WAT     H131922   2.529   8.908   9.306
10560WAT     H231923   2.512   8.801   9.184
10561WAT      O31924   2.172   4.789   2.176
10561WAT     H131925   2.216   4.872   2.211
10561WAT     H231926   2.095   4.815   2.118
10562WAT      O31927   4.800   2.301   7.931
10562WAT     H131928   4.890   2.265   7.956
10562WAT     H231929   4.809   2.357   7.849
10563WAT      O31930   0.396   8.015   3.936
10563WAT     H131931   0.490   7.980   3.937
10563WAT     H231932   0.339   7.956   3.879
10564WAT      O31933   6.381   2.482   9.312
10564WAT     H131934   6.406   2.386   9.300
10564WAT     H231935   6.288   2.488   9.349
10565WAT      O31936   7.053   2.326   8.137
10565WAT     H131937   7.013   2.386   8.067
10565WAT     H231938   7.099   2.382   8.205
10566WAT      O31939   2.743   3.486   5.071
10566WAT     H131940   2.666   3.423   5.066
10566WAT     H231941   2.711   3.579   5.054
10567WAT      O31942   4.141   7.240   2.452
10567WAT     H131943   4.204   7.269   2.381
10567WAT     H231944   4.191   7.222   2.537
10568WAT      O31945   3.774   7.191   7.817
10568WAT     H131946   3.819   7.106   7.844
10568WAT     H231947   3.817   7.268   7.865
10569WAT      O31948   2.423   3.975   6.547
10569WAT     H131949   2.381   3.917   6.476
10569WAT     H231950   2.509   4.013   6.512
10570WAT      O31951   7.675   2.510   0.261
10570WAT     H131952   7.750   2.446   0.281
10570WAT     H231953   7.630   2.535   0.346
10571WAT      O31954   3.237   3.567   6.162
10571WAT     H131955   3.139   3.551   6.149
10571WAT     H231956   3.287   3.481   6.151
10572WAT      O31957   4.411   0.908   6.678
10572WAT     H131958   4.379   0.939   6.589
10572WAT     H231959   4.511   0.915   6.682
10573WAT      O31960   7.247   5.490   6.289
10573WAT     H131961   7.223   5.585   6.269
10573WAT     H231962   7.276   5.482   6.384
10574WAT      O31963   3.199   2.237   2.513
10574WAT     H131964   3.251   2.180   2.576
10574WAT     H231965   3.147   2.179   2.450
10575WAT      O31966   8.354   8.683   5.676
10575WAT     H131967   8.305   8.597   5.661
10575WAT     H231968   8.291   8.759   5.664
10576WAT      O31969   0.368   7.258   6.450
10576WAT     H131970   0.466   7.265   6.428
10576WAT     H231971   0.343   7.331   6.513
10577WAT      O31972   5.365   8.596   7.000
10577WAT     H131973   5.350   8.693   6.983
10577WAT     H231974   5.461   8.581   7.024
10578WAT      O31975   1.768   2.664   1.630
10578WAT     H131976   1.674   2.691   1.650
10578WAT     H231977   1.822   2.669   1.714
10579WAT      O31978   7.440   7.348   8.651
10579WAT     H131979   7.519   7.387   8.697
10579WAT     H231980   7.401   7.415   8.588
10580WAT      O31981   2.887   1.680   6.879
10580WAT     H131982   2.950   1.748   6.842
10580WAT     H231983   2.939   1.602   6.915
10581WAT      O31984   0.766   7.533   2.095
10581WAT     H131985   0.679   7.511   2.140
10581WAT     H231986   0.809   7.611   2.140
10582WAT      O31987   4.861   0.868   2.780
10582WAT     H131988   4.862   0.968   2.784
10582WAT     H231989   4.861   0.837   2.685
10583WAT      O31990   9.557   2.813   7.669
10583WAT     H131991   9.475   2.772   7.710
10583WAT     H231992   9.598   2.877   7.734
10584WAT      O31993   1.267   9.496   4.604
10584WAT     H131994   1.214   9.415   4.579
10584WAT     H231995   1.359   9.488   4.565
10585WAT      O31996   2.786   5.950   2.514
10585WAT     H131997   2.737   6.029   2.551
10585WAT     H231998   2.728   5.902   2.448
10586WAT      O31999   6.946   3.726   6.361
10586WAT     H132000   6.984   3.781   6.435
10586WAT     H232001   7.020   3.674   6.317
10587WAT      O32002   2.293   8.664   0.287
10587WAT     H132003   2.193   8.662   0.289
10587WAT     H232004   2.327   8.596   0.221
10588WAT      O32005   7.947   6.128   5.741
10588WAT     H132006   7.919   6.165   5.829
10588WAT     H232007   8.033   6.172   5.712
10589WAT      O32008   9.377   3.737   0.589
10589WAT     H132009   9.397   3.640   0.576
10589WAT     H232010   9.332   3.751   0.677
10590WAT      O32011   5.515   5.150   6.558
10590WAT     H132012   5.472   5.215   6.621
10590WAT     H232013   5.455   5.072   6.543
10591WAT      O32014   0.293   8.571   9.064
10591WAT     H132015   0.250   8.655   9.098
10591WAT     H232016   0.225   8.498   9.062
10592WAT      O32017   8.479   0.080   0.926
10592WAT     H132018   8.395   0.033   0.899
10592WAT     H232019   8.557   0.038   0.881
10593WAT      O32020   0.604   2.470   7.471
10593WAT     H132021   0.597   2.564   7.437
10593WAT     H232022   0.661   2.416   7.409
10594WAT      O32023   1.052   4.881   1.168
10594WAT     H132024   1.117   4.868   1.093
10594WAT     H232025   1.058   4.975   1.202
10595WAT      O32026   6.495   1.664   8.170
10595WAT     H132027   6.538   1.729   8.232
10595WAT     H232028   6.436   1.603   8.221
10596WAT      O32029   1.222   4.093   5.885
10596WAT     H132030   1.127   4.123   5.893
10596WAT     H232031   1.282   4.164   5.920
10597WAT      O32032   2.716   8.832   3.983
10597WAT     H132033   2.799   8.881   3.955
10597WAT     H232034   2.637   8.872   3.938
10598WAT      O32035   1.613   4.658   1.420
10598WAT     H132036   1.667   4.740   1.438
10598WAT     H232037   1.523   4.667   1.464
10599WAT      O32038   8.545   5.419   2.228
10599WAT     H132039   8.638   5.456   2.229
10599WAT     H232040   8.514   5.403   2.322
10600WAT      O32041   2.505   3.592   7.545
10600WAT     H132042   2.460   3.646   7.474
10600WAT     H232043   2.601   3.575   7.519
10601WAT      O32044   1.020   0.651   7.884
10601WAT     H132045   1.100   0.668   7.827
10601WAT     H232046   1.050   0.619   7.974
10602WAT      O32047   1.228   8.805   9.631
10602WAT     H132048   1.316   8.811   9.583
10602WAT     H232049   1.200   8.709   9.637
10603WAT      O32050   0.485   5.203   6.055
10603WAT     H132051   0.461   5.130   5.991
10603WAT     H232052   0.445   5.289   6.023
10604WAT      O32053   8.538   7.620   4.074
10604WAT     H132054   8.581   7.663   4.153
10604WAT     H232055   8.592   7.540   4.046
10605WAT      O32056   6.962   3.139   6.224
10605WAT     H132057   6.974   3.061   6.285
10605WAT     H232058   7.052   3.175   6.198
10606WAT      O32059   8.189   3.112   8.976
10606WAT     H132060   8.096   3.145   8.960
10606WAT     H232061   8.198   3.019   8.938
10607WAT      O32062   4.197   1.105   6.814
10607WAT     H132063   4.233   1.039   6.879
10607WAT     H232064   4.268   1.171   6.789
10608WAT      O32065   8.026   7.436   8.329
10608WAT     H132066   8.077   7.521   8.345
10608WAT     H232067   8.064   7.389   8.249
10609WAT      O32068   2.747   5.143   4.830
10609WAT     H132069   2.842   5.151   4.799
10609WAT     H232070   2.728   5.214   4.898
10610WAT      O32071   7.171   8.798   8.302
10610WAT     H132072   7.236   8.794   8.226
10610WAT     H232073   7.221   8.810   8.388
10611WAT      O32074   6.374   6.881   9.116
10611WAT     H132075   6.335   6.941   9.046
10611WAT     H232076   6.473   6.894   9.120
10612WAT      O32077   0.515   6.522   3.952
10612WAT     H132078   0.429   6.528   4.002
10612WAT     H232079   0.576   6.597   3.978
10613WAT      O32080   7.156   3.055   6.692
10613WAT     H132081   7.061   3.045   6.663
10613WAT     H232082   7.214   3.073   6.613
10614WAT      O32083   3.311   4.115   2.968
10614WAT     H132084   3.386   4.061   3.006
10614WAT     H232085   3.290   4.192   3.029
10615WAT      O32086   7.026   5.847   3.589
10615WAT     H132087   7.013   5.811   3.497
10615WAT     H232088   7.103   5.801   3.633
10616WAT      O32089   7.589   8.797   7.951
10616WAT     H132090   7.559   8.882   7.994
10616WAT     H232091   7.586   8.723   8.018
10617WAT      O32092   7.978   5.544   8.375
10617WAT     H132093   7.888   5.540   8.333
10617WAT     H232094   7.990   5.632   8.420
10618WAT      O32095   5.786   2.202   2.396
10618WAT     H132096   5.730   2.194   2.314
10618WAT     H232097   5.792   2.298   2.423
10619WAT      O32098   2.285   5.255   9.574
10619WAT     H132099   2.220   5.312   9.625
10619WAT     H232100   2.274   5.160   9.601
10620WAT      O32101   2.502   3.964   1.638
10620WAT     H132102   2.529   3.878   1.681
10620WAT     H232103   2.405   3.979   1.651
10621WAT      O32104   1.996   5.018   7.559
10621WAT     H132105   1.959   4.929   7.586
10621WAT     H232106   2.091   5.026   7.590
10622WAT      O32107   3.999   4.101   4.393
10622WAT     H132108   3.963   4.076   4.483
10622WAT     H232109   4.096   4.122   4.401
10623WAT      O32110   9.027   5.049   1.891
10623WAT     H132111   9.068   5.048   1.982
10623WAT     H232112   9.008   4.955   1.862
10624WAT      O32113   5.916   4.982   8.139
10624WAT     H132114   5.905   4.908   8.206
10624WAT     H232115   5.876   5.066   8.177
10625WAT      O32116   9.655   9.523   2.754
10625WAT     H132117   9.592   9.473   2.814
10625WAT     H232118   9.612   9.607   2.723
10626WAT      O32119   4.646   3.009   3.906
10626WAT     H132120   4.570   2.998   3.842
10626WAT     H232121   4.656   3.105   3.929
10627WAT      O32122   7.913   7.589   9.119
10627WAT     H132123   7.994   7.602   9.176
10627WAT     H232124   7.932   7.522   9.047
10628WAT      O32125   6.055   8.524   6.771
10628WAT     H132126   6.055   8.599   6.837
10628WAT     H232127   6.143   8.476   6.774
10629WAT      O32128   7.486   3.650   6.691
10629WAT     H132129   7.438   3.715   6.749
10629WAT     H232130   7.421   3.583   6.655
10630WAT      O32131   3.085   9.408   5.997
10630WAT     H132132   3.065   9.367   5.907
10630WAT     H232133   3.113   9.503   5.985
10631WAT      O32134   3.693   6.905   0.569
10631WAT     H132135   3.615   6.916   0.631
10631WAT     H232136   3.778   6.912   0.621
10632WAT      O32137   6.131   2.150   1.279
10632WAT     H132138   6.121   2.250   1.284
10632WAT     H232139   6.177   2.125   1.194
10633WAT      O32140   1.472   7.578   7.666
10633WAT     H132141   1.521   7.562   7.580
10633WAT     H232142   1.374   7.577   7.650
10634WAT      O32143   4.309   6.104   5.854
10634WAT     H132144   4.324   6.038   5.928
10634WAT     H232145   4.324   6.196   5.888
10635WAT      O32146   4.089   5.936   8.480
10635WAT     H132147   4.073   5.843   8.512
10635WAT     H232148   4.086   5.939   8.381
10636WAT      O32149   1.353   5.334   3.977
10636WAT     H132150   1.277   5.285   4.019
10636WAT     H232151   1.421   5.269   3.943
10637WAT      O32152   1.380   1.370   8.963
10637WAT     H132153   1.352   1.284   9.005
10637WAT     H232154   1.371   1.364   8.864
10638WAT      O32155   9.803   4.691   4.155
10638WAT     H132156   9.752   4.653   4.077
10638WAT     H232157   9.769   4.651   4.240
10639WAT      O32158   0.482   3.650   9.362
10639WAT     H132159   0.411   3.646   9.292
10639WAT     H232160   0.528   3.561   9.367
10640WAT      O32161   9.467   0.780   3.411
10640WAT     H132162   9.446   0.877   3.402
10640WAT     H232163   9.471   0.738   3.320
10641WAT      O32164   4.361   4.564   0.270
10641WAT     H132165   4.416   4.521   0.199
10641WAT     H232166   4.266   4.572   0.239
10642WAT      O32167   4.920   1.591   1.675
10642WAT     H132168   4.942   1.550   1.586
10642WAT     H232169   5.005   1.611   1.724
10643WAT      O32170   7.272   6.868   9.510
10643WAT     H132171   7.342   6.797   9.517
10643WAT     H232172   7.291   6.940   9.578
10644WAT      O32173   9.772   1.907   8.074
10644WAT     H132174   9.822   1.867   8.152
10644WAT     H232175   9.722   1.988   8.105
10645WAT      O32176   0.991   0.539   2.275
10645WAT     H132177   1.069   0.556   2.214
10645WAT     H232178   0.972   0.441   2.277
10646WAT      O32179   9.498   2.013   8.182
10646WAT     H132180   9.553   2.080   8.232
10646WAT     H232181   9.438   2.060   8.118
10647WAT      O32182   7.334   9.395   6.505
10647WAT     H132183   7.367   9.319   6.449
10647WAT     H232184   7.407   9.426   6.566
10648WAT      O32185   1.673   2.139   7.479
10648WAT     H132186   1.762   2.096   7.489
10648WAT     H232187   1.653   2.154   7.382
10649WAT      O32188   0.403   7.598   3.119
10649WAT     H132189   0.459   7.662   3.067
10649WAT     H232190   0.460   7.549   3.184
10650WAT      O32191   5.052   1.839   5.557
10650WAT     H132192   5.047   1.753   5.506
10650WAT     H232193   5.122   1.832   5.628
10651WAT      O32194   6.279   2.196   7.847
10651WAT     H132195   6.291   2.290   7.815
10651WAT     H232196   6.365   2.146   7.834
10652WAT      O32197   5.931   9.509   9.870
10652WAT     H132198   5.900   9.549   9.784
10652WAT     H232199   5.864   9.528   9.942
10653WAT      O32200   9.231   5.686   7.799
10653WAT     H132201   9.253   5.742   7.880
10653WAT     H232202   9.157   5.624   7.822
10654WAT      O32203   6.392   6.921   5.944
10654WAT     H132204   6.435   6.882   5.863
10654WAT     H232205   6.293   6.903   5.941
10655WAT      O32206   1.698   0.660   8.539
10655WAT     H132207   1.716   0.751   8.577
10655WAT     H232208   1.730   0.591   8.604
10656WAT      O32209   2.856   2.631   3.733
10656WAT     H132210   2.778   2.577   3.702
10656WAT     H232211   2.891   2.593   3.819
10657WAT      O32212   1.471   9.844   9.124
10657WAT     H132213   1.489   9.767   9.063
10657WAT     H232214   1.556   9.871   9.169
10658WAT      O32215   4.728   9.456   5.330
10658WAT     H132216   4.752   9.542   5.376
10658WAT     H232217   4.780   9.448   5.245
10659WAT      O32218   3.083   6.510   9.555
10659WAT     H132219   3.068   6.451   9.476
10659WAT     H232220   3.117   6.455   9.632
10660WAT      O32221   7.287   5.512   8.629
10660WAT     H132222   7.216   5.478   8.691
10660WAT     H232223   7.329   5.435   8.581
10661WAT      O32224   2.659   3.542   7.864
10661WAT     H132225   2.681   3.535   7.962
10661WAT     H232226   2.566   3.576   7.853
10662WAT      O32227   0.247   7.922   8.910
10662WAT     H132228   0.185   7.926   8.832
10662WAT     H232229   0.334   7.880   8.882
10663WAT      O32230   4.992   6.768   7.421
10663WAT     H132231   4.949   6.788   7.333
10663WAT     H232232   4.981   6.847   7.481
10664WAT      O32233   7.966   6.318   9.752
10664WAT     H132234   7.877   6.275   9.769
10664WAT     H232235   7.978   6.331   9.654
10665WAT      O32236   4.155   5.544   0.610
10665WAT     H132237   4.104   5.519   0.692
10665WAT     H232238   4.149   5.643   0.595
10666WAT      O32239   1.583   1.999   3.118
10666WAT     H132240   1.491   2.022   3.085
10666WAT     H232241   1.602   1.902   3.103
10667WAT      O32242   6.742   7.461   6.989
10667WAT     H132243   6.688   7.438   7.071
10667WAT     H232244   6.741   7.383   6.927
10668WAT      O32245   1.095   6.143   3.651
10668WAT     H132246   1.140   6.143   3.740
10668WAT     H232247   1.003   6.182   3.661
10669WAT      O32248   2.528   4.098   5.687
10669WAT     H132249   2.432   4.127   5.689
10669WAT     H232250   2.580   4.159   5.627
10670WAT      O32251   2.909   8.204   9.467
10670WAT     H132252   3.002   8.205   9.432
10670WAT     H232253   2.874   8.297   9.472
10671WAT      O32254   2.761   6.935   1.912
10671WAT     H132255   2.801   6.894   1.993
10671WAT     H232256   2.789   7.031   1.905
10672WAT      O32257   0.066   9.226   7.721
10672WAT     H132258  -0.014   9.174   7.692
10672WAT     H232259   0.066   9.234   7.821
10673WAT      O32260   9.449   4.026   3.845
10673WAT     H132261   9.387   3.947   3.847
10673WAT     H232262   9.515   4.015   3.770
10674WAT      O32263   3.946   0.857   8.577
10674WAT     H132264   3.901   0.911   8.505
10674WAT     H232265   3.877   0.803   8.625
10675WAT      O32266   8.896   8.309   7.611
10675WAT     H132267   8.847   8.264   7.537
10675WAT     H232268   8.903   8.406   7.592
10676WAT      O32269   7.676   0.118   2.853
10676WAT     H132270   7.576   0.121   2.854
10676WAT     H232271   7.712   0.207   2.825
10677WAT      O32272   7.605   6.439   1.210
10677WAT     H132273   7.562   6.361   1.255
10677WAT     H232274   7.682   6.408   1.154
10678WAT      O32275   5.447   3.032   3.725
10678WAT     H132276   5.520   2.966   3.741
10678WAT     H232277   5.358   2.989   3.743
10679WAT      O32278   0.670   2.127   6.751
10679WAT     H132279   0.711   2.123   6.843
10679WAT     H232280   0.576   2.095   6.755
10680WAT      O32281   6.699   9.499   7.940
10680WAT     H132282   6.719   9.401   7.948
10680WAT     H232283   6.785   9.549   7.929
10681WAT      O32284   1.491   5.479   9.457
10681WAT     H132285   1.526   5.432   9.376
10681WAT     H232286   1.408   5.432   9.489
10682WAT      O32287   5.517   0.636   4.531
10682WAT     H132288   5.511   0.593   4.441
10682WAT     H232289   5.606   0.680   4.541
10683WAT      O32290   9.097   8.782   7.901
10683WAT     H132291   9.115   8.718   7.827
10683WAT     H232292   9.074   8.732   7.984
10684WAT      O32293   2.520   8.749   0.379
10684WAT     H132294   2.428   8.714   0.363
10684WAT     H232295   2.570   8.753   0.293
10685WAT      O32296   4.410   6.001   1.432
10685WAT     H132297   4.388   6.090   1.473
10685WAT     H232298   4.360   5.991   1.346
10686WAT      O32299   4.876   1.414   0.961
10686WAT     H132300   4.803   1.482   0.962
10686WAT     H232301   4.836   1.323   0.957
10687WAT      O32302   6.366   7.015   6.789
10687WAT     H132303   6.444   6.992   6.732
10687WAT     H232304   6.287   7.035   6.732
10688WAT      O32305   6.043   2.055   3.059
10688WAT     H132306   6.103   2.035   3.137
10688WAT     H232307   5.977   2.125   3.085
10689WAT      O32308   5.201   5.246   6.843
10689WAT     H132309   5.246   5.288   6.764
10689WAT     H232310   5.114   5.207   6.815
10690WAT      O32311   2.079   5.082   3.916
10690WAT     H132312   2.019   5.002   3.912
10690WAT     H232313   2.042   5.156   3.860
10691WAT      O32314   7.930   6.474   5.647
10691WAT     H132315   7.956   6.407   5.577
10691WAT     H232316   7.832   6.468   5.664
10692WAT      O32317   2.348   6.946   2.810
10692WAT     H132318   2.275   6.937   2.877
10692WAT     H232319   2.404   7.025   2.833
10693WAT      O32320   1.633   2.874   1.287
10693WAT     H132321   1.712   2.926   1.256
10693WAT     H232322   1.660   2.779   1.305
10694WAT      O32323   9.830   9.646   6.858
10694WAT     H132324   9.901   9.713   6.834
10694WAT     H232325   9.813   9.651   6.956
10695WAT      O32326   7.179   7.872   6.348
10695WAT     H132327   7.133   7.783   6.348
10695WAT     H232328   7.111   7.945   6.340
10696WAT      O32329   9.243   8.533   1.035
10696WAT     H132330   9.200   8.623   1.046
10696WAT     H232331   9.334   8.534   1.077
10697WAT      O32332   2.143   4.348   6.264
10697WAT     H132333   2.053   4.369   6.301
10697WAT     H232334   2.213   4.362   6.334
10698WAT      O32335   9.049   7.848   7.993
10698WAT     H132336   9.040   7.756   7.955
10698WAT     H232337   8.959   7.893   7.993
10699WAT      O32338   1.583   3.402   9.854
10699WAT     H132339   1.560   3.355   9.768
10699WAT     H232340   1.509   3.464   9.880
10700WAT      O32341   1.674   4.043   0.023
10700WAT     H132342   1.739   4.059   0.097
10700WAT     H232343   1.582   4.028   0.061
10701WAT      O32344   4.814   4.069   4.071
10701WAT     H132345   4.807   4.012   3.990
10701WAT     H232346   4.908   4.100   4.082
10702WAT      O32347   6.615   8.429   5.638
10702WAT     H132348   6.566   8.371   5.574
10702WAT     H232349   6.553   8.460   5.710
10703WAT      O32350   3.728   0.603   0.990
10703WAT     H132351   3.702   0.675   1.054
10703WAT     H232352   3.749   0.643   0.901
10704WAT      O32353   0.265   1.250   0.446
10704WAT     H132354   0.225   1.276   0.358
10704WAT     H232355   0.204   1.186   0.493
10705WAT      O32356   6.770   9.784   5.291
10705WAT     H132357   6.755   9.776   5.390
10705WAT     H232358   6.836   9.857   5.274
10706WAT      O32359   8.769   4.201   7.473
10706WAT     H132360   8.842   4.139   7.502
10706WAT     H232361   8.681   4.162   7.498
10707WAT      O32362   0.247   8.000   3.427
10707WAT     H132363   0.175   7.971   3.363
10707WAT     H232364   0.280   7.921   3.479
10708WAT      O32365   6.264   3.223   1.990
10708WAT     H132366   6.263   3.128   2.022
10708WAT     H232367   6.344   3.269   2.028
10709WAT      O32368   2.920   2.463   6.239
10709WAT     H132369   2.878   2.373   6.226
10709WAT     H232370   2.862   2.518   6.299
10710WAT      O32371   7.338   9.635   3.747
10710WAT     H132372   7.435   9.622   3.768
10710WAT     H232373   7.307   9.563   3.686
10711WAT      O32374   1.319   0.790   4.956
10711WAT     H132375   1.332   0.889   4.962
10711WAT     H232376   1.260   0.760   5.032
10712WAT      O32377   7.526   6.974   6.386
10712WAT     H132378   7.523   6.874   6.378
10712WAT     H232379   7.433   7.010   6.383
10713WAT      O32380   8.169   5.690   6.479
10713WAT     H132381   8.087   5.669   6.532
10713WAT     H232382   8.194   5.786   6.494
10714WAT      O32383   5.514   5.921   1.323
10714WAT     H132384   5.605   5.882   1.318
10714WAT     H232385   5.501   5.987   1.249
10715WAT      O32386   4.966   6.253   3.820
10715WAT     H132387   5.041   6.288   3.877
10715WAT     H232388   4.999   6.178   3.764
10716WAT      O32389   7.379   2.643   5.515
10716WAT     H132390   7.311   2.650   5.588
10716WAT     H232391   7.393   2.733   5.473
10717WAT      O32392   7.802   8.946   6.771
10717WAT     H132393   7.758   8.971   6.685
10717WAT     H232394   7.894   8.912   6.753
10718WAT      O32395   5.954   5.726   3.664
10718WAT     H132396   6.035   5.678   3.698
10718WAT     H232397   5.980   5.817   3.632
10719WAT      O32398   6.994   2.287   8.851
10719WAT     H132399   6.987   2.384   8.827
10719WAT     H232400   7.034   2.278   8.942
10720WAT      O32401   0.653   7.218   1.537
10720WAT     H132402   0.602   7.278   1.476
10720WAT     H232403   0.610   7.219   1.628
10721WAT      O32404   9.304   4.527   3.150
10721WAT     H132405   9.310   4.590   3.228
10721WAT     H232406   9.385   4.537   3.093
10722WAT      O32407   0.026   4.379   4.237
10722WAT     H132408  -0.063   4.424   4.233
10722WAT     H232409   0.020   4.289   4.194
10723WAT      O32410   3.876   1.877   0.529
10723WAT     H132411   3.835   1.787   0.519
10723WAT     H232412   3.923   1.883   0.617
10724WAT      O32413   1.752   6.535   3.677
10724WAT     H132414   1.764   6.554   3.775
10724WAT     H232415   1.757   6.621   3.626
10725WAT      O32416   6.351   1.159   1.230
10725WAT     H132417   6.361   1.060   1.236
10725WAT     H232418   6.405   1.203   1.302
10726WAT      O32419   3.321   7.913   2.373
10726WAT     H132420   3.367   7.859   2.303
10726WAT     H232421   3.222   7.912   2.355
10727WAT      O32422   2.822   4.284   8.833
10727WAT     H132423   2.820   4.307   8.736
10727WAT     H232424   2.790   4.190   8.846
10728WAT      O32425   6.118   8.026   6.093
10728WAT     H132426   6.149   8.121   6.088
10728WAT     H232427   6.184   7.967   6.046
10729WAT      O32428   7.584   6.733   2.998
10729WAT     H132429   7.595   6.646   3.047
10729WAT     H232430   7.632   6.728   2.910
10730WAT      O32431   6.361   8.220   4.505
10730WAT     H132432   6.451   8.180   4.493
10730WAT     H232433   6.364   8.317   4.484
10731WAT      O32434   7.360   3.462   4.278
10731WAT     H132435   7.356   3.557   4.307
10731WAT     H232436   7.286   3.410   4.322
10732WAT      O32437   8.866   5.248   3.627
10732WAT     H132438   8.917   5.162   3.630
10732WAT     H232439   8.773   5.230   3.594
10733WAT      O32440   1.018   6.959   2.720
10733WAT     H132441   1.114   6.989   2.720
10733WAT     H232442   1.010   6.870   2.765
10734WAT      O32443   1.590   1.585   7.243
10734WAT     H132444   1.501   1.543   7.257
10734WAT     H232445   1.581   1.665   7.184
10735WAT      O32446   0.240   2.959   6.881
10735WAT     H132447   0.183   2.885   6.916
10735WAT     H232448   0.285   3.005   6.957
10736WAT      O32449   9.311   9.261   7.516
10736WAT     H132450   9.401   9.269   7.560
10736WAT     H232451   9.312   9.182   7.453
10737WAT      O32452   4.104   8.999   8.919
10737WAT     H132453   4.046   8.966   8.993
10737WAT     H232454   4.062   8.976   8.831
10738WAT      O32455   4.820   7.597   2.486
10738WAT     H132456   4.766   7.595   2.402
10738WAT     H232457   4.850   7.504   2.508
10739WAT      O32458   6.007   7.786   4.323
10739WAT     H132459   5.934   7.719   4.327
10739WAT     H232460   5.971   7.873   4.289
10740WAT      O32461   9.611   8.039   6.534
10740WAT     H132462   9.584   8.008   6.625
10740WAT     H232463   9.691   8.099   6.543
10741WAT      O32464   2.180   3.849   2.123
10741WAT     H132465   2.265   3.805   2.152
10741WAT     H232466   2.104   3.785   2.134
10742WAT      O32467   7.673   2.379   4.404
10742WAT     H132468   7.732   2.363   4.324
10742WAT     H232469   7.650   2.476   4.409
10743WAT      O32470   3.929   3.344   8.477
10743WAT     H132471   3.850   3.392   8.438
10743WAT     H232472   3.968   3.400   8.550
10744WAT      O32473   5.160   9.032   3.467
10744WAT     H132474   5.061   9.028   3.478
10744WAT     H232475   5.182   9.034   3.369
10745WAT      O32476   1.851   8.272   0.110
10745WAT     H132477   1.785   8.201   0.136
10745WAT     H232478   1.859   8.274   0.010
10746WAT      O32479   7.169   2.210   3.508
10746WAT     H132480   7.150   2.280   3.439
10746WAT     H232481   7.153   2.119   3.468
10747WAT      O32482   3.703   7.594   0.714
10747WAT     H132483   3.799   7.622   0.716
10747WAT     H232484   3.656   7.627   0.796
10748WAT      O32485   2.237   1.189   3.118
10748WAT     H132486   2.327   1.160   3.087
10748WAT     H232487   2.226   1.170   3.215
10749WAT      O32488   8.898   4.479   6.896
10749WAT     H132489   8.946   4.504   6.980
10749WAT     H232490   8.950   4.408   6.848
10750WAT      O32491   9.298   9.334   3.356
10750WAT     H132492   9.257   9.352   3.445
10750WAT     H232493   9.362   9.257   3.363
10751WAT      O32494   3.400   4.601   0.846
10751WAT     H132495   3.394   4.623   0.943
10751WAT     H232496   3.466   4.661   0.802
10752WAT      O32497   9.375   1.256   1.017
10752WAT     H132498   9.402   1.350   0.996
10752WAT     H232499   9.306   1.256   1.088
10753WAT      O32500   0.977   0.393   3.805
10753WAT     H132501   0.889   0.388   3.759
10753WAT     H232502   1.031   0.312   3.784
10754WAT      O32503   0.069   6.412   0.495
10754WAT     H132504   0.006   6.488   0.512
10754WAT     H232505   0.163   6.444   0.505
10755WAT      O32506   5.032   2.763   6.431
10755WAT     H132507   5.072   2.854   6.422
10755WAT     H232508   5.105   2.695   6.437
10756WAT      O32509   4.061   0.786   2.433
10756WAT     H132510   4.125   0.862   2.429
10756WAT     H232511   3.990   0.805   2.501
10757WAT      O32512   7.454   3.980   5.908
10757WAT     H132513   7.440   3.893   5.860
10757WAT     H232514   7.365   4.020   5.932
10758WAT      O32515   9.210   0.216   5.828
10758WAT     H132516   9.222   0.259   5.738
10758WAT     H232517   9.182   0.286   5.894
10759WAT      O32518   9.859   7.309   7.061
10759WAT     H132519   9.951   7.303   7.024
10759WAT     H232520   9.809   7.383   7.016
10760WAT      O32521   8.008   6.995   6.838
10760WAT     H132522   7.922   7.017   6.794
10760WAT     H232523   8.038   7.072   6.893
10761WAT      O32524   2.895   2.390   5.223
10761WAT     H132525   2.930   2.441   5.145
10761WAT     H232526   2.902   2.292   5.205
10762WAT      O32527   0.106   2.360   2.694
10762WAT     H132528   0.185   2.397   2.644
10762WAT     H232529   0.081   2.272   2.653
10763WAT      O32530   3.060   6.033   2.553
10763WAT     H132531   3.142   5.995   2.509
10763WAT     H232532   2.981   5.977   2.527
10764WAT      O32533   6.930   6.851   5.285
10764WAT     H132534   6.853   6.801   5.245
10764WAT     H232535   6.909   6.948   5.289
10765WAT      O32536   5.425   1.661   4.572
10765WAT     H132537   5.380   1.596   4.511
10765WAT     H232538   5.441   1.747   4.523
10766WAT      O32539   9.565   4.041   5.150
10766WAT     H132540   9.491   4.092   5.106
10766WAT     H232541   9.551   3.943   5.134
10767WAT      O32542   0.174   9.549   9.881
10767WAT     H132543   0.112   9.572   9.805
10767WAT     H232544   0.145   9.599   9.962
10768WAT      O32545   6.830   3.558   5.792
10768WAT     H132546   6.811   3.510   5.878
10768WAT     H232547   6.929   3.571   5.782
10769WAT      O32548   9.115   8.566   3.932
10769WAT     H132549   9.134   8.503   4.008
10769WAT     H232550   9.122   8.660   3.964
10770WAT      O32551   8.015   3.353   9.533
10770WAT     H132552   7.933   3.306   9.565
10770WAT     H232553   7.994   3.401   9.448
10771WAT      O32554   9.604   6.325   1.577
10771WAT     H132555   9.513   6.312   1.539
10771WAT     H232556   9.670   6.338   1.503
10772WAT      O32557   6.301   7.042   9.384
10772WAT     H132558   6.254   6.956   9.404
10772WAT     H232559   6.357   7.031   9.301
10773WAT      O32560   0.831   7.896   7.608
10773WAT     H132561   0.790   7.831   7.672
10773WAT     H232562   0.833   7.987   7.649
10774WAT      O32563   0.394   1.518   3.680
10774WAT     H132564   0.489   1.520   3.650
10774WAT     H232565   0.385   1.456   3.758
10775WAT      O32566   0.270   5.497   4.454
10775WAT     H132567   0.331   5.576   4.465
10775WAT     H232568   0.321   5.413   4.472
10776WAT      O32569   3.970   4.553   7.947
10776WAT     H132570   3.895   4.602   7.902
10776WAT     H232571   4.057   4.578   7.904
10777WAT      O32572   9.446   3.612   5.241
10777WAT     H132573   9.353   3.576   5.246
10777WAT     H232574   9.460   3.657   5.153
10778WAT      O32575   7.966   3.298   2.069
10778WAT     H132576   7.907   3.373   2.038
10778WAT     H232577   8.033   3.277   1.998
10779WAT      O32578   8.037   4.593   7.570
10779WAT     H132579   7.942   4.621   7.584
10779WAT     H232580   8.058   4.595   7.472
10780WAT      O32581   8.583   4.565   9.535
10780WAT     H132582   8.521   4.640   9.512
10780WAT     H232583   8.597   4.508   9.454
10781WAT      O32584   0.384   6.544   6.623
10781WAT     H132585   0.456   6.530   6.555
10781WAT     H232586   0.294   6.533   6.580
10782WAT      O32587   0.816   0.393   4.064
10782WAT     H132588   0.727   0.427   4.095
10782WAT     H232589   0.804   0.304   4.021
10783WAT      O32590   2.214   6.189   0.310
10783WAT     H132591   2.238   6.269   0.364
10783WAT     H232592   2.248   6.106   0.356
10784WAT      O32593   6.057   9.724   7.034
10784WAT     H132594   6.029   9.654   7.100
10784WAT     H232595   6.143   9.698   6.992
10785WAT      O32596   5.925   1.095   7.959
10785WAT     H132597   5.952   1.190   7.947
10785WAT     H232598   6.000   1.035   7.930
10786WAT      O32599   1.082   0.469   6.319
10786WAT     H132600   1.059   0.376   6.348
10786WAT     H232601   1.013   0.501   6.254
10787WAT      O32602   1.861   3.374   3.096
10787WAT     H132603   1.791   3.363   3.166
10787WAT     H232604   1.950   3.350   3.134
10788WAT      O32605   5.398   2.035   5.235
10788WAT     H132606   5.316   1.994   5.275
10788WAT     H232607   5.452   2.079   5.307
10789WAT      O32608   5.413   1.565   3.280
10789WAT     H132609   5.389   1.542   3.186
10789WAT     H232610   5.350   1.519   3.343
10790WAT      O32611   8.273   4.134   0.246
10790WAT     H132612   8.181   4.171   0.252
10790WAT     H232613   8.270   4.044   0.203
10791WAT      O32614   2.846   5.587   8.766
10791WAT     H132615   2.861   5.602   8.863
10791WAT     H232616   2.918   5.527   8.730
10792WAT      O32617   6.152   6.314   2.959
10792WAT     H132618   6.237   6.350   2.996
10792WAT     H232619   6.160   6.308   2.859
10793WAT      O32620   2.922   5.585   0.025
10793WAT     H132621   2.840   5.529   0.030
10793WAT     H232622   2.963   5.591   0.116
10794WAT      O32623   3.575   3.993   4.690
10794WAT     H132624   3.549   3.898   4.705
10794WAT     H232625   3.521   4.052   4.751
10795WAT      O32626   1.970   1.227   3.341
10795WAT     H132627   1.948   1.151   3.281
10795WAT     H232628   2.059   1.212   3.383
10796WAT      O32629   0.167   2.129   8.588
10796WAT     H132630   0.080   2.175   8.574
10796WAT     H232631   0.227   2.187   8.643
10797WAT      O32632   3.132   2.003   9.053
10797WAT     H132633   3.148   2.079   8.990
10797WAT     H232634   3.098   2.038   9.140
10798WAT      O32635   7.289   8.323   3.886
10798WAT     H132636   7.311   8.387   3.812
10798WAT     H232637   7.299   8.229   3.852
10799WAT      O32638   9.772   6.207   9.041
10799WAT     H132639   9.851   6.212   8.980
10799WAT     H232640   9.782   6.129   9.103
10800WAT      O32641   5.257   3.505   2.143
10800WAT     H132642   5.220   3.592   2.178
10800WAT     H232643   5.222   3.430   2.199
10801WAT      O32644   2.231   0.848   7.241
10801WAT     H132645   2.291   0.860   7.163
10801WAT     H232646   2.286   0.833   7.324
10802WAT      O32647   7.082   8.729   4.343
10802WAT     H132648   7.159   8.673   4.374
10802WAT     H232649   7.047   8.693   4.256
10803WAT      O32650   8.433   5.458   2.760
10803WAT     H132651   8.455   5.426   2.852
10803WAT     H232652   8.514   5.503   2.721
10804WAT      O32653   3.330   7.650   9.510
10804WAT     H132654   3.281   7.640   9.596
10804WAT     H232655   3.362   7.745   9.501
10805WAT      O32656   5.852   2.651   8.024
10805WAT     H132657   5.805   2.681   8.107
10805WAT     H232658   5.861   2.551   8.026
10806WAT      O32659   3.557   3.812   7.113
10806WAT     H132660   3.502   3.849   7.038
10806WAT     H232661   3.648   3.790   7.079
10807WAT      O32662   6.014   3.050   6.364
10807WAT     H132663   6.000   3.114   6.440
10807WAT     H232664   5.928   3.004   6.342
10808WAT      O32665   3.132   8.621   9.235
10808WAT     H132666   3.035   8.619   9.214
10808WAT     H232667   3.150   8.563   9.314
10809WAT      O32668   1.380   8.152   5.577
10809WAT     H132669   1.446   8.198   5.637
10809WAT     H232670   1.361   8.211   5.498
10810WAT      O32671   6.089   6.930   2.741
10810WAT     H132672   6.126   6.848   2.696
10810WAT     H232673   6.154   6.963   2.810
10811WAT      O32674   0.655   8.453   6.679
10811WAT     H132675   0.726   8.463   6.749
10811WAT     H232676   0.638   8.357   6.661
10812WAT      O32677   6.436   8.457   8.723
10812WAT     H132678   6.342   8.436   8.698
10812WAT     H232679   6.494   8.454   8.642
10813WAT      O32680   2.969   3.598   7.956
10813WAT     H132681   2.970   3.698   7.954
10813WAT     H232682   2.878   3.566   7.982
10814WAT      O32683   3.532   8.059   1.487
10814WAT     H132684   3.539   8.094   1.393
10814WAT     H232685   3.518   8.135   1.550
10815WAT      O32686   0.979   4.034   1.903
10815WAT     H132687   0.947   3.959   1.960
10815WAT     H232688   1.070   4.013   1.867
10816WAT      O32689   0.945   2.812   3.736
10816WAT     H132690   0.922   2.800   3.832
10816WAT     H232691   0.910   2.735   3.683
10817WAT      O32692   0.803   6.606   1.881
10817WAT     H132693   0.723   6.620   1.939
10817WAT     H232694   0.814   6.509   1.861
10818WAT      O32695   4.195   0.919   8.153
10818WAT     H132696   4.225   0.920   8.057
10818WAT     H232697   4.136   0.841   8.168
10819WAT      O32698   8.637   7.177   1.343
10819WAT     H132699   8.723   7.126   1.343
10819WAT     H232700   8.655   7.274   1.325
10820WAT      O32701   9.879   9.513   5.727
10820WAT     H132702   9.881   9.453   5.647
10820WAT     H232703   9.920   9.466   5.805
10821WAT      O32704   9.299   3.926   4.861
10821WAT     H132705   9.317   3.891   4.769
10821WAT     H232706   9.324   4.022   4.865
10822WAT      O32707   6.521   4.492   7.996
10822WAT     H132708   6.519   4.560   7.923
10822WAT     H232709   6.478   4.530   8.078
10823WAT      O32710   8.190   4.498   9.255
10823WAT     H132711   8.092   4.481   9.239
10823WAT     H232712   8.233   4.414   9.288
10824WAT      O32713   9.369   2.967   9.189
10824WAT     H132714   9.419   2.951   9.104
10824WAT     H232715   9.414   3.039   9.241
10825WAT      O32716   5.241   2.832   7.241
10825WAT     H132717   5.169   2.812   7.174
10825WAT     H232718   5.258   2.751   7.296
10826WAT      O32719   5.883   6.028   9.021
10826WAT     H132720   5.910   6.117   9.058
10826WAT     H232721   5.965   5.977   8.993
10827WAT      O32722   2.797   0.853   8.006
10827WAT     H132723   2.865   0.886   7.940
10827WAT     H232724   2.807   0.904   8.092
10828WAT      O32725   2.943   4.557   8.073
10828WAT     H132726   3.017   4.493   8.053
10828WAT     H232727   2.860   4.528   8.025
10829WAT      O32728   5.233   3.563   3.576
10829WAT     H132729   5.243   3.464   3.584
10829WAT     H232730   5.308   3.600   3.521
10830WAT      O32731   0.310   4.555   7.604
10830WAT     H132732   0.241   4.488   7.576
10830WAT     H232733   0.339   4.608   7.524
10831WAT      O32734   3.675   7.334   6.354
10831WAT     H132735   3.687   7.235   6.363
10831WAT     H232736   3.720   7.364   6.270
10832WAT      O32737   5.784   1.678   8.682
10832WAT     H132738   5.705   1.646   8.735
10832WAT     H232739   5.757   1.759   8.629
10833WAT      O32740   5.804   2.779   1.793
10833WAT     H132741   5.880   2.748   1.851
10833WAT     H232742   5.820   2.873   1.764
10834WAT      O32743   6.328   8.040   5.754
10834WAT     H132744   6.382   8.067   5.834
10834WAT     H232745   6.284   7.951   5.771
10835WAT      O32746   2.168   6.406   3.233
10835WAT     H132747   2.119   6.463   3.299
10835WAT     H232748   2.176   6.455   3.146
10836WAT      O32749   2.289   5.262   3.980
10836WAT     H132750   2.274   5.350   3.934
10836WAT     H232751   2.203   5.211   3.982
10837WAT      O32752   8.125   2.949   4.258
10837WAT     H132753   8.099   3.004   4.178
10837WAT     H232754   8.220   2.967   4.281
10838WAT      O32755   7.193   8.300   6.658
10838WAT     H132756   7.250   8.218   6.661
10838WAT     H232757   7.191   8.336   6.565
10839WAT      O32758   0.931   5.558   2.008
10839WAT     H132759   0.894   5.635   2.061
10839WAT     H232760   0.917   5.575   1.910
10840WAT      O32761   5.444   8.606   8.265
10840WAT     H132762   5.509   8.598   8.190
10840WAT     H232763   5.476   8.675   8.330
10841WAT      O32764   7.196   4.411   5.510
10841WAT     H132765   7.157   4.417   5.418
10841WAT     H232766   7.133   4.452   5.576
10842WAT      O32767   0.050   4.444   0.256
10842WAT     H132768   0.096   4.530   0.235
10842WAT     H232769   0.021   4.444   0.352
10843WAT      O32770   9.464   1.375   9.488
10843WAT     H132771   9.526   1.453   9.498
10843WAT     H232772   9.408   1.368   9.571
10844WAT      O32773   6.557   7.918   7.453
10844WAT     H132774   6.486   7.859   7.415
10844WAT     H232775   6.647   7.878   7.434
10845WAT      O32776   5.301   6.067   7.758
10845WAT     H132777   5.376   6.132   7.752
10845WAT     H232778   5.214   6.116   7.752
10846WAT      O32779   6.648   2.692   2.538
10846WAT     H132780   6.658   2.608   2.591
10846WAT     H232781   6.680   2.769   2.592
10847WAT      O32782   9.710   4.936   0.526
10847WAT     H132783   9.696   4.877   0.606
10847WAT     H232784   9.748   5.024   0.556
10848WAT      O32785   2.318   2.117   1.302
10848WAT     H132786   2.254   2.183   1.342
10848WAT     H232787   2.267   2.045   1.256
10849WAT      O32788   5.612   2.902   0.974
10849WAT     H132789   5.557   2.951   1.042
10849WAT     H232790   5.668   2.833   1.020
10850WAT      O32791   3.604   7.444   7.657
10850WAT     H132792   3.645   7.375   7.716
10850WAT     H232793   3.653   7.447   7.570
10851WAT      O32794   3.574   4.382   6.485
10851WAT     H132795   3.619   4.415   6.402
10851WAT     H232796   3.546   4.460   6.541
10852WAT      O32797   3.389   2.843   2.918
10852WAT     H132798   3.405   2.899   3.000
10852WAT     H232799   3.313   2.781   2.935
10853WAT      O32800   0.554   9.415   8.174
10853WAT     H132801   0.572   9.324   8.136
10853WAT     H232802   0.463   9.417   8.215
10854WAT      O32803   6.238   2.312   2.048
10854WAT     H132804   6.271   2.255   2.124
10854WAT     H232805   6.293   2.396   2.043
10855WAT      O32806   3.375   3.244   1.791
10855WAT     H132807   3.345   3.339   1.800
10855WAT     H232808   3.312   3.184   1.840
10856WAT      O32809   0.596   1.008   6.961
10856WAT     H132810   0.682   0.983   7.005
10856WAT     H232811   0.615   1.064   6.880
10857WAT      O32812   1.830   4.921   4.745
10857WAT     H132813   1.859   4.997   4.803
10857WAT     H232814   1.909   4.866   4.720
10858WAT      O32815   4.693   7.242   9.580
10858WAT     H132816   4.615   7.274   9.527
10858WAT     H232817   4.724   7.154   9.544
10859WAT      O32818   3.148   8.587   4.863
10859WAT     H132819   3.179   8.667   4.915
10859WAT     H232820   3.214   8.565   4.791
10860WAT      O32821   9.283   1.692   7.345
10860WAT     H132822   9.248   1.720   7.256
10860WAT     H232823   9.345   1.614   7.334
10861WAT      O32824   7.553   0.017   8.052
10861WAT     H132825   7.581  -0.025   7.965
10861WAT     H232826   7.553   0.116   8.042
10862WAT      O32827   3.820   2.552   1.703
10862WAT     H132828   3.767   2.582   1.783
10862WAT     H232829   3.773   2.476   1.659
10863WAT      O32830   9.328   0.891   0.346
10863WAT     H132831   9.411   0.937   0.315
10863WAT     H232832   9.279   0.854   0.268
10864WAT      O32833   5.774   0.572   3.635
10864WAT     H132834   5.861   0.571   3.685
10864WAT     H232835   5.741   0.666   3.627
10865WAT      O32836   2.890   2.873   7.497
10865WAT     H132837   2.804   2.892   7.545
10865WAT     H232838   2.882   2.899   7.401
10866WAT      O32839   7.538   9.025   3.463
10866WAT     H132840   7.634   9.011   3.441
10866WAT     H232841   7.522   9.123   3.480
10867WAT      O32842   8.146   1.532   9.412
10867WAT     H132843   8.098   1.620   9.413
10867WAT     H232844   8.079   1.458   9.404
10868WAT      O32845   6.753   3.971   2.855
10868WAT     H132846   6.685   3.981   2.783
10868WAT     H232847   6.747   4.048   2.919
10869WAT      O32848   1.153   4.285   1.318
10869WAT     H132849   1.094   4.243   1.249
10869WAT     H232850   1.211   4.214   1.359
10870WAT      O32851   2.316   3.726   8.775
10870WAT     H132852   2.273   3.641   8.744
10870WAT     H232853   2.393   3.704   8.836
10871WAT      O32854   0.251   7.164   4.045
10871WAT     H132855   0.243   7.156   3.945
10871WAT     H232856   0.315   7.237   4.067
10872WAT      O32857   5.090   0.868   1.207
10872WAT     H132858   5.161   0.802   1.184
10872WAT     H232859   5.071   0.865   1.306
10873WAT      O32860   2.535   0.771   6.387
10873WAT     H132861   2.569   0.683   6.422
10873WAT     H232862   2.528   0.766   6.288
10874WAT      O32863   1.957   7.815   6.116
10874WAT     H132864   1.982   7.829   6.021
10874WAT     H232865   1.867   7.854   6.133
10875WAT      O32866   4.352   1.915   6.190
10875WAT     H132867   4.419   1.949   6.124
10875WAT     H232868   4.329   1.988   6.254
10876WAT      O32869   5.668   8.457   7.760
10876WAT     H132870   5.701   8.393   7.829
10876WAT     H232871   5.577   8.428   7.728
10877WAT      O32872   7.711   9.736   6.193
10877WAT     H132873   7.671   9.654   6.234
10877WAT     H232874   7.662   9.817   6.226
10878WAT      O32875   2.413   8.226   8.667
10878WAT     H132876   2.506   8.194   8.647
10878WAT     H232877   2.375   8.271   8.587
10879WAT      O32878   7.441   2.885   2.799
10879WAT     H132879   7.488   2.876   2.887
10879WAT     H232880   7.380   2.964   2.801
10880WAT      O32881   6.270   7.783   2.706
10880WAT     H132882   6.252   7.758   2.801
10880WAT     H232883   6.346   7.848   2.702
10881WAT      O32884   0.335   4.403   3.063
10881WAT     H132885   0.239   4.427   3.073
10881WAT     H232886   0.345   4.334   2.991
10882WAT      O32887   8.038   8.653   7.067
10882WAT     H132888   8.035   8.587   7.142
10882WAT     H232889   7.994   8.614   6.986
10883WAT      O32890   8.685   0.448   0.431
10883WAT     H132891   8.688   0.469   0.529
10883WAT     H232892   8.777   0.458   0.392
10884WAT      O32893   9.514   3.491   0.991
10884WAT     H132894   9.587   3.489   0.923
10884WAT     H232895   9.462   3.576   0.981
10885WAT      O32896   5.864   3.592   2.680
10885WAT     H132897   5.778   3.596   2.629
10885WAT     H232898   5.906   3.683   2.681
10886WAT      O32899   7.287   2.887   6.868
10886WAT     H132900   7.273   2.795   6.831
10886WAT     H232901   7.240   2.953   6.810
10887WAT      O32902   0.853   2.907   6.650
10887WAT     H132903   0.864   2.816   6.610
10887WAT     H232904   0.859   2.976   6.578
10888WAT      O32905   3.010   5.610   0.628
10888WAT     H132906   3.067   5.623   0.547
10888WAT     H232907   3.005   5.695   0.679
10889WAT      O32908   0.959   6.224   0.681
10889WAT     H132909   0.977   6.261   0.590
10889WAT     H232910   1.008   6.278   0.749
10890WAT      O32911   7.765   1.515   1.213
10890WAT     H132912   7.798   1.459   1.137
10890WAT     H232913   7.818   1.600   1.217
10891WAT      O32914   0.243   1.527   7.945
10891WAT     H132915   0.255   1.587   8.024
10891WAT     H232916   0.169   1.463   7.962
10892WAT      O32917   2.935   2.466   9.772
10892WAT     H132918   2.902   2.481   9.865
10892WAT     H232919   2.857   2.466   9.709
10893WAT      O32920   0.055   6.228   2.160
10893WAT     H132921  -0.023   6.267   2.209
10893WAT     H232922   0.031   6.139   2.124
10894WAT      O32923   4.289   0.376   0.631
10894WAT     H132924   4.389   0.378   0.622
10894WAT     H232925   4.257   0.461   0.673
10895WAT      O32926   4.379   8.087   5.745
10895WAT     H132927   4.344   8.178   5.724
10895WAT     H232928   4.303   8.028   5.775
10896WAT      O32929   9.370   9.093   6.113
10896WAT     H132930   9.302   9.141   6.058
10896WAT     H232931   9.408   9.155   6.182
10897WAT      O32932   5.155   5.856   2.725
10897WAT     H132933   5.211   5.790   2.773
10897WAT     H232934   5.093   5.901   2.789
10898WAT      O32935   9.493   1.444   0.757
10898WAT     H132936   9.471   1.348   0.739
10898WAT     H232937   9.426   1.483   0.820
10899WAT      O32938   2.558   4.987   5.839
10899WAT     H132939   2.601   4.971   5.750
10899WAT     H232940   2.559   5.085   5.859
10900WAT      O32941   1.791   9.347   6.070
10900WAT     H132942   1.867   9.296   6.031
10900WAT     H232943   1.740   9.287   6.133
10901WAT      O32944   6.112   1.437   4.221
10901WAT     H132945   6.031   1.423   4.277
10901WAT     H232946   6.191   1.395   4.267
10902WAT      O32947   2.406   8.546   5.581
10902WAT     H132948   2.400   8.462   5.635
10902WAT     H232949   2.496   8.587   5.594
10903WAT      O32950   5.189   0.632   2.578
10903WAT     H132951   5.250   0.710   2.567
10903WAT     H232952   5.136   0.619   2.494
10904WAT      O32953   8.786   1.274   1.535
10904WAT     H132954   8.760   1.186   1.495
10904WAT     H232955   8.758   1.348   1.474
10905WAT      O32956   8.714   1.975   6.706
10905WAT     H132957   8.715   1.901   6.638
10905WAT     H232958   8.656   1.949   6.783
10906WAT      O32959   8.222   5.159   4.723
10906WAT     H132960   8.187   5.252   4.713
10906WAT     H232961   8.192   5.122   4.811
10907WAT      O32962   7.031   8.659   9.213
10907WAT     H132963   7.034   8.705   9.124
10907WAT     H232964   7.011   8.562   9.199
10908WAT      O32965   8.739   4.456   6.089
10908WAT     H132966   8.720   4.531   6.152
10908WAT     H232967   8.835   4.459   6.061
10909WAT      O32968   3.884   0.226   4.387
10909WAT     H132969   3.841   0.210   4.299
10909WAT     H232970   3.828   0.185   4.459
10910WAT      O32971   2.367   6.469   4.451
10910WAT     H132972   2.372   6.522   4.535
10910WAT     H232973   2.317   6.520   4.382
10911WAT      O32974   1.349   9.760   3.963
10911WAT     H132975   1.440   9.736   3.930
10911WAT     H232976   1.357   9.834   4.030
10912WAT      O32977   6.512   2.364   2.289
10912WAT     H132978   6.503   2.424   2.209
10912WAT     H232979   6.447   2.288   2.281
10913WAT      O32980   0.263   9.457   1.816
10913WAT     H132981   0.237   9.464   1.912
10913WAT     H232982   0.197   9.508   1.760
10914WAT      O32983   2.439   1.397   6.411
10914WAT     H132984   2.435   1.497   6.415
10914WAT     H232985   2.525   1.365   6.451
10915WAT      O32986   8.491   1.378   9.380
10915WAT     H132987   8.449   1.404   9.293
10915WAT     H232988   8.421   1.379   9.452
10916WAT      O32989   8.094   7.136   0.136
10916WAT     H132990   8.008   7.088   0.155
10916WAT     H232991   8.126   7.111   0.045
10917WAT      O32992   8.690   0.075   6.174
10917WAT     H132993   8.696   0.168   6.210
10917WAT     H232994   8.778   0.029   6.185
10918WAT      O32995   4.827   4.415   5.963
10918WAT     H132996   4.888   4.384   6.036
10918WAT     H232997   4.835   4.354   5.884
10919WAT      O32998   2.752   4.748   6.517
10919WAT     H132999   2.841   4.727   6.477
10919WAT     H233000   2.692   4.786   6.446
10920WAT      O33001   3.235   2.328   9.222
10920WAT     H133002   3.277   2.237   9.216
10920WAT     H233003   3.235   2.358   9.317
10921WAT      O33004   1.379   0.473   6.554
10921WAT     H133005   1.372   0.555   6.496
10921WAT     H233006   1.400   0.394   6.497
10922WAT      O33007   7.067   4.467   0.083
10922WAT     H133008   7.047   4.515   0.169
10922WAT     H233009   7.053   4.369   0.095
10923WAT      O33010   5.586   8.017   1.541
10923WAT     H133011   5.652   7.954   1.582
10923WAT     H233012   5.533   8.061   1.613
10924WAT      O33013   1.176   0.550   4.345
10924WAT     H133014   1.160   0.474   4.281
10924WAT     H233015   1.231   0.620   4.300
10925WAT      O33016   6.931   9.673   0.762
10925WAT     H133017   6.920   9.708   0.669
10925WAT     H233018   6.923   9.574   0.761
10926WAT      O33019   5.363   1.673   2.040
10926WAT     H133020   5.444   1.655   2.097
10926WAT     H233021   5.294   1.720   2.095
10927WAT      O33022   9.011   3.313   4.970
10927WAT     H133023   8.980   3.398   4.927
10927WAT     H233024   9.094   3.281   4.925
10928WAT      O33025   5.535   4.595   2.879
10928WAT     H133026   5.511   4.597   2.976
10928WAT     H233027   5.455   4.620   2.824
10929WAT      O33028   8.366   0.851   6.766
10929WAT     H133029   8.405   0.814   6.682
10929WAT     H233030   8.351   0.949   6.756
10930WAT      O33031   2.391   7.843   6.132
10930WAT     H133032   2.453   7.870   6.206
10930WAT     H233033   2.406   7.747   6.110
10931WAT      O33034   1.121   9.180   1.189
10931WAT     H133035   1.134   9.137   1.278
10931WAT     H233036   1.200   9.238   1.169
10932WAT      O33037   4.433   5.247   0.224
10932WAT     H133038   4.393   5.319   0.281
10932WAT     H233039   4.456   5.285   0.134
10933WAT      O33040   9.513   8.215   4.066
10933WAT     H133041   9.481   8.300   4.109
10933WAT     H233042   9.564   8.236   3.983
10934WAT      O33043   2.743   5.374   6.933
10934WAT     H133044   2.685   5.374   6.851
10934WAT     H233045   2.790   5.463   6.940
10935WAT      O33046   7.029   4.100   2.626
10935WAT     H133047   7.113   4.154   2.634
10935WAT     H233048   7.047   4.017   2.573
10936WAT      O33049   8.429   3.042   7.427
10936WAT     H133050   8.453   2.990   7.344
10936WAT     H233051   8.494   3.019   7.500
10937WAT      O33052   6.805   5.439   4.131
10937WAT     H133053   6.834   5.492   4.052
10937WAT     H233054   6.845   5.347   4.127
10938WAT      O33055   8.902   9.745   8.255
10938WAT     H133056   8.808   9.729   8.226
10938WAT     H233057   8.941   9.659   8.289
10939WAT      O33058   7.835   2.234   3.629
10939WAT     H133059   7.902   2.309   3.624
10939WAT     H233060   7.754   2.259   3.577
10940WAT      O33061   4.905   0.353   3.956
10940WAT     H133062   4.896   0.320   4.050
10940WAT     H233063   4.904   0.453   3.956
10941WAT      O33064   8.777   6.263   0.680
10941WAT     H133065   8.707   6.195   0.705
10941WAT     H233066   8.775   6.338   0.746
10942WAT      O33067   9.365   8.614   0.466
10942WAT     H133068   9.422   8.532   0.464
10942WAT     H233069   9.300   8.611   0.390
10943WAT      O33070   9.553   1.440   4.746
10943WAT     H133071   9.517   1.484   4.663
10943WAT     H233072   9.497   1.360   4.768
10944WAT      O33073   0.417   0.979   2.695
10944WAT     H133074   0.330   1.017   2.665
10944WAT     H233075   0.410   0.880   2.702
10945WAT      O33076   1.833   5.013   2.748
10945WAT     H133077   1.741   5.021   2.786
10945WAT     H233078   1.841   4.926   2.699
10946WAT      O33079   9.282   9.620   7.290
10946WAT     H133080   9.303   9.638   7.194
10946WAT     H233081   9.263   9.707   7.337
10947WAT      O33082   8.711   0.949   9.221
10947WAT     H133083   8.679   1.043   9.209
10947WAT     H233084   8.759   0.942   9.309
10948WAT      O33085   2.992   5.427   2.646
10948WAT     H133086   2.957   5.350   2.592
10948WAT     H233087   2.982   5.407   2.744
10949WAT      O33088   2.845   4.244   0.503
10949WAT     H133089   2.883   4.235   0.595
10949WAT     H233090   2.853   4.157   0.454
10950WAT      O33091   8.583   4.854   4.663
10950WAT     H133092   8.537   4.928   4.712
10950WAT     H233093   8.676   4.881   4.640
10951WAT      O33094   0.489   6.904   4.285
10951WAT     H133095   0.481   6.932   4.190
10951WAT     H233096   0.515   6.808   4.289
10952WAT      O33097   0.981   8.650   2.242
10952WAT     H133098   0.992   8.587   2.319
10952WAT     H233099   1.071   8.674   2.206
10953WAT      O33100   3.237   4.031   5.359
10953WAT     H133101   3.293   3.959   5.401
10953WAT     H233102   3.198   4.089   5.430
10954WAT      O33103   1.914   5.924   3.987
10954WAT     H133104   1.922   5.826   4.008
10954WAT     H233105   1.892   5.936   3.890
10955WAT      O33106   4.569   0.955   0.591
10955WAT     H133107   4.542   0.991   0.502
10955WAT     H233108   4.603   0.861   0.580
10956WAT      O33109   8.599   3.396   5.104
10956WAT     H133110   8.635   3.378   5.013
10956WAT     H233111   8.605   3.313   5.159
10957WAT      O33112   5.111   6.320   0.590
10957WAT     H133113   5.015   6.315   0.615
10957WAT     H233114   5.165   6.262   0.652
10958WAT      O33115   9.111   7.804   8.900
10958WAT     H133116   9.042   7.766   8.963
10958WAT     H233117   9.201   7.802   8.944
10959WAT      O33118   6.990   6.461   4.716
10959WAT     H133119   7.021   6.370   4.688
10959WAT     H233120   6.910   6.452   4.774
10960WAT      O33121   6.996   1.108   7.491
10960WAT     H133122   6.975   1.029   7.548
10960WAT     H233123   7.081   1.151   7.523
10961WAT      O33124   9.531   6.250   7.504
10961WAT     H133125   9.450   6.307   7.514
10961WAT     H233126   9.612   6.303   7.529
10962WAT      O33127   1.279   7.223   6.705
10962WAT     H133128   1.306   7.291   6.638
10962WAT     H233129   1.354   7.158   6.719
10963WAT      O33130   2.381   0.788   3.802
10963WAT     H133131   2.308   0.721   3.796
10963WAT     H233132   2.465   0.750   3.763
10964WAT      O33133   3.686   7.960   3.256
10964WAT     H133134   3.782   7.962   3.229
10964WAT     H233135   3.677   7.910   3.342
10965WAT      O33136   1.344   6.873   9.036
10965WAT     H133137   1.374   6.843   8.945
10965WAT     H233138   1.420   6.863   9.100
10966WAT      O33139   4.835   8.197   7.308
10966WAT     H133140   4.798   8.284   7.340
10966WAT     H233141   4.819   8.187   7.210
10967WAT      O33142   4.905   0.267   4.194
10967WAT     H133143   4.966   0.190   4.213
10967WAT     H233144   4.931   0.344   4.252
10968WAT      O33145   2.164   0.611   5.872
10968WAT     H133146   2.154   0.562   5.959
10968WAT     H233147   2.082   0.666   5.856
10969WAT      O33148   0.215   0.965   3.763
10969WAT     H133149   0.223   1.038   3.695
10969WAT     H233150   0.297   0.908   3.761
10970WAT      O33151   1.373   0.041   7.672
10970WAT     H133152   1.414  -0.026   7.610
10970WAT     H233153   1.274   0.039   7.662
10971WAT      O33154   7.596   6.579   4.528
10971WAT     H133155   7.607   6.609   4.623
10971WAT     H233156   7.499   6.566   4.508
10972WAT      O33157   5.243   9.586   8.566
10972WAT     H133158   5.313   9.528   8.606
10972WAT     H233159   5.226   9.559   8.471
10973WAT      O33160   5.244   3.230   8.648
10973WAT     H133161   5.192   3.196   8.726
10973WAT     H233162   5.316   3.164   8.625
10974WAT      O33163   2.670   3.685   8.680
10974WAT     H133164   2.593   3.636   8.641
10974WAT     H233165   2.646   3.718   8.771
10975WAT      O33166   3.674   1.160   4.249
10975WAT     H133167   3.769   1.188   4.265
10975WAT     H233168   3.623   1.237   4.212
10976WAT      O33169   9.280   9.229   8.910
10976WAT     H133170   9.313   9.323   8.904
10976WAT     H233171   9.354   9.166   8.886
10977WAT      O33172   6.810   7.841   7.377
10977WAT     H133173   6.867   7.919   7.351
10977WAT     H233174   6.865   7.773   7.424
10978WAT      O33175   2.018   3.082   5.472
10978WAT     H133176   2.036   3.046   5.564
10978WAT     H233177   1.941   3.146   5.476
10979WAT      O33178   0.610   0.754   0.728
10979WAT     H133179   0.557   0.725   0.648
10979WAT     H233180   0.697   0.705   0.730
10980WAT      O33181   3.216   3.197   8.382
10980WAT     H133182   3.234   3.107   8.423
10980WAT     H233183   3.196   3.263   8.455
10981WAT      O33184   6.256   2.001   2.906
10981WAT     H133185   6.176   2.045   2.946
10981WAT     H233186   6.227   1.950   2.824
10982WAT      O33187   3.567   7.807   2.229
10982WAT     H133188   3.578   7.736   2.160
10982WAT     H233189   3.567   7.765   2.320
10983WAT      O33190   1.447   9.061   8.532
10983WAT     H133191   1.352   9.074   8.559
10983WAT     H233192   1.473   9.135   8.469
10984WAT      O33193   4.386   4.064   6.197
10984WAT     H133194   4.311   4.039   6.259
10984WAT     H233195   4.465   4.095   6.250
10985WAT      O33196   5.983   3.355   9.727
10985WAT     H133197   5.939   3.305   9.802
10985WAT     H233198   5.936   3.442   9.713
10986WAT      O33199   2.129   1.423  -0.001
10986WAT     H133200   2.073   1.497  -0.038
10986WAT     H233201   2.202   1.461   0.057
10987WAT      O33202   1.389   4.422   5.263
10987WAT     H133203   1.470   4.480   5.256
10987WAT     H233204   1.400   4.359   5.340
10988WAT      O33205   7.994   2.542   5.720
10988WAT     H133206   7.966   2.635   5.744
10988WAT     H233207   7.920   2.498   5.668
10989WAT      O33208   9.787   1.473   0.782
10989WAT     H133209   9.848   1.441   0.710
10989WAT     H233210   9.695   1.436   0.766
10990WAT      O33211   2.973   2.053   6.626
10990WAT     H133212   2.962   2.132   6.685
10990WAT     H233213   3.064   2.054   6.584
10991WAT      O33214   4.985   1.689   2.946
10991WAT     H133215   5.019   1.676   3.039
10991WAT     H233216   5.019   1.775   2.909
10992WAT      O33217   7.826   8.910   9.243
10992WAT     H133218   7.909   8.964   9.231
10992WAT     H233219   7.794   8.878   9.155
10993WAT      O33220   1.426   4.133   2.229
10993WAT     H133221   1.433   4.060   2.161
10993WAT     H233222   1.439   4.095   2.320
10994WAT      O33223   4.889   9.622   9.390
10994WAT     H133224   4.914   9.628   9.293
10994WAT     H233225   4.792   9.603   9.398
10995WAT      O33226   9.534   0.610   3.118
10995WAT     H133227   9.607   0.559   3.164
10995WAT     H233228   9.487   0.550   3.054
10996WAT      O33229   4.625   1.647   0.324
10996WAT     H133230   4.722   1.626   0.332
10996WAT     H233231   4.612   1.718   0.255
10997WAT      O33232   2.168   7.496   5.898
10997WAT     H133233   2.083   7.500   5.950
10997WAT     H233234   2.187   7.401   5.872
10998WAT      O33235   2.486   0.719   7.732
10998WAT     H133236   2.488   0.753   7.826
10998WAT     H233237   2.421   0.643   7.726
10999WAT      O33238   0.573   8.824   0.180
10999WAT     H133239   0.627   8.907   0.164
10999WAT     H233240   0.542   8.787   0.093
11000WAT      O33241   9.694   1.939   8.531
11000WAT     H133242   9.629   2.002   8.490
11000WAT     H233243   9.677   1.933   8.630
11001WAT      O33244   9.438   4.446   4.895
11001WAT     H133245   9.441   4.509   4.973
11001WAT     H233246   9.343   4.430   4.868
11002WAT      O33247   2.153   2.455   1.905
11002WAT     H133248   2.156   2.430   1.808
11002WAT     H233249   2.155   2.554   1.913
11003WAT      O33250   3.361   2.366   7.164
11003WAT     H133251   3.299   2.444   7.171
11003WAT     H233252   3.310   2.281   7.179
11004WAT      O33253   9.873   8.665   1.857
11004WAT     H133254   9.926   8.727   1.914
11004WAT     H233255   9.847   8.585   1.912
11005WAT      O33256   8.074   1.349   4.832
11005WAT     H133257   8.071   1.351   4.932
11005WAT     H233258   8.134   1.421   4.799
11006WAT      O33259   6.871   9.228   7.056
11006WAT     H133260   6.964   9.263   7.070
11006WAT     H233261   6.860   9.200   6.961
11007WAT      O33262   3.071   9.107   7.199
11007WAT     H133263   3.005   9.044   7.158
11007WAT     H233264   3.081   9.187   7.140
11008WAT      O33265   3.727   7.860   9.099
11008WAT     H133266   3.819   7.859   9.139
11008WAT     H233267   3.733   7.880   9.001
11009WAT      O33268   6.526   7.256   2.399
11009WAT     H133269   6.483   7.171   2.427
11009WAT     H233270   6.465   7.306   2.337
11010WAT      O33271   4.335   3.018   7.613
11010WAT     H133272   4.245   3.063   7.614
11010WAT     H233273   4.376   3.028   7.522
11011WAT      O33274   0.430   8.965   8.484
11011WAT     H133275   0.354   8.901   8.498
11011WAT     H233276   0.516   8.915   8.478
11012WAT      O33277   8.584   7.713   0.680
11012WAT     H133278   8.500   7.767   0.675
11012WAT     H233279   8.601   7.670   0.591
11013WAT      O33280   0.213   7.666   7.020
11013WAT     H133281   0.260   7.578   7.017
11013WAT     H233282   0.277   7.737   7.047
11014WAT      O33283   6.696   8.607   9.326
11014WAT     H133284   6.789   8.586   9.356
11014WAT     H233285   6.684   8.578   9.231
11015WAT      O33286   9.709   2.015   0.027
11015WAT     H133287   9.715   1.917   0.009
11015WAT     H233288   9.618   2.049   0.004
11016WAT      O33289   0.569   2.665   7.186
11016WAT     H133290   0.620   2.711   7.258
11016WAT     H233291   0.569   2.721   7.103
11017WAT      O33292   8.116   3.295   8.099
11017WAT     H133293   8.208   3.255   8.089
11017WAT     H233294   8.117   3.360   8.175
11018WAT      O33295   9.419   1.471   0.074
11018WAT     H133296   9.396   1.546   0.011
11018WAT     H233297   9.345   1.404   0.074
11019WAT      O33298   1.174   2.564   3.769
11019WAT     H133299   1.134   2.535   3.857
11019WAT     H233300   1.101   2.577   3.702
11020WAT      O33301   4.275   4.756   7.592
11020WAT     H133302   4.212   4.818   7.544
11020WAT     H233303   4.282   4.783   7.688
11021WAT      O33304   5.901   3.831   8.218
11021WAT     H133305   5.950   3.786   8.143
11021WAT     H233306   5.813   3.785   8.232
11022WAT      O33307   1.951   3.007   9.270
11022WAT     H133308   1.938   3.103   9.292
11022WAT     H233309   1.863   2.967   9.241
11023WAT      O33310   4.386   9.434   6.212
11023WAT     H133311   4.329   9.359   6.178
11023WAT     H233312   4.436   9.475   6.136
11024WAT      O33313   4.867   0.195   0.062
11024WAT     H133314   4.952   0.157   0.026
11024WAT     H233315   4.789   0.159   0.010
11025WAT      O33316   2.528   1.093   9.625
11025WAT     H133317   2.619   1.052   9.618
11025WAT     H233318   2.531   1.168   9.691
11026WAT      O33319   8.360   0.575   3.412
11026WAT     H133320   8.372   0.564   3.511
11026WAT     H233321   8.279   0.632   3.395
11027WAT      O33322   5.661   2.904   9.051
11027WAT     H133323   5.738   2.938   8.997
11027WAT     H233324   5.638   2.972   9.121
11028WAT      O33325   9.486   5.546   1.978
11028WAT     H133326   9.540   5.462   1.980
11028WAT     H233327   9.432   5.553   2.062
11029WAT      O33328   0.066   5.984   3.422
11029WAT     H133329   0.098   6.079   3.427
11029WAT     H233330   0.021   5.969   3.334
11030WAT      O33331   2.588   9.772   0.519
11030WAT     H133332   2.533   9.796   0.438
11030WAT     H233333   2.587   9.673   0.531
11031WAT      O33334   1.761   0.732   5.493
11031WAT     H133335   1.716   0.744   5.582
11031WAT     H233336   1.757   0.817   5.441
11032WAT      O33337   8.916   0.369   4.516
11032WAT     H133338   8.895   0.342   4.422
11032WAT     H233339   8.878   0.459   4.534
11033WAT      O33340   0.848   9.177   1.119
11033WAT     H133341   0.818   9.242   1.049
11033WAT     H233342   0.938   9.204   1.154
11034WAT      O33343   9.207   7.806   2.198
11034WAT     H133344   9.233   7.840   2.288
11034WAT     H233345   9.217   7.878   2.130
11035WAT      O33346   8.953   1.225   4.386
11035WAT     H133347   9.018   1.183   4.449
11035WAT     H233348   8.894   1.288   4.436
11036WAT      O33349   0.701   0.625   1.731
11036WAT     H133350   0.768   0.654   1.663
11036WAT     H233351   0.652   0.705   1.766
11037WAT      O33352   1.158   8.891   8.946
11037WAT     H133353   1.069   8.935   8.934
11037WAT     H233354   1.230   8.951   8.913
11038WAT      O33355   3.108   3.533   4.270
11038WAT     H133356   3.122   3.596   4.194
11038WAT     H233357   3.014   3.540   4.304
11039WAT      O33358   3.575   0.899   9.381
11039WAT     H133359   3.657   0.911   9.324
11039WAT     H233360   3.502   0.958   9.346
11040WAT      O33361   5.564   6.161   0.588
11040WAT     H133362   5.499   6.110   0.531
11040WAT     H233363   5.652   6.166   0.542
11041WAT      O33364   3.751   4.670   0.761
11041WAT     H133365   3.749   4.572   0.741
11041WAT     H233366   3.744   4.684   0.860
11042WAT      O33367   3.065   1.247   1.446
11042WAT     H133368   3.121   1.165   1.452
11042WAT     H233369   3.040   1.277   1.538
11043WAT      O33370   8.820   7.585   5.013
11043WAT     H133371   8.895   7.649   5.003
11043WAT     H233372   8.798   7.572   5.110
11044WAT      O33373   3.461   1.491   4.423
11044WAT     H133374   3.477   1.417   4.488
11044WAT     H233375   3.487   1.462   4.331
11045WAT      O33376   8.763   4.639   5.279
11045WAT     H133377   8.679   4.587   5.258
11045WAT     H233378   8.747   4.736   5.263
11046WAT      O33379   0.590   4.601   9.353
11046WAT     H133380   0.501   4.583   9.310
11046WAT     H233381   0.617   4.522   9.408
11047WAT      O33382   8.893   1.160   2.886
11047WAT     H133383   8.986   1.144   2.920
11047WAT     H233384   8.841   1.210   2.956
11048WAT      O33385   7.778   9.447   4.845
11048WAT     H133386   7.806   9.355   4.817
11048WAT     H233387   7.838   9.514   4.803
11049WAT      O33388   0.352   0.368   2.135
11049WAT     H133389   0.360   0.385   2.037
11049WAT     H233390   0.318   0.275   2.150
11050WAT      O33391   6.616   6.191   7.241
11050WAT     H133392   6.549   6.252   7.201
11050WAT     H233393   6.580   6.153   7.326
11051WAT      O33394   8.776   0.354   9.454
11051WAT     H133395   8.695   0.328   9.505
11051WAT     H233396   8.783   0.454   9.450
11052WAT      O33397   5.527   1.728   8.083
11052WAT     H133398   5.588   1.755   8.009
11052WAT     H233399   5.485   1.810   8.123
11053WAT      O33400   0.064   7.503   1.481
11053WAT     H133401  -0.024   7.477   1.521
11053WAT     H233402   0.064   7.602   1.464
11054WAT      O33403   9.733   4.393   1.554
11054WAT     H133404   9.787   4.311   1.534
11054WAT     H233405   9.641   4.366   1.584
11055WAT      O33406   2.599   3.324   4.760
11055WAT     H133407   2.676   3.275   4.719
11055WAT     H233408   2.518   3.313   4.702
11056WAT      O33409   3.486   4.940   5.409
11056WAT     H133410   3.448   4.883   5.336
11056WAT     H233411   3.431   4.928   5.492
11057WAT      O33412   7.329   2.589   7.348
11057WAT     H133413   7.358   2.583   7.253
11057WAT     H233414   7.408   2.579   7.408
11058WAT      O33415   7.600   7.650   1.934
11058WAT     H133416   7.640   7.560   1.949
11058WAT     H233417   7.673   7.719   1.932
11059WAT      O33418   7.365   7.332   7.314
11059WAT     H133419   7.374   7.417   7.365
11059WAT     H233420   7.436   7.327   7.244
11060WAT      O33421   3.600   4.462   4.574
11060WAT     H133422   3.544   4.543   4.555
11060WAT     H233423   3.578   4.390   4.508
11061WAT      O33424   8.222   8.371   1.259
11061WAT     H133425   8.180   8.376   1.168
11061WAT     H233426   8.308   8.423   1.259
11062WAT      O33427   1.812   4.105   8.468
11062WAT     H133428   1.850   4.068   8.553
11062WAT     H233429   1.842   4.199   8.456
11063WAT      O33430   0.177   2.339   1.591
11063WAT     H133431   0.269   2.309   1.616
11063WAT     H233432   0.125   2.261   1.556
11064WAT      O33433   6.721   0.632   3.808
11064WAT     H133434   6.771   0.608   3.724
11064WAT     H233435   6.763   0.713   3.849
11065WAT      O33436   5.307   7.858   9.595
11065WAT     H133437   5.253   7.805   9.660
11065WAT     H233438   5.257   7.866   9.509
11066WAT      O33439   2.647   3.271   7.808
11066WAT     H133440   2.549   3.250   7.816
11066WAT     H233441   2.662   3.367   7.831
11067WAT      O33442   5.714   5.770   7.698
11067WAT     H133443   5.705   5.702   7.625
11067WAT     H233444   5.806   5.765   7.737
11068WAT      O33445   3.254   7.457   3.708
11068WAT     H133446   3.255   7.387   3.636
11068WAT     H233447   3.188   7.528   3.684
11069WAT      O33448   1.050   0.801   5.871
11069WAT     H133449   1.035   0.710   5.833
11069WAT     H233450   1.108   0.854   5.808
11070WAT      O33451   0.453   7.664   0.008
11070WAT     H133452   0.416   7.670   0.101
11070WAT     H233453   0.506   7.579  -0.001
11071WAT      O33454   6.515   0.094   6.642
11071WAT     H133455   6.474   0.008   6.674
11071WAT     H233456   6.609   0.077   6.613
11072WAT      O33457   4.515   6.213   6.449
11072WAT     H133458   4.536   6.133   6.393
11072WAT     H233459   4.585   6.224   6.520
11073WAT      O33460   4.236   6.378   8.490
11073WAT     H133461   4.166   6.407   8.425
11073WAT     H233462   4.202   6.300   8.542
11074WAT      O33463   6.966   3.071   7.067
11074WAT     H133464   6.974   2.973   7.083
11074WAT     H233465   6.871   3.093   7.042
11075WAT      O33466   4.051   1.171   8.294
11075WAT     H133467   4.090   1.084   8.267
11075WAT     H233468   4.010   1.163   8.385
11076WAT      O33469   7.681   7.749   9.322
11076WAT     H133470   7.714   7.770   9.230
11076WAT     H233471   7.655   7.833   9.368
11077WAT      O33472   9.258   1.353   5.039
11077WAT     H133473   9.336   1.306   4.997
11077WAT     H233474   9.264   1.343   5.138
11078WAT      O33475   3.414   4.490   2.969
11078WAT     H133476   3.513   4.474   2.964
11078WAT     H233477   3.396   4.588   2.966
11079WAT      O33478   1.143   8.174   8.536
11079WAT     H133479   1.164   8.271   8.539
11079WAT     H233480   1.212   8.123   8.588
11080WAT      O33481   8.623   4.778  -0.001
11080WAT     H133482   8.531   4.768   0.036
11080WAT     H233483   8.680   4.701   0.028
11081WAT      O33484   1.547   4.360   0.503
11081WAT     H133485   1.547   4.295   0.427
11081WAT     H233486   1.639   4.397   0.515
11082WAT      O33487   6.730   2.230   5.799
11082WAT     H133488   6.748   2.298   5.728
11082WAT     H233489   6.731   2.274   5.888
11083WAT      O33490   8.347   4.505   6.530
11083WAT     H133491   8.272   4.442   6.508
11083WAT     H233492   8.433   4.467   6.496
11084WAT      O33493   4.403   0.813   7.397
11084WAT     H133494   4.356   0.876   7.336
11084WAT     H233495   4.494   0.793   7.360
11085WAT      O33496   6.248   8.349   0.113
11085WAT     H133497   6.304   8.373   0.034
11085WAT     H233498   6.306   8.345   0.195
11086WAT      O33499   3.128   5.827   4.696
11086WAT     H133500   3.096   5.921   4.711
11086WAT     H233501   3.215   5.829   4.648
11087WAT      O33502   1.413   6.380   5.196
11087WAT     H133503   1.391   6.392   5.099
11087WAT     H233504   1.506   6.411   5.213
11088WAT      O33505   8.661   6.843   2.689
11088WAT     H133506   8.712   6.757   2.679
11088WAT     H233507   8.681   6.902   2.611
11089WAT      O33508   6.637   0.876   1.706
11089WAT     H133509   6.647   0.958   1.762
11089WAT     H233510   6.663   0.795   1.759
11090WAT      O33511   7.627   8.084   0.357
11090WAT     H133512   7.712   8.059   0.405
11090WAT     H233513   7.612   8.182   0.364
11091WAT      O33514   1.705   7.713   1.989
11091WAT     H133515   1.700   7.749   1.896
11091WAT     H233516   1.771   7.767   2.042
11092WAT      O33517   1.305   2.020   5.735
11092WAT     H133518   1.400   1.993   5.722
11092WAT     H233519   1.248   1.980   5.663
11093WAT      O33520   0.584   0.929   4.614
11093WAT     H133521   0.583   0.905   4.711
11093WAT     H233522   0.647   0.870   4.565
11094WAT      O33523   2.811   1.064   8.872
11094WAT     H133524   2.898   1.015   8.878
11094WAT     H233525   2.748   1.013   8.813
11095WAT      O33526   1.768   8.371   9.378
11095WAT     H133527   1.780   8.280   9.417
11095WAT     H233528   1.792   8.369   9.281
11096WAT      O33529   4.059   1.920   8.439
11096WAT     H133530   4.115   1.941   8.359
11096WAT     H233531   4.117   1.914   8.520
11097WAT      O33532   5.621   3.429   0.117
11097WAT     H133533   5.598   3.336   0.086
11097WAT     H233534   5.633   3.428   0.217
11098WAT      O33535   7.140   0.930   7.867
11098WAT     H133536   7.185   0.842   7.850
11098WAT     H233537   7.067   0.918   7.935
11099WAT      O33538   1.953   7.004   7.705
11099WAT     H133539   1.941   7.011   7.606
11099WAT     H233540   2.024   7.069   7.734
11100WAT      O33541   6.963   0.882   8.060
11100WAT     H133542   6.870   0.912   8.039
11100WAT     H233543   6.995   0.930   8.142
11101WAT      O33544   9.012   1.647   5.344
11101WAT     H133545   8.971   1.738   5.333
11101WAT     H233546   8.983   1.588   5.269
11102WAT      O33547   6.494   9.231   3.145
11102WAT     H133548   6.552   9.154   3.172
11102WAT     H233549   6.533   9.316   3.181
11103WAT      O33550   2.187   5.399   1.150
11103WAT     H133551   2.185   5.319   1.090
11103WAT     H233552   2.094   5.420   1.180
11104WAT      O33553   7.362   3.147   2.878
11104WAT     H133554   7.314   3.203   2.810
11104WAT     H233555   7.326   3.168   2.969
11105WAT      O33556   4.196   8.200   8.624
11105WAT     H133557   4.208   8.293   8.660
11105WAT     H233558   4.258   8.186   8.547
11106WAT      O33559   3.410   1.456   6.225
11106WAT     H133560   3.325   1.479   6.272
11106WAT     H233561   3.454   1.379   6.272
11107WAT      O33562   4.572   0.594   4.370
11107WAT     H133563   4.636   0.528   4.411
11107WAT     H233564   4.516   0.635   4.442
11108WAT      O33565   4.956   2.390   2.610
11108WAT     H133566   5.016   2.419   2.685
11108WAT     H233567   4.886   2.327   2.646
11109WAT      O33568   2.875   7.733   1.150
11109WAT     H133569   2.823   7.815   1.125
11109WAT     H233570   2.964   7.736   1.105
11110WAT      O33571   9.643   0.077   4.056
11110WAT     H133572   9.577   0.123   4.116
11110WAT     H233573   9.684   0.000   4.105
11111WAT      O33574   6.732   0.660   7.414
11111WAT     H133575   6.755   0.570   7.379
11111WAT     H233576   6.802   0.689   7.480
11112WAT      O33577   6.602   4.088   9.694
11112WAT     H133578   6.650   4.000   9.699
11112WAT     H233579   6.591   4.125   9.786
11113WAT      O33580   5.790   3.211   8.334
11113WAT     H133581   5.873   3.249   8.294
11113WAT     H233582   5.803   3.197   8.432
11114WAT      O33583   9.603   2.996   2.749
11114WAT     H133584   9.623   3.087   2.712
11114WAT     H233585   9.641   2.926   2.688
11115WAT      O33586   9.682   2.556   9.075
11115WAT     H133587   9.760   2.494   9.076
11115WAT     H233588   9.617   2.529   9.146
11116WAT      O33589   6.091   4.437   6.116
11116WAT     H133590   6.035   4.473   6.190
11116WAT     H233591   6.044   4.452   6.029
11117WAT      O33592   6.152   4.449   0.822
11117WAT     H133593   6.125   4.363   0.864
11117WAT     H233594   6.159   4.438   0.723
11118WAT      O33595   0.955   4.162   7.700
11118WAT     H133596   0.959   4.142   7.797
11118WAT     H233597   0.870   4.125   7.662
11119WAT      O33598   0.487   6.788   9.198
11119WAT     H133599   0.538   6.749   9.122
11119WAT     H233600   0.550   6.837   9.259
11120WAT      O33601   5.998   7.188   2.962
11120WAT     H133602   6.009   7.158   3.057
11120WAT     H233603   6.075   7.154   2.908
11121WAT      O33604   4.338   7.101   5.862
11121WAT     H133605   4.275   7.172   5.829
11121WAT     H233606   4.295   7.052   5.938
11122WAT      O33607   9.351   1.270   1.453
11122WAT     H133608   9.422   1.200   1.451
11122WAT     H233609   9.357   1.321   1.539
11123WAT      O33610   0.268   0.602   4.256
11123WAT     H133611   0.209   0.527   4.225
11123WAT     H233612   0.237   0.634   4.345
11124WAT      O33613   9.868   7.996   9.209
11124WAT     H133614   9.936   8.055   9.165
11124WAT     H233615   9.913   7.934   9.273
11125WAT      O33616   7.187   8.688   6.149
11125WAT     H133617   7.285   8.674   6.161
11125WAT     H233618   7.146   8.606   6.111
11126WAT      O33619   0.398   5.933   8.040
11126WAT     H133620   0.338   5.970   8.111
11126WAT     H233621   0.469   5.999   8.018
11127WAT      O33622   4.161   3.286   8.998
11127WAT     H133623   4.252   3.326   9.008
11127WAT     H233624   4.145   3.263   8.902
11128WAT      O33625   0.697   7.125   5.342
11128WAT     H133626   0.692   7.025   5.342
11128WAT     H233627   0.621   7.162   5.289
11129WAT      O33628   9.844   4.792   0.338
11129WAT     H133629   9.798   4.785   0.249
11129WAT     H233630   9.804   4.868   0.390
11130WAT      O33631   7.320   3.950   8.652
11130WAT     H133632   7.412   3.986   8.672
11130WAT     H233633   7.282   3.909   8.735
11131WAT      O33634   8.966   7.448   7.077
11131WAT     H133635   8.948   7.499   6.993
11131WAT     H233636   9.060   7.466   7.106
11132WAT      O33637   1.545   1.108   3.846
11132WAT     H133638   1.447   1.129   3.838
11132WAT     H233639   1.562   1.062   3.933
11133WAT      O33640   5.357   4.333   5.511
11133WAT     H133641   5.431   4.274   5.481
11133WAT     H233642   5.269   4.294   5.483
11134WAT      O33643   9.398   8.213   6.734
11134WAT     H133644   9.339   8.256   6.665
11134WAT     H233645   9.382   8.114   6.733
11135WAT      O33646   2.618   0.268   2.409
11135WAT     H133647   2.572   0.266   2.321
11135WAT     H233648   2.568   0.327   2.472
11136WAT      O33649   8.864   4.889   6.281
11136WAT     H133650   8.886   4.984   6.301
11136WAT     H233651   8.799   4.855   6.348
11137WAT      O33652   8.979   3.548   9.537
11137WAT     H133653   9.029   3.597   9.609
11137WAT     H233654   9.038   3.536   9.458
11138WAT      O33655   3.390   5.892   1.774
11138WAT     H133656   3.477   5.941   1.786
11138WAT     H233657   3.330   5.946   1.715
11139WAT      O33658   5.683   4.124   7.605
11139WAT     H133659   5.698   4.223   7.608
11139WAT     H233660   5.588   4.105   7.630
11140WAT      O33661   7.286   3.754   9.739
11140WAT     H133662   7.369   3.810   9.739
11140WAT     H233663   7.266   3.724   9.646
11141WAT      O33664   1.067   5.310   8.743
11141WAT     H133665   1.079   5.387   8.681
11141WAT     H233666   1.056   5.226   8.690
11142WAT      O33667   4.198   1.877   6.561
11142WAT     H133668   4.138   1.820   6.506
11142WAT     H233669   4.293   1.847   6.551
11143WAT      O33670   1.983   1.081   1.616
11143WAT     H133671   1.949   0.995   1.653
11143WAT     H233672   1.946   1.157   1.669
11144WAT      O33673   2.264   7.451   3.387
11144WAT     H133674   2.244   7.362   3.346
11144WAT     H233675   2.285   7.439   3.484
11145WAT      O33676   2.212   2.886   6.839
11145WAT     H133677   2.227   2.793   6.872
11145WAT     H233678   2.115   2.903   6.827
11146WAT      O33679   7.405   9.077   0.071
11146WAT     H133680   7.449   9.057  -0.017
11146WAT     H233681   7.367   8.994   0.109
11147WAT      O33682   7.685   6.008   7.121
11147WAT     H133683   7.758   6.055   7.072
11147WAT     H233684   7.599   6.056   7.106
11148WAT      O33685   5.829   7.077   2.504
11148WAT     H133686   5.922   7.098   2.534
11148WAT     H233687   5.826   6.982   2.472
11149WAT      O33688   6.067   6.985   7.956
11149WAT     H133689   5.975   6.970   7.919
11149WAT     H233690   6.110   7.062   7.910
11150WAT      O33691   1.089   6.825   9.521
11150WAT     H133692   1.182   6.803   9.491
11150WAT     H233693   1.053   6.748   9.573
11151WAT      O33694   3.891   5.695   3.490
11151WAT     H133695   3.827   5.752   3.541
11151WAT     H233696   3.880   5.599   3.518
11152WAT      O33697   7.863   4.848   2.129
11152WAT     H133698   7.876   4.801   2.041
11152WAT     H233699   7.951   4.883   2.161
11153WAT      O33700   3.580   6.521   4.310
11153WAT     H133701   3.490   6.493   4.279
11153WAT     H233702   3.586   6.621   4.311
11154WAT      O33703   2.441   5.304   4.223
11154WAT     H133704   2.388   5.277   4.142
11154WAT     H233705   2.527   5.346   4.194
11155WAT      O33706   7.681   5.877   8.371
11155WAT     H133707   7.684   5.896   8.469
11155WAT     H233708   7.642   5.787   8.355
11156WAT      O33709   7.919   1.026   3.097
11156WAT     H133710   7.830   1.016   3.140
11156WAT     H233711   7.979   1.082   3.154
11157WAT      O33712   8.973   8.780   3.323
11157WAT     H133713   8.935   8.788   3.230
11157WAT     H233714   9.071   8.763   3.318
11158WAT      O33715   8.969   6.583   6.094
11158WAT     H133716   8.942   6.487   6.098
11158WAT     H233717   9.025   6.606   6.173
11159WAT      O33718   2.484   7.226   6.117
11159WAT     H133719   2.503   7.299   6.051
11159WAT     H233720   2.401   7.248   6.169
11160WAT      O33721   8.865   5.802   7.483
11160WAT     H133722   8.904   5.716   7.451
11160WAT     H233723   8.910   5.830   7.568
11161WAT      O33724   9.444   0.448   5.232
11161WAT     H133725   9.479   0.360   5.200
11161WAT     H233726   9.516   0.517   5.228
11162WAT      O33727   0.239   5.076   4.232
11162WAT     H133728   0.148   5.040   4.254
11162WAT     H233729   0.288   5.095   4.318
11163WAT      O33730   6.715   0.553   0.309
11163WAT     H133731   6.664   0.599   0.237
11163WAT     H233732   6.757   0.621   0.369
11164WAT      O33733   4.900   7.367   7.194
11164WAT     H133734   4.845   7.329   7.270
11164WAT     H233735   4.878   7.317   7.110
11165WAT      O33736   6.333   8.530   6.385
11165WAT     H133737   6.411   8.525   6.447
11165WAT     H233738   6.272   8.604   6.413
11166WAT      O33739   4.089   2.182   3.879
11166WAT     H133740   4.169   2.237   3.855
11166WAT     H233741   4.082   2.105   3.816
11167WAT      O33742   4.086   7.009   1.082
11167WAT     H133743   4.157   7.080   1.085
11167WAT     H233744   4.005   7.045   1.037
11168WAT      O33745   9.427   5.824   2.123
11168WAT     H133746   9.501   5.824   2.055
11168WAT     H233747   9.354   5.885   2.093
11169WAT      O33748   8.838   0.280   4.744
11169WAT     H133749   8.858   0.301   4.649
11169WAT     H233750   8.898   0.206   4.775
11170WAT      O33751   8.192   3.507   9.292
11170WAT     H133752   8.266   3.445   9.319
11170WAT     H233753   8.176   3.499   9.194
11171WAT      O33754   2.588   7.323   2.081
11171WAT     H133755   2.549   7.411   2.107
11171WAT     H233756   2.687   7.324   2.095
11172WAT      O33757   1.485   7.344   0.011
11172WAT     H133758   1.470   7.443   0.007
11172WAT     H233759   1.475   7.305  -0.081
11173WAT      O33760   7.772   1.463   5.986
11173WAT     H133761   7.684   1.507   6.004
11173WAT     H233762   7.846   1.525   6.011
11174WAT      O33763   8.822   4.592   7.842
11174WAT     H133764   8.723   4.595   7.854
11174WAT     H233765   8.843   4.580   7.745
11175WAT      O33766   2.534   0.392   4.473
11175WAT     H133767   2.615   0.360   4.425
11175WAT     H233768   2.505   0.480   4.436
11176WAT      O33769   6.595   9.298   2.035
11176WAT     H133770   6.504   9.281   1.997
11176WAT     H233771   6.663   9.292   1.961
11177WAT      O33772   2.226   1.428   1.413
11177WAT     H133773   2.211   1.469   1.323
11177WAT     H233774   2.173   1.478   1.482
11178WAT      O33775   7.106   5.999   0.560
11178WAT     H133776   7.092   6.083   0.508
11178WAT     H233777   7.125   5.924   0.497
11179WAT      O33778   3.867   9.833   0.590
11179WAT     H133779   3.780   9.850   0.543
11179WAT     H233780   3.849   9.783   0.675
11180WAT      O33781   4.371   9.021   1.688
11180WAT     H133782   4.361   8.922   1.683
11180WAT     H233783   4.465   9.046   1.662
11181WAT      O33784   9.530   3.987   5.597
11181WAT     H133785   9.513   3.916   5.666
11181WAT     H233786   9.550   3.944   5.509
11182WAT      O33787   3.600   7.078   5.091
11182WAT     H133788   3.685   7.093   5.141
11182WAT     H233789   3.620   7.033   5.004
11183WAT      O33790   5.611   3.652   1.517
11183WAT     H133791   5.664   3.571   1.541
11183WAT     H233792   5.522   3.624   1.480
11184WAT      O33793   9.538   4.091   1.416
11184WAT     H133794   9.502   4.178   1.383
11184WAT     H233795   9.638   4.095   1.419
11185WAT      O33796   4.761   1.210   9.851
11185WAT     H133797   4.751   1.215   9.752
11185WAT     H233798   4.857   1.196   9.874
11186WAT      O33799   0.133   4.023   0.031
11186WAT     H133800   0.099   4.082   0.104
11186WAT     H233801   0.189   4.077  -0.032
11187WAT      O33802   7.096   0.695   7.446
11187WAT     H133803   7.048   0.675   7.360
11187WAT     H233804   7.030   0.729   7.513
11188WAT      O33805   3.390   6.926   2.952
11188WAT     H133806   3.352   6.966   2.868
11188WAT     H233807   3.366   6.829   2.955
11189WAT      O33808   1.032   2.255   0.867
11189WAT     H133809   1.103   2.324   0.877
11189WAT     H233810   1.008   2.217   0.956
11190WAT      O33811   8.949   9.823   6.544
11190WAT     H133812   8.895   9.834   6.627
11190WAT     H233813   8.916   9.743   6.493
11191WAT      O33814   5.306   5.880   2.208
11191WAT     H133815   5.332   5.817   2.134
11191WAT     H233816   5.355   5.855   2.291
11192WAT      O33817   2.046   2.707   4.449
11192WAT     H133818   2.090   2.725   4.536
11192WAT     H233819   1.957   2.753   4.447
11193WAT      O33820   0.280   2.619   3.694
11193WAT     H133821   0.185   2.590   3.681
11193WAT     H233822   0.286   2.678   3.775
11194WAT      O33823   1.222   7.257   2.825
11194WAT     H133824   1.254   7.307   2.906
11194WAT     H233825   1.245   7.160   2.836
11195WAT      O33826   1.657   7.989   2.913
11195WAT     H133827   1.681   8.062   2.849
11195WAT     H233828   1.613   8.028   2.993
11196WAT      O33829   0.251   8.676   5.292
11196WAT     H133830   0.212   8.602   5.237
11196WAT     H233831   0.205   8.762   5.271
11197WAT      O33832   5.472   0.742   5.765
11197WAT     H133833   5.504   0.818   5.822
11197WAT     H233834   5.549   0.682   5.743
11198WAT      O33835   0.716   9.614   1.635
11198WAT     H133836   0.620   9.587   1.643
11198WAT     H233837   0.774   9.532   1.634
11199WAT      O33838   3.025   3.012   0.452
11199WAT     H133839   3.057   3.012   0.357
11199WAT     H233840   3.104   3.013   0.514
11200WAT      O33841   4.099   0.712   5.734
11200WAT     H133842   4.066   0.629   5.779
11200WAT     H233843   4.050   0.791   5.770
11201WAT      O33844   7.262   4.381   3.586
11201WAT     H133845   7.181   4.417   3.540
11201WAT     H233846   7.238   4.351   3.678
11202WAT      O33847   9.116   2.963   4.973
11202WAT     H133848   9.148   3.054   4.949
11202WAT     H233849   9.193   2.908   5.008
11203WAT      O33850   5.706   5.543   7.544
11203WAT     H133851   5.798   5.535   7.505
11203WAT     H233852   5.648   5.470   7.508
11204WAT      O33853   7.951   6.394   6.963
11204WAT     H133854   7.918   6.479   6.921
11204WAT     H233855   7.969   6.409   7.060
11205WAT      O33856   2.003   9.056   2.163
11205WAT     H133857   2.089   9.046   2.214
11205WAT     H233858   2.023   9.073   2.067
11206WAT      O33859   0.947   2.057   1.111
11206WAT     H133860   0.994   2.127   1.166
11206WAT     H233861   1.014   1.989   1.081
11207WAT      O33862   5.875   6.753   8.876
11207WAT     H133863   5.926   6.667   8.882
11207WAT     H233864   5.784   6.735   8.839
11208WAT      O33865   0.325   1.788   0.833
11208WAT     H133866   0.384   1.855   0.879
11208WAT     H233867   0.283   1.728   0.901
11209WAT      O33868   1.498   7.732   1.420
11209WAT     H133869   1.451   7.785   1.490
11209WAT     H233870   1.437   7.718   1.342
11210WAT      O33871   5.864   2.814   5.820
11210WAT     H133872   5.903   2.903   5.845
11210WAT     H233873   5.767   2.812   5.844
11211WAT      O33874   2.390   5.930   1.773
11211WAT     H133875   2.397   5.922   1.673
11211WAT     H233876   2.333   6.010   1.796
11212WAT      O33877   8.836   7.757   0.010
11212WAT     H133878   8.741   7.727  -0.001
11212WAT     H233879   8.838   7.848   0.051
11213WAT      O33880   6.744   4.062   0.468
11213WAT     H133881   6.667   4.039   0.408
11213WAT     H233882   6.732   4.017   0.556
11214WAT      O33883   2.462   7.731   5.815
11214WAT     H133884   2.486   7.662   5.747
11214WAT     H233885   2.424   7.687   5.896
11215WAT      O33886   5.951   4.850   0.575
11215WAT     H133887   6.024   4.866   0.641
11215WAT     H233888   5.989   4.804   0.494
11216WAT      O33889   0.749   7.210   9.573
11216WAT     H133890   0.812   7.208   9.496
11216WAT     H233891   0.658   7.236   9.542
11217WAT      O33892   2.374   6.147   6.863
11217WAT     H133893   2.447   6.215   6.864
11217WAT     H233894   2.386   6.084   6.940
11218WAT      O33895   6.150   8.883   7.881
11218WAT     H133896   6.226   8.841   7.832
11218WAT     H233897   6.097   8.939   7.817
11219WAT      O33898   4.592   6.343   2.003
11219WAT     H133899   4.514   6.293   2.041
11219WAT     H233900   4.613   6.309   1.912
11220WAT      O33901   9.816   8.057   8.344
11220WAT     H133902   9.722   8.082   8.367
11220WAT     H233903   9.821   8.034   8.247
11221WAT      O33904   9.283   9.420   4.470
11221WAT     H133905   9.195   9.463   4.450
11221WAT     H233906   9.286   9.329   4.428
11222WAT      O33907   9.187   5.892   2.532
11222WAT     H133908   9.186   5.990   2.510
11222WAT     H233909   9.160   5.879   2.627
11223WAT      O33910   1.609   4.210   2.974
11223WAT     H133911   1.685   4.157   3.011
11223WAT     H233912   1.532   4.205   3.037
11224WAT      O33913   4.954   2.261   6.520
11224WAT     H133914   5.033   2.288   6.465
11224WAT     H233915   4.948   2.319   6.601
11225WAT      O33916   2.124   4.298   2.236
11225WAT     H133917   2.053   4.358   2.274
11225WAT     H233918   2.082   4.233   2.172
11226WAT      O33919   7.497   0.083   2.216
11226WAT     H133920   7.532   0.161   2.165
11226WAT     H233921   7.411   0.107   2.259
11227WAT      O33922   3.841   7.035   0.966
11227WAT     H133923   3.777   7.104   0.932
11227WAT     H233924   3.805   6.996   1.051
11228WAT      O33925   3.455   1.108   3.062
11228WAT     H133926   3.376   1.047   3.058
11228WAT     H233927   3.435   1.192   3.012
11229WAT      O33928   9.008   4.852   0.817
11229WAT     H133929   8.932   4.901   0.861
11229WAT     H233930   9.090   4.908   0.820
11230WAT      O33931   2.436   5.468   5.556
11230WAT     H133932   2.413   5.375   5.584
11230WAT     H233933   2.391   5.488   5.469
11231WAT      O33934   7.828   7.045   3.096
11231WAT     H133935   7.737   7.048   3.055
11231WAT     H233936   7.849   6.952   3.124
11232WAT      O33937   1.683   8.384   4.508
11232WAT     H133938   1.657   8.378   4.412
11232WAT     H233939   1.736   8.303   4.533
11233WAT      O33940   3.123   2.309   7.971
11233WAT     H133941   3.103   2.337   7.877
11233WAT     H233942   3.043   2.264   8.010
11234WAT      O33943   2.331   7.877   9.111
11234WAT     H133944   2.367   7.905   9.022
11234WAT     H233945   2.299   7.958   9.161
11235WAT      O33946   7.743   8.971   6.190
11235WAT     H133947   7.787   8.897   6.139
11235WAT     H233948   7.770   8.967   6.286
11236WAT      O33949   0.310   6.518   5.089
11236WAT     H133950   0.379   6.461   5.135
11236WAT     H233951   0.322   6.613   5.116
11237WAT      O33952   0.099   7.149   0.949
11237WAT     H133953   0.045   7.065   0.957
11237WAT     H233954   0.169   7.149   1.019
11238WAT      O33955   0.450   4.464   8.502
11238WAT     H133956   0.376   4.528   8.519
11238WAT     H233957   0.473   4.416   8.587
11239WAT      O33958   0.530   7.953   2.623
11239WAT     H133959   0.456   7.886   2.634
11239WAT     H233960   0.490   8.042   2.597
11240WAT      O33961   8.379   2.996   4.883
11240WAT     H133962   8.302   2.995   4.820
11240WAT     H233963   8.363   2.932   4.958
11241WAT      O33964   1.632   1.424   3.929
11241WAT     H133965   1.654   1.370   3.848
11241WAT     H233966   1.712   1.429   3.989
11242WAT      O33967   7.609   2.187   2.120
11242WAT     H133968   7.584   2.281   2.140
11242WAT     H233969   7.706   2.173   2.138
11243WAT      O33970   3.083   7.829   0.180
11243WAT     H133971   3.030   7.894   0.234
11243WAT     H233972   3.179   7.831   0.209
11244WAT      O33973   3.899   0.670   9.339
11244WAT     H133974   3.911   0.744   9.406
11244WAT     H233975   3.903   0.582   9.386
11245WAT      O33976   5.185   3.566   6.663
11245WAT     H133977   5.091   3.536   6.680
11245WAT     H233978   5.185   3.642   6.599
11246WAT      O33979   9.385   6.386   5.481
11246WAT     H133980   9.291   6.419   5.482
11246WAT     H233981   9.448   6.463   5.474
11247WAT      O33982   9.024   2.155   3.163
11247WAT     H133983   8.949   2.192   3.109
11247WAT     H233984   8.991   2.130   3.254
11248WAT      O33985   4.405   3.269   5.025
11248WAT     H133986   4.356   3.198   5.077
11248WAT     H233987   4.370   3.359   5.052
11249WAT      O33988   1.410   3.913   3.259
11249WAT     H133989   1.397   3.890   3.163
11249WAT     H233990   1.428   4.011   3.267
11250WAT      O33991   8.102   2.229   8.216
11250WAT     H133992   8.137   2.302   8.274
11250WAT     H233993   8.102   2.143   8.267
11251WAT      O33994   8.702   9.676   1.432
11251WAT     H133995   8.749   9.601   1.477
11251WAT     H233996   8.727   9.679   1.335
11252WAT      O33997   0.130   4.996   0.609
11252WAT     H133998   0.062   5.066   0.629
11252WAT     H233999   0.093   4.906   0.633
11253WAT      O34000   4.592   5.496   0.563
11253WAT     H134001   4.691   5.484   0.575
11253WAT     H234002   4.551   5.524   0.650
11254WAT      O34003   7.299   1.589   6.343
11254WAT     H134004   7.297   1.499   6.300
11254WAT     H234005   7.215   1.604   6.394
11255WAT      O34006   9.687   8.181   0.656
11255WAT     H134007   9.590   8.197   0.669
11255WAT     H234008   9.715   8.101   0.709
11256WAT      O34009   4.301   7.177   5.022
11256WAT     H134010   4.247   7.195   5.105
11256WAT     H234011   4.283   7.248   4.954
11257WAT      O34012   9.639   6.962   2.300
11257WAT     H134013   9.671   7.056   2.311
11257WAT     H234014   9.584   6.955   2.217
11258WAT      O34015   2.644   6.374   5.690
11258WAT     H134016   2.658   6.374   5.591
11258WAT     H234017   2.566   6.432   5.713
11259WAT      O34018   6.311   1.188   4.914
11259WAT     H134019   6.290   1.262   4.851
11259WAT     H234020   6.289   1.217   5.007
11260WAT      O34021   6.512   2.000   0.619
11260WAT     H134022   6.439   2.070   0.619
11260WAT     H234023   6.572   2.015   0.540
11261WAT      O34024   1.511   8.936   8.054
11261WAT     H134025   1.474   9.028   8.069
11261WAT     H234026   1.506   8.914   7.957
11262WAT      O34027   6.987   1.139   3.699
11262WAT     H134028   7.009   1.229   3.661
11262WAT     H234029   6.888   1.128   3.703
11263WAT      O34030   4.609   4.664   3.811
11263WAT     H134031   4.572   4.695   3.723
11263WAT     H234032   4.543   4.604   3.856
11264WAT      O34033   1.158   6.964   6.587
11264WAT     H134034   1.149   7.010   6.675
11264WAT     H234035   1.208   7.023   6.524
11265WAT      O34036   9.810   7.434   6.696
11265WAT     H134037   9.860   7.366   6.749
11265WAT     H234038   9.765   7.499   6.758
11266WAT      O34039   2.277   0.327   1.083
11266WAT     H134040   2.268   0.252   1.017
11266WAT     H234041   2.199   0.388   1.076
11267WAT      O34042   8.741   8.141   6.126
11267WAT     H134043   8.804   8.170   6.198
11267WAT     H234044   8.792   8.093   6.055
11268WAT      O34045   4.588   2.981   4.606
11268WAT     H134046   4.601   2.895   4.656
11268WAT     H234047   4.566   3.054   4.671
11269WAT      O34048   0.967   8.900   6.935
11269WAT     H134049   1.003   8.897   6.841
11269WAT     H234050   0.867   8.903   6.932
11270WAT      O34051   2.899   4.967   7.974
11270WAT     H134052   2.823   4.947   7.913
11270WAT     H234053   2.969   4.896   7.965
11271WAT      O34054   7.809   8.815   4.558
11271WAT     H134055   7.871   8.833   4.481
11271WAT     H234056   7.858   8.831   4.644
11272WAT      O34057   1.950   3.294   9.359
11272WAT     H134058   1.861   3.336   9.378
11272WAT     H234059   2.007   3.298   9.441
11273WAT      O34060   7.813   4.413   7.070
11273WAT     H134061   7.808   4.512   7.083
11273WAT     H234062   7.908   4.383   7.077
11274WAT      O34063   1.281   9.074   5.699
11274WAT     H134064   1.261   9.050   5.794
11274WAT     H234065   1.348   9.012   5.661
11275WAT      O34066   1.287   9.190   4.896
11275WAT     H134067   1.241   9.118   4.949
11275WAT     H234068   1.320   9.261   4.958
11276WAT      O34069   0.394   4.039   4.693
11276WAT     H134070   0.350   4.072   4.610
11276WAT     H234071   0.324   4.012   4.759
11277WAT      O34072   5.111   6.158   5.835
11277WAT     H134073   5.126   6.247   5.878
11277WAT     H234074   5.015   6.152   5.806
11278WAT      O34075   9.251   3.082   1.841
11278WAT     H134076   9.263   3.170   1.886
11278WAT     H234077   9.245   3.095   1.742
11279WAT      O34078   1.756   9.127   5.484
11279WAT     H134079   1.832   9.122   5.549
11279WAT     H234080   1.722   9.221   5.479
11280WAT      O34081   1.073   8.380   1.717
11280WAT     H134082   1.039   8.296   1.758
11280WAT     H234083   1.169   8.369   1.691
11281WAT      O34084   5.278   0.620   0.866
11281WAT     H134085   5.320   0.558   0.800
11281WAT     H234086   5.200   0.575   0.908
11282WAT      O34087   0.627   5.849   1.986
11282WAT     H134088   0.677   5.891   1.911
11282WAT     H234089   0.595   5.921   2.049
11283WAT      O34090   8.124   6.016   2.036
11283WAT     H134091   8.121   6.092   1.970
11283WAT     H234092   8.071   6.040   2.117
11284WAT      O34093   9.327   0.185   3.525
11284WAT     H134094   9.360   0.187   3.430
11284WAT     H234095   9.241   0.236   3.531
11285WAT      O34096   5.084   0.963   8.175
11285WAT     H134097   4.986   0.979   8.165
11285WAT     H234098   5.132   1.051   8.174
11286WAT      O34099   1.386   3.279   2.015
11286WAT     H134100   1.368   3.190   1.974
11286WAT     H234101   1.352   3.352   1.955
11287WAT      O34102   4.460   8.231   3.932
11287WAT     H134103   4.442   8.140   3.969
11287WAT     H234104   4.378   8.287   3.938
11288WAT      O34105   2.827   4.742   9.045
11288WAT     H134106   2.855   4.670   9.108
11288WAT     H234107   2.892   4.818   9.051
11289WAT      O34108   4.915   0.198   0.873
11289WAT     H134109   4.843   0.170   0.937
11289WAT     H234110   4.999   0.146   0.893
11290WAT      O34111   5.761   1.231   4.461
11290WAT     H134112   5.737   1.175   4.382
11290WAT     H234113   5.677   1.265   4.504
11291WAT      O34114   0.081   1.052   8.673
11291WAT     H134115   0.070   1.137   8.725
11291WAT     H234116   0.154   1.065   8.606
11292WAT      O34117   4.120   5.290   9.746
11292WAT     H134118   4.094   5.265   9.840
11292WAT     H234119   4.046   5.265   9.684
11293WAT      O34120   0.124   9.352   5.922
11293WAT     H134121   0.069   9.292   5.980
11293WAT     H234122   0.204   9.302   5.890
11294WAT      O34123   9.543   8.013   0.402
11294WAT     H134124   9.619   7.955   0.429
11294WAT     H234125   9.570   8.109   0.409
11295WAT      O34126   2.507   8.391   4.934
11295WAT     H134127   2.501   8.304   4.885
11295WAT     H234128   2.433   8.452   4.905
11296WAT      O34129   9.136   8.386   0.354
11296WAT     H134130   9.099   8.411   0.443
11296WAT     H234131   9.143   8.468   0.297
11297WAT      O34132   4.492   8.351   2.069
11297WAT     H134133   4.558   8.327   1.999
11297WAT     H234134   4.512   8.300   2.153
11298WAT      O34135   1.925   9.661   6.614
11298WAT     H134136   1.988   9.584   6.603
11298WAT     H234137   1.899   9.697   6.525
11299WAT      O34138   6.091   4.476   1.210
11299WAT     H134139   6.181   4.503   1.176
11299WAT     H234140   6.025   4.550   1.193
11300WAT      O34141   6.772   8.506   2.382
11300WAT     H134142   6.746   8.602   2.386
11300WAT     H234143   6.694   8.449   2.408
11301WAT      O34144   5.337   1.592   9.072
11301WAT     H134145   5.383   1.503   9.073
11301WAT     H234146   5.279   1.598   8.990
11302WAT      O34147   2.606   3.418   9.520
11302WAT     H134148   2.622   3.344   9.584
11302WAT     H234149   2.598   3.381   9.427
11303WAT      O34150   7.051   2.438   8.439
11303WAT     H134151   7.069   2.366   8.505
11303WAT     H234152   7.138   2.477   8.408
11304WAT      O34153   2.783   4.867   1.649
11304WAT     H134154   2.882   4.867   1.660
11304WAT     H234155   2.742   4.938   1.706
11305WAT      O34156   2.297   9.261   8.389
11305WAT     H134157   2.333   9.274   8.297
11305WAT     H234158   2.362   9.298   8.456
11306WAT      O34159   7.153   5.022   1.873
11306WAT     H134160   7.146   5.013   1.774
11306WAT     H234161   7.127   5.114   1.901
11307WAT      O34162   2.134   2.203   9.247
11307WAT     H134163   2.089   2.132   9.300
11307WAT     H234164   2.182   2.161   9.170
11308WAT      O34165   6.669   5.010   3.966
11308WAT     H134166   6.671   5.035   4.063
11308WAT     H234167   6.643   5.090   3.912
11309WAT      O34168   0.067   8.141   5.042
11309WAT     H134169   0.001   8.149   4.967
11309WAT     H234170   0.040   8.203   5.116
11310WAT      O34171   4.241   9.724   5.079
11310WAT     H134172   4.213   9.791   5.147
11310WAT     H234173   4.192   9.638   5.094
11311WAT      O34174   8.648   7.211   6.097
11311WAT     H134175   8.690   7.209   6.006
11311WAT     H234176   8.568   7.272   6.096
11312WAT      O34177   1.373   6.504   6.907
11312WAT     H134178   1.437   6.457   6.967
11312WAT     H234179   1.336   6.440   6.840
11313WAT      O34180   9.110   6.186   7.327
11313WAT     H134181   9.034   6.185   7.392
11313WAT     H234182   9.094   6.257   7.259
11314WAT      O34183   7.799   8.195   9.565
11314WAT     H134184   7.846   8.133   9.629
11314WAT     H234185   7.855   8.208   9.484
11315WAT      O34186   7.766   2.849   5.150
11315WAT     H134187   7.847   2.840   5.092
11315WAT     H234188   7.773   2.933   5.204
11316WAT      O34189   5.812   4.832   6.719
11316WAT     H134190   5.764   4.810   6.804
11316WAT     H234191   5.906   4.859   6.740
11317WAT      O34192   6.572   3.738   3.465
11317WAT     H134193   6.497   3.720   3.529
11317WAT     H234194   6.552   3.820   3.412
11318WAT      O34195   9.032   0.857   0.683
11318WAT     H134196   9.130   0.877   0.677
11318WAT     H234197   8.995   0.896   0.767
11319WAT      O34198   1.669   1.592   3.319
11319WAT     H134199   1.695   1.504   3.358
11319WAT     H234200   1.697   1.596   3.223
11320WAT      O34201   9.374   4.473   2.696
11320WAT     H134202   9.284   4.451   2.734
11320WAT     H234203   9.383   4.431   2.605
11321WAT      O34204   5.411   9.709   4.655
11321WAT     H134205   5.498   9.673   4.622
11321WAT     H234206   5.422   9.807   4.676
11322WAT      O34207   8.817   2.425   2.806
11322WAT     H134208   8.885   2.385   2.744
11322WAT     H234209   8.847   2.516   2.834
11323WAT      O34210   9.034   2.661   5.228
11323WAT     H134211   8.953   2.602   5.234
11323WAT     H234212   9.077   2.650   5.138
11324WAT      O34213   4.401   0.127   2.425
11324WAT     H134214   4.449   0.185   2.491
11324WAT     H234215   4.383   0.038   2.466
11325WAT      O34216   4.237   7.638   0.018
11325WAT     H134217   4.194   7.561  -0.030
11325WAT     H234218   4.333   7.645  -0.011
11326WAT      O34219   9.265   7.026   0.579
11326WAT     H134220   9.208   7.106   0.593
11326WAT     H234221   9.246   6.958   0.650
11327WAT      O34222   4.481   5.604   8.975
11327WAT     H134223   4.491   5.517   9.024
11327WAT     H234224   4.404   5.655   9.013
11328WAT      O34225   4.761   3.919   3.839
11328WAT     H134226   4.664   3.926   3.813
11328WAT     H234227   4.816   3.897   3.759
11329WAT      O34228   0.897   9.084   2.922
11329WAT     H134229   0.840   9.084   2.841
11329WAT     H234230   0.972   9.150   2.910
11330WAT      O34231   6.636   0.982   1.437
11330WAT     H134232   6.620   0.943   1.527
11330WAT     H234233   6.558   0.963   1.378
11331WAT      O34234   4.589   2.604   7.365
11331WAT     H134235   4.496   2.573   7.383
11331WAT     H234236   4.628   2.645   7.447
11332WAT      O34237   3.711   6.811   6.641
11332WAT     H134238   3.667   6.886   6.591
11332WAT     H234239   3.771   6.849   6.712
11333WAT      O34240   8.629   0.825   6.862
11333WAT     H134241   8.531   0.844   6.855
11333WAT     H234242   8.667   0.816   6.770
11334WAT      O34243   4.615   0.799   1.157
11334WAT     H134244   4.536   0.856   1.183
11334WAT     H234245   4.595   0.751   1.072
11335WAT      O34246   2.456   7.124   5.260
11335WAT     H134247   2.382   7.192   5.264
11335WAT     H234248   2.492   7.109   5.352
11336WAT      O34249   4.623   0.701   6.306
11336WAT     H134250   4.615   0.754   6.222
11336WAT     H234251   4.707   0.728   6.354
11337WAT      O34252   3.001   8.720   2.638
11337WAT     H134253   3.004   8.621   2.631
11337WAT     H234254   3.063   8.761   2.571
11338WAT      O34255   6.266   1.641   2.255
11338WAT     H134256   6.237   1.732   2.285
11338WAT     H234257   6.203   1.609   2.183
11339WAT      O34258   4.641   7.250   9.311
11339WAT     H134259   4.557   7.196   9.305
11339WAT     H234260   4.638   7.323   9.242
11340WAT      O34261   9.335   2.140   4.416
11340WAT     H134262   9.274   2.218   4.401
11340WAT     H234263   9.363   2.138   4.512
11341WAT      O34264   8.029   9.742   1.364
11341WAT     H134265   8.061   9.672   1.428
11341WAT     H234266   8.101   9.761   1.297
11342WAT      O34267   6.406   4.339   3.737
11342WAT     H134268   6.388   4.244   3.710
11342WAT     H234269   6.345   4.363   3.813
11343WAT      O34270   0.448   7.990   0.100
11343WAT     H134271   0.483   7.992   0.194
11343WAT     H234272   0.519   7.957   0.039
11344WAT      O34273   8.247   2.724   1.621
11344WAT     H134274   8.321   2.733   1.554
11344WAT     H234275   8.160   2.720   1.573
11345WAT      O34276   1.550   7.150   5.209
11345WAT     H134277   1.527   7.084   5.136
11345WAT     H234278   1.532   7.243   5.177
11346WAT      O34279   0.178   1.943   7.449
11346WAT     H134280   0.174   1.871   7.380
11346WAT     H234281   0.091   1.993   7.449
11347WAT      O34282   7.164   9.489   9.159
11347WAT     H134283   7.099   9.564   9.167
11347WAT     H234284   7.115   9.403   9.148
11348WAT      O34285   6.977   3.184   8.090
11348WAT     H134286   6.982   3.210   8.186
11348WAT     H234287   6.885   3.151   8.069
11349WAT      O34288   2.950   8.941   6.451
11349WAT     H134289   2.966   8.967   6.356
11349WAT     H234290   2.988   8.850   6.468
11350WAT      O34291   1.762   6.495   2.868
11350WAT     H134292   1.747   6.400   2.895
11350WAT     H234293   1.788   6.548   2.948
11351WAT      O34294   2.304   9.087   6.278
11351WAT     H134295   2.294   9.171   6.331
11351WAT     H234296   2.214   9.056   6.247
11352WAT      O34297   9.462   3.480   0.570
11352WAT     H134298   9.492   3.482   0.475
11352WAT     H234299   9.417   3.393   0.589
11353WAT      O34300   7.527   4.115   8.807
11353WAT     H134301   7.488   4.194   8.761
11353WAT     H234302   7.609   4.084   8.758
11354WAT      O34303   7.860   7.875   6.871
11354WAT     H134304   7.855   7.886   6.971
11354WAT     H234305   7.918   7.947   6.833
11355WAT      O34306   7.110   4.120   9.316
11355WAT     H134307   7.025   4.087   9.357
11355WAT     H234308   7.170   4.155   9.388
11356WAT      O34309   9.142   7.339   8.298
11356WAT     H134310   9.241   7.343   8.281
11356WAT     H234311   9.115   7.417   8.355
11357WAT      O34312   6.622   3.745   1.404
11357WAT     H134313   6.550   3.719   1.468
11357WAT     H234314   6.625   3.681   1.328
11358WAT      O34315   1.896   6.029   4.298
11358WAT     H134316   1.948   6.071   4.373
11358WAT     H234317   1.936   6.056   4.211
11359WAT      O34318   5.145   4.905   0.801
11359WAT     H134319   5.128   4.812   0.832
11359WAT     H234320   5.159   4.904   0.701
11360WAT      O34321   4.065   8.551   8.952
11360WAT     H134322   4.044   8.649   8.957
11360WAT     H234323   4.072   8.513   9.044
11361WAT      O34324   8.866   6.028   0.856
11361WAT     H134325   8.778   6.073   0.840
11361WAT     H234326   8.940   6.092   0.836
11362WAT      O34327   1.409   7.446   1.659
11362WAT     H134328   1.451   7.357   1.679
11362WAT     H234329   1.435   7.512   1.730
11363WAT      O34330   0.270   2.122   5.198
11363WAT     H134331   0.184   2.090   5.239
11363WAT     H234332   0.251   2.163   5.109
11364WAT      O34333   4.401   4.153   4.140
11364WAT     H134334   4.418   4.055   4.149
11364WAT     H234335   4.475   4.204   4.186
11365WAT      O34336   5.582   8.398   5.623
11365WAT     H134337   5.612   8.492   5.641
11365WAT     H234338   5.610   8.339   5.699
11366WAT      O34339   6.765   2.901   8.367
11366WAT     H134340   6.800   2.846   8.290
11366WAT     H234341   6.831   2.973   8.389
11367WAT      O34342   4.575   3.780   4.314
11367WAT     H134343   4.558   3.872   4.351
11367WAT     H234344   4.665   3.749   4.344
11368WAT      O34345   7.668   9.772   8.959
11368WAT     H134346   7.638   9.677   8.966
11368WAT     H234347   7.645   9.808   8.868
11369WAT      O34348   7.082   6.226   4.607
11369WAT     H134349   7.166   6.268   4.573
11369WAT     H234350   7.103   6.171   4.688
11370WAT      O34351   8.966   6.381   3.720
11370WAT     H134352   8.959   6.447   3.795
11370WAT     H234353   8.987   6.429   3.635
11371WAT      O34354   4.730   9.238   0.960
11371WAT     H134355   4.793   9.302   1.003
11371WAT     H234356   4.694   9.175   1.028
11372WAT      O34357   3.666   7.015   7.075
11372WAT     H134358   3.631   6.925   7.103
11372WAT     H234359   3.627   7.040   6.987
11373WAT      O34360   0.629   9.172   8.736
11373WAT     H134361   0.643   9.263   8.775
11373WAT     H234362   0.535   9.162   8.706
11374WAT      O34363   9.365   7.997   4.023
11374WAT     H134364   9.389   7.928   4.092
11374WAT     H234365   9.411   8.083   4.045
11375WAT      O34366   1.903   9.777   0.674
11375WAT     H134367   1.948   9.850   0.724
11375WAT     H234368   1.939   9.772   0.581
11376WAT      O34369   2.959   8.005   3.157
11376WAT     H134370   3.024   8.065   3.205
11376WAT     H234371   2.866   8.023   3.189
11377WAT      O34372   0.482   0.166   9.852
11377WAT     H134373   0.422   0.169   9.771
11377WAT     H234374   0.549   0.093   9.841
11378WAT      O34375   2.764   8.742   1.114
11378WAT     H134376   2.748   8.707   1.021
11378WAT     H234377   2.711   8.688   1.179
11379WAT      O34378   0.716   8.505   0.132
11379WAT     H134379   0.782   8.491   0.206
11379WAT     H234380   0.762   8.545   0.053
11380WAT      O34381   6.138   7.055   5.142
11380WAT     H134382   6.071   7.042   5.215
11380WAT     H234383   6.122   6.988   5.070
11381WAT      O34384   8.891   1.886   5.221
11381WAT     H134385   8.794   1.903   5.206
11381WAT     H234386   8.932   1.852   5.136
11382WAT      O34387   3.220   1.016   6.602
11382WAT     H134388   3.291   1.002   6.671
11382WAT     H234389   3.131   0.999   6.643
11383WAT      O34390   7.269   5.646   1.180
11383WAT     H134391   7.239   5.551   1.170
11383WAT     H234392   7.369   5.650   1.171
11384WAT      O34393   9.840   0.166   6.116
11384WAT     H134394   9.915   0.133   6.059
11384WAT     H234395   9.834   0.111   6.199
11385WAT      O34396   8.740   6.230   7.911
11385WAT     H134397   8.651   6.204   7.947
11385WAT     H234398   8.728   6.291   7.832
11386WAT      O34399   8.214   4.338   7.337
11386WAT     H134400   8.308   4.349   7.304
11386WAT     H234401   8.185   4.243   7.324
11387WAT      O34402   7.596   3.413   4.912
11387WAT     H134403   7.606   3.474   4.991
11387WAT     H234404   7.519   3.351   4.926
11388WAT      O34405   9.841   5.884   0.083
11388WAT     H134406   9.920   5.868   0.142
11388WAT     H234407   9.872   5.904  -0.009
11389WAT      O34408   8.380   9.223   4.042
11389WAT     H134409   8.472   9.263   4.039
11389WAT     H234410   8.387   9.124   4.044
11390WAT      O34411   2.621   0.764   2.116
11390WAT     H134412   2.721   0.760   2.111
11390WAT     H234413   2.585   0.809   2.035
11391WAT      O34414   0.870   0.274   1.277
11391WAT     H134415   0.791   0.234   1.229
11391WAT     H234416   0.840   0.315   1.363
11392WAT      O34417   8.683   0.007   5.887
11392WAT     H134418   8.635  -0.079   5.870
11392WAT     H234419   8.686   0.026   5.985
11393WAT      O34420   7.480   5.820   9.855
11393WAT     H134421   7.422   5.796   9.933
11393WAT     H234422   7.557   5.876   9.886
11394WAT      O34423   6.183   2.309   9.785
11394WAT     H134424   6.100   2.288   9.734
11394WAT     H234425   6.215   2.400   9.761
11395WAT      O34426   6.763   4.909   1.939
11395WAT     H134427   6.847   4.883   1.986
11395WAT     H234428   6.781   4.986   1.878
11396WAT      O34429   0.148   5.894   6.346
11396WAT     H134430   0.106   5.846   6.423
11396WAT     H234431   0.210   5.964   6.381
11397WAT      O34432   3.584   7.852   1.664
11397WAT     H134433   3.583   7.919   1.590
11397WAT     H234434   3.662   7.791   1.651
11398WAT      O34435   5.752   8.114   4.876
11398WAT     H134436   5.801   8.200   4.871
11398WAT     H234437   5.771   8.059   4.794
11399WAT      O34438   6.821   9.752   8.731
11399WAT     H134439   6.821   9.769   8.632
11399WAT     H234440   6.751   9.809   8.774
11400WAT      O34441   8.967   8.865   1.245
11400WAT     H134442   9.012   8.906   1.324
11400WAT     H234443   8.939   8.771   1.267
11401WAT      O34444   8.064   4.324   7.050
11401WAT     H134445   8.091   4.420   7.045
11401WAT     H234446   8.141   4.265   7.026
11402WAT      O34447   5.109   9.435   4.560
11402WAT     H134448   5.027   9.430   4.504
11402WAT     H234449   5.168   9.356   4.541
11403WAT      O34450   4.144   7.811   6.053
11403WAT     H134451   4.068   7.749   6.073
11403WAT     H234452   4.225   7.781   6.103
11404WAT      O34453   7.568   6.270   4.176
11404WAT     H134454   7.639   6.272   4.105
11404WAT     H234455   7.533   6.363   4.189
11405WAT      O34456   4.761   4.508   3.296
11405WAT     H134457   4.819   4.544   3.369
11405WAT     H234458   4.789   4.415   3.274
11406WAT      O34459   0.769   5.952   4.806
11406WAT     H134460   0.850   5.932   4.861
11406WAT     H234461   0.696   5.888   4.828
11407WAT      O34462   5.269   8.037   7.728
11407WAT     H134463   5.180   8.080   7.747
11407WAT     H234464   5.315   8.015   7.814
11408WAT      O34465   6.217   6.011   1.842
11408WAT     H134466   6.121   6.017   1.814
11408WAT     H234467   6.276   6.014   1.761
11409WAT      O34468   0.039   1.339   6.190
11409WAT     H134469  -0.041   1.302   6.238
11409WAT     H234470   0.013   1.425   6.145
11410WAT      O34471   4.228   2.010   8.241
11410WAT     H134472   4.199   2.103   8.264
11410WAT     H234473   4.300   2.014   8.173
11411WAT      O34474   5.600   9.259   2.817
11411WAT     H134475   5.603   9.263   2.917
11411WAT     H234476   5.692   9.248   2.781
11412WAT      O34477   3.616   7.419   1.508
11412WAT     H134478   3.519   7.433   1.530
11412WAT     H234479   3.672   7.460   1.579
11413WAT      O34480   9.301   8.750   5.946
11413WAT     H134481   9.304   8.755   6.046
11413WAT     H234482   9.319   8.841   5.907
11414WAT      O34483   3.228   8.543   0.722
11414WAT     H134484   3.262   8.456   0.685
11414WAT     H234485   3.280   8.619   0.683
11415WAT      O34486   7.523   3.782   2.983
11415WAT     H134487   7.603   3.723   2.992
11415WAT     H234488   7.549   3.876   3.006
11416WAT      O34489   3.940   2.108   7.021
11416WAT     H134490   3.969   2.111   6.926
11416WAT     H234491   3.935   2.202   7.057
11417WAT      O34492   9.245   9.065   4.592
11417WAT     H134493   9.236   9.112   4.504
11417WAT     H234494   9.265   8.968   4.576
11418WAT      O34495   1.913   2.935   3.422
11418WAT     H134496   1.917   2.928   3.322
11418WAT     H234497   2.005   2.951   3.458
11419WAT      O34498   4.420   4.066   1.981
11419WAT     H134499   4.396   4.145   2.037
11419WAT     H234500   4.360   3.990   2.003
11420WAT      O34501   1.606   5.792   5.573
11420WAT     H134502   1.623   5.705   5.526
11420WAT     H234503   1.692   5.841   5.584
11421WAT      O34504   8.475   5.836   8.912
11421WAT     H134505   8.497   5.932   8.930
11421WAT     H234506   8.554   5.791   8.872
11422WAT      O34507   7.923   0.902   6.156
11422WAT     H134508   7.871   0.866   6.233
11422WAT     H234509   7.889   0.993   6.132
11423WAT      O34510   2.969   3.458   3.323
11423WAT     H134511   2.999   3.442   3.229
11423WAT     H234512   2.994   3.380   3.380
11424WAT      O34513   6.459   9.571   7.805
11424WAT     H134514   6.443   9.659   7.760
11424WAT     H234515   6.556   9.563   7.828
11425WAT      O34516   4.458   0.859   3.495
11425WAT     H134517   4.537   0.896   3.543
11425WAT     H234518   4.462   0.759   3.496
11426WAT      O34519   8.983   3.072   5.919
11426WAT     H134520   8.982   2.986   5.970
11426WAT     H234521   8.991   3.149   5.983
11427WAT      O34522   7.355   3.821   4.652
11427WAT     H134523   7.280   3.789   4.594
11427WAT     H234524   7.442   3.790   4.614
11428WAT      O34525   6.038   2.694   1.909
11428WAT     H134526   6.053   2.732   2.000
11428WAT     H234527   6.110   2.628   1.888
11429WAT      O34528   0.316   2.704   7.830
11429WAT     H134529   0.303   2.626   7.891
11429WAT     H234530   0.302   2.789   7.882
11430WAT      O34531   6.948   5.848   5.472
11430WAT     H134532   7.007   5.925   5.446
11430WAT     H234533   6.994   5.793   5.542
11431WAT      O34534   4.786   0.580   5.696
11431WAT     H134535   4.720   0.505   5.694
11431WAT     H234536   4.859   0.562   5.630
11432WAT      O34537   5.774   0.561   7.214
11432WAT     H134538   5.682   0.596   7.233
11432WAT     H234539   5.798   0.492   7.282
11433WAT      O34540   3.414   5.208   3.233
11433WAT     H134541   3.328   5.259   3.241
11433WAT     H234542   3.463   5.212   3.320
11434WAT      O34543   8.801   4.455   6.570
11434WAT     H134544   8.896   4.483   6.583
11434WAT     H234545   8.746   4.487   6.647
11435WAT      O34546   5.208   4.430   0.834
11435WAT     H134547   5.223   4.362   0.906
11435WAT     H234548   5.169   4.513   0.874
11436WAT      O34549   7.835   4.901   9.697
11436WAT     H134550   7.916   4.864   9.651
11436WAT     H234551   7.855   4.993   9.731
11437WAT      O34552   8.062   3.102   9.347
11437WAT     H134553   8.064   3.199   9.371
11437WAT     H234554   8.150   3.060   9.371
11438WAT      O34555   2.118   6.622   0.387
11438WAT     H134556   2.138   6.623   0.485
11438WAT     H234557   2.184   6.562   0.341
11439WAT      O34558   6.389   0.546   9.521
11439WAT     H134559   6.444   0.603   9.582
11439WAT     H234560   6.356   0.467   9.571
11440WAT      O34561   5.099   0.799   3.991
11440WAT     H134562   5.102   0.886   4.041
11440WAT     H234563   5.192   0.769   3.970
11441WAT      O34564   6.698   7.167   8.594
11441WAT     H134565   6.788   7.204   8.570
11441WAT     H234566   6.697   7.143   8.691
11442WAT      O34567   4.961   5.893   9.215
11442WAT     H134568   4.987   5.804   9.177
11442WAT     H234569   5.014   5.911   9.298
11443WAT      O34570   2.511   5.721   6.898
11443WAT     H134571   2.434   5.778   6.871
11443WAT     H234572   2.585   5.730   6.831
11444WAT      O34573   7.930   0.420   3.774
11444WAT     H134574   7.981   0.454   3.853
11444WAT     H234575   7.986   0.429   3.691
11445WAT      O34576   8.847   1.583   6.914
11445WAT     H134577   8.759   1.629   6.917
11445WAT     H234578   8.833   1.485   6.898
11446WAT      O34579   1.792   5.496   6.483
11446WAT     H134580   1.724   5.468   6.415
11446WAT     H234581   1.873   5.439   6.474
11447WAT      O34582   3.701   5.256   2.425
11447WAT     H134583   3.729   5.269   2.520
11447WAT     H234584   3.721   5.340   2.373
11448WAT      O34585   2.612   3.514   4.374
11448WAT     H134586   2.595   3.416   4.382
11448WAT     H234587   2.527   3.565   4.389
11449WAT      O34588   6.181   3.193   6.192
11449WAT     H134589   6.135   3.137   6.261
11449WAT     H234590   6.133   3.281   6.183
11450WAT      O34591   4.098   8.250   7.346
11450WAT     H134592   4.095   8.186   7.269
11450WAT     H234593   4.177   8.311   7.335
11451WAT      O34594   2.319   2.553   8.487
11451WAT     H134595   2.362   2.632   8.531
11451WAT     H234596   2.241   2.523   8.541
11452WAT      O34597   2.607   6.288   6.865
11452WAT     H134598   2.635   6.383   6.853
11452WAT     H234599   2.605   6.242   6.776
11453WAT      O34600   8.132   9.612   6.012
11453WAT     H134601   8.103   9.571   5.926
11453WAT     H234602   8.232   9.619   6.014
11454WAT      O34603   1.165   8.646   1.864
11454WAT     H134604   1.092   8.714   1.853
11454WAT     H234605   1.145   8.566   1.807
11455WAT      O34606   1.147   4.520   1.842
11455WAT     H134607   1.203   4.551   1.918
11455WAT     H234608   1.177   4.565   1.758
11456WAT      O34609   5.677   2.439   7.412
11456WAT     H134610   5.692   2.391   7.499
11456WAT     H234611   5.690   2.538   7.426
11457WAT      O34612   2.050   9.396   5.551
11457WAT     H134613   2.075   9.487   5.584
11457WAT     H234614   2.067   9.390   5.453
11458WAT      O34615   8.583   7.341   9.718
11458WAT     H134616   8.676   7.315   9.744
11458WAT     H234617   8.527   7.259   9.709
11459WAT      O34618   8.543   3.116   5.286
11459WAT     H134619   8.507   3.198   5.330
11459WAT     H234620   8.602   3.067   5.351
11460WAT      O34621   9.692   1.064   5.477
11460WAT     H134622   9.654   1.157   5.475
11460WAT     H234623   9.782   1.065   5.435
11461WAT      O34624   4.436   0.745   0.376
11461WAT     H134625   4.422   0.828   0.323
11461WAT     H234626   4.373   0.674   0.344
11462WAT      O34627   4.795   1.852   6.216
11462WAT     H134628   4.785   1.900   6.304
11462WAT     H234629   4.763   1.911   6.142
11463WAT      O34630   7.286   2.451   8.298
11463WAT     H134631   7.338   2.535   8.312
11463WAT     H234632   7.336   2.373   8.335
11464WAT      O34633   6.248   0.458   1.838
11464WAT     H134634   6.338   0.417   1.822
11464WAT     H234635   6.226   0.453   1.936
11465WAT      O34636   8.872   7.997   3.785
11465WAT     H134637   8.953   7.942   3.768
11465WAT     H234638   8.834   7.975   3.875
11466WAT      O34639   7.278   2.992   3.382
11466WAT     H134640   7.305   3.081   3.347
11466WAT     H234641   7.211   3.004   3.456
11467WAT      O34642   0.887   4.609   6.235
11467WAT     H134643   0.868   4.661   6.152
11467WAT     H234644   0.841   4.520   6.230
11468WAT      O34645   9.117   2.516   6.156
11468WAT     H134646   9.207   2.471   6.164
11468WAT     H234647   9.088   2.513   6.060
11469WAT      O34648   0.343   2.067   0.361
11469WAT     H134649   0.331   2.013   0.444
11469WAT     H234650   0.416   2.134   0.375
11470WAT      O34651   9.210   6.824   1.161
11470WAT     H134652   9.205   6.916   1.124
11470WAT     H234653   9.303   6.789   1.152
11471WAT      O34654   6.332   2.780   5.929
11471WAT     H134655   6.357   2.805   5.836
11471WAT     H234656   6.286   2.691   5.929
11472WAT      O34657   8.659   3.451   3.429
11472WAT     H134658   8.635   3.527   3.488
11472WAT     H234659   8.627   3.365   3.470
11473WAT      O34660   2.182   3.555   9.432
11473WAT     H134661   2.251   3.564   9.360
11473WAT     H234662   2.215   3.493   9.503
11474WAT      O34663   1.898   6.589   3.933
11474WAT     H134664   1.871   6.628   4.021
11474WAT     H234665   1.897   6.489   3.939
11475WAT      O34666   1.776   7.205   0.425
11475WAT     H134667   1.830   7.288   0.434
11475WAT     H234668   1.830   7.135   0.378
11476WAT      O34669   8.437   7.324   0.942
11476WAT     H134670   8.457   7.411   0.986
11476WAT     H234671   8.430   7.337   0.843
11477WAT      O34672   6.517   4.796   3.432
11477WAT     H134673   6.597   4.759   3.384
11477WAT     H234674   6.478   4.725   3.491
11478WAT      O34675   7.905   1.764   3.929
11478WAT     H134676   7.880   1.692   3.994
11478WAT     H234677   7.823   1.793   3.879
11479WAT      O34678   7.498   9.057   6.121
11479WAT     H134679   7.457   8.992   6.058
11479WAT     H234680   7.589   9.027   6.146
11480WAT      O34681   3.139   3.159   0.749
11480WAT     H134682   3.155   3.249   0.709
11480WAT     H234683   3.194   3.091   0.701
11481WAT      O34684   3.890   1.904   3.282
11481WAT     H134685   3.867   1.971   3.212
11481WAT     H234686   3.807   1.876   3.330
11482WAT      O34687   0.900   2.689   9.821
11482WAT     H134688   0.825   2.739   9.778
11482WAT     H234689   0.884   2.591   9.811
11483WAT      O34690   8.301   7.822   0.066
11483WAT     H134691   8.283   7.725   0.084
11483WAT     H234692   8.368   7.830  -0.009
11484WAT      O34693   8.438   7.384   6.127
11484WAT     H134694   8.379   7.439   6.068
11484WAT     H234695   8.436   7.420   6.220
11485WAT      O34696   3.047   7.186   9.022
11485WAT     H134697   3.105   7.151   9.096
11485WAT     H234698   2.991   7.262   9.056
11486WAT      O34699   6.192   0.803   6.386
11486WAT     H134700   6.260   0.844   6.326
11486WAT     H234701   6.234   0.733   6.443
11487WAT      O34702   3.509   8.821   5.257
11487WAT     H134703   3.552   8.776   5.179
11487WAT     H234704   3.558   8.797   5.340
11488WAT      O34705   8.620   7.834   9.390
11488WAT     H134706   8.541   7.844   9.329
11488WAT     H234707   8.627   7.738   9.420
11489WAT      O34708   4.905   0.176   4.755
11489WAT     H134709   4.974   0.146   4.689
11489WAT     H234710   4.859   0.096   4.794
11490WAT      O34711   1.391   7.601   7.349
11490WAT     H134712   1.445   7.678   7.315
11490WAT     H234713   1.351   7.551   7.271
11491WAT      O34714   1.330   2.693   5.829
11491WAT     H134715   1.287   2.774   5.789
11491WAT     H234716   1.428   2.710   5.841
11492WAT      O34717   7.976   5.743   4.374
11492WAT     H134718   7.888   5.715   4.334
11492WAT     H234719   7.962   5.771   4.468
11493WAT      O34720   0.584   5.857   9.232
11493WAT     H134721   0.501   5.906   9.206
11493WAT     H234722   0.564   5.760   9.244
11494WAT      O34723   2.682   6.099   5.278
11494WAT     H134724   2.763   6.064   5.232
11494WAT     H234725   2.708   6.143   5.363
11495WAT      O34726   5.488   2.558   4.500
11495WAT     H134727   5.472   2.526   4.594
11495WAT     H234728   5.498   2.479   4.440
11496WAT      O34729   2.406   3.964   7.608
11496WAT     H134730   2.432   3.991   7.515
11496WAT     H234731   2.338   3.890   7.603
11497WAT      O34732   0.453   5.293   9.837
11497WAT     H134733   0.463   5.391   9.820
11497WAT     H234734   0.440   5.278   9.935
11498WAT      O34735   6.528   5.543   2.436
11498WAT     H134736   6.518   5.468   2.371
11498WAT     H234737   6.580   5.618   2.394
11499WAT      O34738   8.273   8.156   4.069
11499WAT     H134739   8.353   8.115   4.112
11499WAT     H234740   8.224   8.212   4.135
11500WAT      O34741   0.655   9.178   9.830
11500WAT     H134742   0.631   9.233   9.910
11500WAT     H234743   0.646   9.234   9.747
11501WAT      O34744   0.199   5.070   5.426
11501WAT     H134745   0.277   5.070   5.488
11501WAT     H234746   0.119   5.108   5.472
11502WAT      O34747   7.323   3.287   9.207
11502WAT     H134748   7.345   3.329   9.295
11502WAT     H234749   7.280   3.198   9.223
11503WAT      O34750   5.291   0.770   0.458
11503WAT     H134751   5.223   0.796   0.389
11503WAT     H234752   5.253   0.784   0.549
11504WAT      O34753   9.152   1.611   2.791
11504WAT     H134754   9.181   1.594   2.885
11504WAT     H234755   9.053   1.630   2.790
11505WAT      O34756   2.132   9.628   3.644
11505WAT     H134757   2.082   9.654   3.727
11505WAT     H234758   2.222   9.672   3.645
11506WAT      O34759   9.538   9.322   2.942
11506WAT     H134760   9.522   9.295   2.847
11506WAT     H234761   9.493   9.410   2.960
11507WAT      O34762   2.686   1.289   0.555
11507WAT     H134763   2.776   1.331   0.543
11507WAT     H234764   2.643   1.323   0.639
11508WAT      O34765   4.886   1.478   0.561
11508WAT     H134766   4.786   1.473   0.562
11508WAT     H234767   4.918   1.540   0.632
11509WAT      O34768   4.093   8.861   9.669
11509WAT     H134769   4.098   8.960   9.656
11509WAT     H234770   4.011   8.838   9.720
11510WAT      O34771   8.600   2.688   2.486
11510WAT     H134772   8.664   2.759   2.456
11510WAT     H234773   8.618   2.666   2.582
11511WAT      O34774   7.387   9.217   5.228
11511WAT     H134775   7.374   9.225   5.327
11511WAT     H234776   7.414   9.306   5.190
11512WAT      O34777   0.613   3.021   6.739
11512WAT     H134778   0.702   2.985   6.709
11512WAT     H234779   0.627   3.089   6.811
11513WAT      O34780   7.076   4.904   3.433
11513WAT     H134781   7.010   4.922   3.506
11513WAT     H234782   7.155   4.857   3.470
11514WAT      O34783   9.850   7.701   8.024
11514WAT     H134784   9.816   7.674   8.113
11514WAT     H234785   9.949   7.684   8.019
11515WAT      O34786   6.683   8.849   4.618
11515WAT     H134787   6.780   8.828   4.631
11515WAT     H234788   6.652   8.911   4.691
11516WAT      O34789   7.901   5.319   5.948
11516WAT     H134790   7.899   5.226   5.985
11516WAT     H234791   7.827   5.330   5.882
11517WAT      O34792   5.482   7.947   2.031
11517WAT     H134793   5.526   8.036   2.041
11517WAT     H234794   5.514   7.885   2.103
11518WAT      O34795   1.960   7.611   7.963
11518WAT     H134796   1.922   7.569   7.881
11518WAT     H234797   1.887   7.659   8.013
11519WAT      O34798   2.135   8.538   3.805
11519WAT     H134799   2.132   8.513   3.708
11519WAT     H234800   2.205   8.484   3.851
11520WAT      O34801   3.699   8.047   4.222
11520WAT     H134802   3.665   8.133   4.184
11520WAT     H234803   3.665   8.036   4.315
11521WAT      O34804   1.569   8.845   5.865
11521WAT     H134805   1.630   8.788   5.811
11521WAT     H234806   1.604   8.938   5.870
11522WAT      O34807   8.262   0.565   4.842
11522WAT     H134808   8.343   0.525   4.887
11522WAT     H234809   8.194   0.494   4.827
11523WAT      O34810   2.721   1.544   8.122
11523WAT     H134811   2.681   1.462   8.080
11523WAT     H234812   2.727   1.616   8.053
11524WAT      O34813   6.478   3.516   6.104
11524WAT     H134814   6.544   3.587   6.078
11524WAT     H234815   6.388   3.558   6.116
11525WAT      O34816   3.376   0.880   1.962
11525WAT     H134817   3.354   0.932   1.880
11525WAT     H234818   3.314   0.906   2.036
11526WAT      O34819   7.759   5.080   7.907
11526WAT     H134820   7.821   5.143   7.954
11526WAT     H234821   7.717   5.020   7.974
11527WAT      O34822   1.352   4.162   9.731
11527WAT     H134823   1.252   4.165   9.729
11527WAT     H234824   1.386   4.129   9.643
11528WAT      O34825   1.072   5.556   6.540
11528WAT     H134826   1.156   5.554   6.595
11528WAT     H234827   1.070   5.640   6.486
11529WAT      O34828   1.697   3.023   2.374
11529WAT     H134829   1.682   3.115   2.411
11529WAT     H234830   1.711   3.028   2.275
11530WAT      O34831   2.912   6.560   6.908
11530WAT     H134832   2.972   6.493   6.951
11530WAT     H234833   2.953   6.590   6.821
11531WAT      O34834   5.202   1.385   1.214
11531WAT     H134835   5.251   1.357   1.297
11531WAT     H234836   5.171   1.303   1.165
11532WAT      O34837   9.830   1.054   7.744
11532WAT     H134838   9.860   1.148   7.759
11532WAT     H234839   9.872   0.994   7.813
11533WAT      O34840   1.862   8.374   1.845
11533WAT     H134841   1.802   8.324   1.908
11533WAT     H234842   1.811   8.394   1.761
11534WAT      O34843   5.282   6.388   0.166
11534WAT     H134844   5.279   6.359   0.070
11534WAT     H234845   5.377   6.385   0.198
11535WAT      O34846   3.620   8.915   3.012
11535WAT     H134847   3.660   8.908   2.921
11535WAT     H234848   3.645   9.003   3.054
11536WAT      O34849   6.927   9.370   6.384
11536WAT     H134850   7.012   9.393   6.338
11536WAT     H234851   6.855   9.433   6.354
11537WAT      O34852   7.142   3.168   4.717
11537WAT     H134853   7.054   3.136   4.750
11537WAT     H234854   7.184   3.097   4.659
11538WAT      O34855   8.796   7.075   9.512
11538WAT     H134856   8.817   7.172   9.502
11538WAT     H234857   8.838   7.040   9.595
11539WAT      O34858   1.328   6.340   5.564
11539WAT     H134859   1.295   6.270   5.500
11539WAT     H234860   1.251   6.396   5.595
11540WAT      O34861   9.447   7.645   4.887
11540WAT     H134862   9.417   7.724   4.941
11540WAT     H234863   9.433   7.561   4.941
11541WAT      O34864   4.105   6.089   2.885
11541WAT     H134865   4.148   6.013   2.835
11541WAT     H234866   4.032   6.053   2.944
11542WAT      O34867   5.131   0.785   8.356
11542WAT     H134868   5.227   0.801   8.381
11542WAT     H234869   5.107   0.843   8.278
11543WAT      O34870   2.441   5.365   3.557
11543WAT     H134871   2.370   5.322   3.502
11543WAT     H234872   2.437   5.464   3.544
11544WAT      O34873   9.122   8.911   5.121
11544WAT     H134874   9.126   8.918   5.021
11544WAT     H234875   9.175   8.831   5.151
11545WAT      O34876   5.674   7.011   0.814
11545WAT     H134877   5.673   7.022   0.913
11545WAT     H234878   5.759   7.049   0.777
11546WAT      O34879   7.742   4.643   4.812
11546WAT     H134880   7.779   4.633   4.720
11546WAT     H234881   7.683   4.724   4.816
11547WAT      O34882   1.221   8.221   9.598
11547WAT     H134883   1.279   8.141   9.581
11547WAT     H234884   1.268   8.304   9.569
11548WAT      O34885   1.162   1.906   4.721
11548WAT     H134886   1.107   1.974   4.674
11548WAT     H234887   1.215   1.854   4.654
11549WAT      O34888   2.044   3.579   0.234
11549WAT     H134889   2.121   3.536   0.187
11549WAT     H234890   1.964   3.519   0.230
11550WAT      O34891   3.109   8.840   6.981
11550WAT     H134892   3.052   8.765   6.946
11550WAT     H234893   3.050   8.915   7.010
11551WAT      O34894   1.293   4.287   9.391
11551WAT     H134895   1.300   4.342   9.307
11551WAT     H234896   1.197   4.276   9.415
11552WAT      O34897   4.317   8.690   6.980
11552WAT     H134898   4.347   8.611   6.928
11552WAT     H234899   4.341   8.679   7.076
11553WAT      O34900   8.432   3.637   5.722
11553WAT     H134901   8.409   3.634   5.625
11553WAT     H234902   8.412   3.727   5.759
11554WAT      O34903   7.158   2.783   0.237
11554WAT     H134904   7.172   2.767   0.139
11554WAT     H234905   7.063   2.761   0.261
11555WAT      O34906   7.564   4.433   6.668
11555WAT     H134907   7.608   4.373   6.734
11555WAT     H234908   7.466   4.414   6.666
11556WAT      O34909   2.997   8.725   4.045
11556WAT     H134910   3.007   8.736   3.946
11556WAT     H234911   2.900   8.721   4.068
11557WAT      O34912   2.525   6.968   7.147
11557WAT     H134913   2.603   6.973   7.209
11557WAT     H234914   2.451   7.025   7.183
11558WAT      O34915   6.298   1.271   2.976
11558WAT     H134916   6.356   1.278   3.057
11558WAT     H234917   6.222   1.209   2.994
11559WAT      O34918   3.649   5.627   9.615
11559WAT     H134919   3.554   5.606   9.638
11559WAT     H234920   3.704   5.626   9.698
11560WAT      O34921   8.153   1.107   2.239
11560WAT     H134922   8.176   1.014   2.213
11560WAT     H234923   8.105   1.152   2.163
11561WAT      O34924   7.084   0.638   8.193
11561WAT     H134925   7.049   0.708   8.130
11561WAT     H234926   7.015   0.568   8.207
11562WAT      O34927   1.308   3.963   6.260
11562WAT     H134928   1.239   4.030   6.287
11562WAT     H234929   1.368   3.944   6.338
11563WAT      O34930   0.355   1.038   5.814
11563WAT     H134931   0.321   0.999   5.900
11563WAT     H234932   0.303   1.121   5.792
11564WAT      O34933   3.697   6.079   3.704
11564WAT     H134934   3.650   6.077   3.792
11564WAT     H234935   3.681   6.168   3.660
11565WAT      O34936   8.492   1.759   1.376
11565WAT     H134937   8.445   1.692   1.318
11565WAT     H234938   8.437   1.775   1.458
11566WAT      O34939   5.321   6.914   9.436
11566WAT     H134940   5.298   6.949   9.527
11566WAT     H234941   5.414   6.942   9.413
11567WAT      O34942   7.111   4.029   8.497
11567WAT     H134943   7.152   4.088   8.427
11567WAT     H234944   7.184   3.990   8.553
11568WAT      O34945   9.799   7.530   5.820
11568WAT     H134946   9.859   7.458   5.785
11568WAT     H234947   9.844   7.619   5.811
11569WAT      O34948   3.931   7.063   4.545
11569WAT     H134949   4.004   7.106   4.491
11569WAT     H234950   3.910   7.120   4.624
11570WAT      O34951   8.965   0.516   0.279
11570WAT     H134952   8.968   0.509   0.179
11570WAT     H234953   9.048   0.476   0.317
11571WAT      O34954   7.962   8.898   2.512
11571WAT     H134955   7.986   8.921   2.607
11571WAT     H234956   7.874   8.941   2.490
11572WAT      O34957   6.040   6.370   7.595
11572WAT     H134958   6.023   6.271   7.599
11572WAT     H234959   6.127   6.390   7.641
11573WAT      O34960   2.890   4.772   5.414
11573WAT     H134961   2.842   4.828   5.346
11573WAT     H234962   2.824   4.714   5.462
11574WAT      O34963   2.960   0.038   9.626
11574WAT     H134964   3.057   0.059   9.638
11574WAT     H234965   2.929   0.073   9.538
11575WAT      O34966   1.706   7.226   9.567
11575WAT     H134967   1.746   7.289   9.634
11575WAT     H234968   1.777   7.164   9.533
11576WAT      O34969   8.519   0.352   0.857
11576WAT     H134970   8.611   0.381   0.883
11576WAT     H234971   8.509   0.254   0.875
11577WAT      O34972   1.017   7.303   6.010
11577WAT     H134973   0.969   7.252   6.081
11577WAT     H234974   1.108   7.264   5.996
11578WAT      O34975   0.826   3.254   8.830
11578WAT     H134976   0.788   3.284   8.917
11578WAT     H234977   0.919   3.290   8.820
11579WAT      O34978   2.574   0.101   4.444
11579WAT     H134979   2.489   0.057   4.471
11579WAT     H234980   2.563   0.200   4.446
11580WAT      O34981   4.388   0.539   9.750
11580WAT     H134982   4.346   0.516   9.838
11580WAT     H234983   4.412   0.636   9.748
11581WAT      O34984   3.055   2.538   2.708
11581WAT     H134985   3.002   2.575   2.631
11581WAT     H234986   3.020   2.447   2.731
11582WAT      O34987   1.925   5.370   0.120
11582WAT     H134988   1.970   5.429   0.051
11582WAT     H234989   1.922   5.418   0.207
11583WAT      O34990   3.082   4.034   9.788
11583WAT     H134991   3.018   4.082   9.727
11583WAT     H234992   3.126   3.960   9.738
11584WAT      O34993   2.953   3.187   1.674
11584WAT     H134994   2.929   3.150   1.763
11584WAT     H234995   2.906   3.274   1.660
11585WAT      O34996   3.707   8.644   0.890
11585WAT     H134997   3.681   8.691   0.806
11585WAT     H234998   3.681   8.699   0.969
11586WAT      O34999   7.313   7.214   1.099
11586WAT     H135000   7.329   7.312   1.100
11586WAT     H235001   7.217   7.195   1.119
11587WAT      O35002   2.845   9.163   0.574
11587WAT     H135003   2.761   9.211   0.549
11587WAT     H235004   2.898   9.144   0.492
11588WAT      O35005   6.046   3.168   3.917
11588WAT     H135006   6.081   3.144   4.007
11588WAT     H235007   6.121   3.191   3.855
11589WAT      O35008   9.201   3.720   9.386
11589WAT     H135009   9.184   3.639   9.329
11589WAT     H235010   9.189   3.803   9.332
11590WAT      O35011   9.105   7.536   0.447
11590WAT     H135012   9.157   7.534   0.362
11590WAT     H235013   9.152   7.480   0.516
11591WAT      O35014   6.348   6.416   3.101
11591WAT     H135015   6.348   6.502   3.050
11591WAT     H235016   6.311   6.432   3.193
11592WAT      O35017   5.537   6.648   2.284
11592WAT     H135018   5.563   6.724   2.224
11592WAT     H235019   5.555   6.674   2.379
11593WAT      O35020   5.902   4.563   1.942
11593WAT     H135021   5.993   4.539   1.910
11593WAT     H235022   5.893   4.663   1.946
11594WAT      O35023   7.259   9.586   1.914
11594WAT     H135024   7.344   9.543   1.884
11594WAT     H235025   7.275   9.683   1.933
11595WAT      O35026   8.858   7.944   7.013
11595WAT     H135027   8.779   7.945   6.952
11595WAT     H235028   8.919   8.021   6.993
11596WAT      O35029   0.604   5.053   2.870
11596WAT     H135030   0.556   5.040   2.783
11596WAT     H235031   0.558   5.001   2.942
11597WAT      O35032   0.798   0.209   2.896
11597WAT     H135033   0.773   0.237   2.804
11597WAT     H235034   0.849   0.282   2.941
11598WAT      O35035   5.812   2.203   0.523
11598WAT     H135036   5.866   2.134   0.570
11598WAT     H235037   5.860   2.232   0.440
11599WAT      O35038   8.062   1.741   4.228
11599WAT     H135039   8.143   1.696   4.190
11599WAT     H235040   7.979   1.698   4.191
11600WAT      O35041   0.700   6.199   3.415
11600WAT     H135042   0.606   6.172   3.434
11600WAT     H235043   0.752   6.119   3.384
11601WAT      O35044   7.433   8.474   9.867
11601WAT     H135045   7.347   8.504   9.908
11601WAT     H235046   7.416   8.397   9.805
11602WAT      O35047   0.942   5.929   6.078
11602WAT     H135048   0.947   5.948   5.980
11602WAT     H235049   1.001   5.992   6.127
11603WAT      O35050   9.795   7.402   8.448
11603WAT     H135051   9.703   7.382   8.479
11603WAT     H235052   9.861   7.350   8.503
11604WAT      O35053   8.016   8.850   0.314
11604WAT     H135054   7.944   8.879   0.250
11604WAT     H235055   8.032   8.752   0.305
11605WAT      O35056   4.318   0.873   4.202
11605WAT     H135057   4.335   0.888   4.300
11605WAT     H235058   4.405   0.870   4.153
11606WAT      O35059   1.074   0.105   9.027
11606WAT     H135060   1.076   0.167   8.948
11606WAT     H235061   1.094   0.012   8.996
11607WAT      O35062   3.555   4.478   8.379
11607WAT     H135063   3.488   4.422   8.330
11607WAT     H235064   3.635   4.423   8.399
11608WAT      O35065   6.845   3.367   6.889
11608WAT     H135066   6.754   3.325   6.885
11608WAT     H235067   6.873   3.393   6.796
11609WAT      O35068   3.180   0.877   6.380
11609WAT     H135069   3.188   0.920   6.470
11609WAT     H235070   3.191   0.946   6.309
11610WAT      O35071   8.151   3.209   5.271
11610WAT     H135072   8.195   3.119   5.262
11610WAT     H235073   8.092   3.225   5.193
11611WAT      O35074   4.301   4.923   7.069
11611WAT     H135075   4.371   4.898   7.001
11611WAT     H235076   4.346   4.962   7.149
11612WAT      O35077   6.700   4.605   8.830
11612WAT     H135078   6.630   4.671   8.801
11612WAT     H235079   6.706   4.532   8.762
11613WAT      O35080   2.393   1.206   1.823
11613WAT     H135081   2.345   1.174   1.741
11613WAT     H235082   2.366   1.150   1.901
11614WAT      O35083   7.788   7.489   2.216
11614WAT     H135084   7.706   7.463   2.267
11614WAT     H235085   7.777   7.464   2.120
11615WAT      O35086   5.525   3.918   0.391
11615WAT     H135087   5.496   3.871   0.307
11615WAT     H235088   5.541   4.015   0.370
11616WAT      O35089   3.842   4.714   7.562
11616WAT     H135090   3.888   4.800   7.539
11616WAT     H235091   3.896   4.637   7.528
11617WAT      O35092   7.469   2.152   2.772
11617WAT     H135093   7.479   2.251   2.773
11617WAT     H235094   7.560   2.109   2.777
11618WAT      O35095   7.983   5.769   8.558
11618WAT     H135096   8.018   5.829   8.486
11618WAT     H235097   7.977   5.820   8.644
11619WAT      O35098   6.759   7.218   0.861
11619WAT     H135099   6.665   7.230   0.827
11619WAT     H235100   6.796   7.132   0.826
11620WAT      O35101   1.007   6.542   5.051
11620WAT     H135102   0.982   6.526   5.146
11620WAT     H235103   1.082   6.608   5.047
11621WAT      O35104   6.541   9.229   4.184
11621WAT     H135105   6.477   9.157   4.210
11621WAT     H235106   6.491   9.313   4.167
11622WAT      O35107   3.372   0.175   0.392
11622WAT     H135108   3.305   0.221   0.333
11622WAT     H235109   3.347   0.079   0.401
11623WAT      O35110   6.528   0.362   0.715
11623WAT     H135111   6.461   0.294   0.743
11623WAT     H235112   6.574   0.399   0.796
11624WAT      O35113   2.773   6.694   8.585
11624WAT     H135114   2.819   6.779   8.613
11624WAT     H235115   2.836   6.639   8.530
11625WAT      O35116   5.218   2.291   5.849
11625WAT     H135117   5.192   2.260   5.940
11625WAT     H235118   5.229   2.212   5.789
11626WAT      O35119   6.555   0.795   2.022
11626WAT     H135120   6.471   0.783   2.074
11626WAT     H235121   6.581   0.708   1.980
11627WAT      O35122   8.216   6.786   8.623
11627WAT     H135123   8.194   6.842   8.543
11627WAT     H235124   8.294   6.826   8.671
11628WAT      O35125   8.831   2.903   0.484
11628WAT     H135126   8.840   2.864   0.392
11628WAT     H235127   8.738   2.888   0.517
11629WAT      O35128   8.675   2.256   5.485
11629WAT     H135129   8.762   2.207   5.478
11629WAT     H235130   8.654   2.297   5.396
11630WAT      O35131   0.827   8.763   5.976
11630WAT     H135132   0.861   8.670   5.984
11630WAT     H235133   0.834   8.793   5.880
11631WAT      O35134   2.015   7.912   4.115
11631WAT     H135135   1.976   7.823   4.139
11631WAT     H235136   2.025   7.919   4.016
11632WAT      O35137   4.209   2.260   7.474
11632WAT     H135138   4.227   2.256   7.572
11632WAT     H235139   4.111   2.277   7.459
11633WAT      O35140   9.446   1.277   6.089
11633WAT     H135141   9.441   1.184   6.127
11633WAT     H235142   9.355   1.307   6.061
11634WAT      O35143   7.420   8.678   7.802
11634WAT     H135144   7.472   8.740   7.861
11634WAT     H235145   7.460   8.679   7.710
11635WAT      O35146   6.938   2.757   6.157
11635WAT     H135147   6.944   2.820   6.235
11635WAT     H235148   6.861   2.695   6.171
11636WAT      O35149   9.217   4.163   8.006
11636WAT     H135150   9.272   4.091   7.964
11636WAT     H235151   9.132   4.125   8.041
11637WAT      O35152   1.379   8.141   7.425
11637WAT     H135153   1.472   8.110   7.412
11637WAT     H235154   1.338   8.094   7.503
11638WAT      O35155   7.008   2.681   4.775
11638WAT     H135156   7.097   2.676   4.730
11638WAT     H235157   6.952   2.602   4.746
11639WAT      O35158   4.698   8.402   5.165
11639WAT     H135159   4.674   8.499   5.171
11639WAT     H235160   4.617   8.349   5.138
11640WAT      O35161   3.967   2.018   9.277
11640WAT     H135162   4.006   2.110   9.275
11640WAT     H235163   3.968   1.979   9.185
11641WAT      O35164   3.217   1.740   6.569
11641WAT     H135165   3.161   1.768   6.647
11641WAT     H235166   3.204   1.805   6.494
11642WAT      O35167   4.691   7.083   1.029
11642WAT     H135168   4.679   7.008   0.964
11642WAT     H235169   4.628   7.072   1.106
11643WAT      O35170   5.509   2.618   9.343
11643WAT     H135171   5.418   2.598   9.307
11643WAT     H235172   5.528   2.557   9.420
11644WAT      O35173   9.745   8.754   2.403
11644WAT     H135174   9.810   8.831   2.403
11644WAT     H235175   9.793   8.671   2.429
11645WAT      O35176   9.663   9.691   9.130
11645WAT     H135177   9.632   9.778   9.091
11645WAT     H235178   9.667   9.622   9.059
11646WAT      O35179   6.927   4.484   2.667
11646WAT     H135180   6.870   4.403   2.651
11646WAT     H235181   6.898   4.557   2.605
11647WAT      O35182   6.887   6.146   0.361
11647WAT     H135183   6.790   6.139   0.338
11647WAT     H235184   6.942   6.111   0.286
11648WAT      O35185   3.198   1.797   1.123
11648WAT     H135186   3.259   1.875   1.126
11648WAT     H235187   3.112   1.823   1.078
11649WAT      O35188   3.968   6.259   3.739
11649WAT     H135189   3.899   6.192   3.767
11649WAT     H235190   4.021   6.221   3.663
11650WAT      O35191   7.909   8.417   5.226
11650WAT     H135192   7.980   8.409   5.295
11650WAT     H235193   7.819   8.419   5.270
11651WAT      O35194   4.442   0.095   0.334
11651WAT     H135195   4.512   0.122   0.401
11651WAT     H235196   4.417  -0.000   0.349
11652WAT      O35197   8.890   1.869   8.977
11652WAT     H135198   8.903   1.787   8.921
11652WAT     H235199   8.979   1.898   9.014
11653WAT      O35200   4.999   8.309   1.177
11653WAT     H135201   4.904   8.337   1.186
11653WAT     H235202   5.032   8.331   1.085
11654WAT      O35203   7.514   6.010   7.766
11654WAT     H135204   7.545   6.105   7.762
11654WAT     H235205   7.578   5.952   7.714
11655WAT      O35206   3.272   7.167   8.022
11655WAT     H135207   3.328   7.233   7.972
11655WAT     H235208   3.316   7.077   8.021
11656WAT      O35209   6.082   4.183   5.482
11656WAT     H135210   6.091   4.280   5.460
11656WAT     H235211   6.029   4.137   5.411
11657WAT      O35212   3.846   5.703   5.025
11657WAT     H135213   3.940   5.723   5.051
11657WAT     H235214   3.786   5.779   5.054
11658WAT      O35215   9.491   3.618   0.051
11658WAT     H135216   9.427   3.695   0.063
11658WAT     H235217   9.467   3.568  -0.032
11659WAT      O35218   5.820   6.913   7.826
11659WAT     H135219   5.745   6.979   7.827
11659WAT     H235220   5.816   6.858   7.742
11660WAT      O35221   9.563   1.637   2.846
11660WAT     H135222   9.595   1.592   2.929
11660WAT     H235223   9.640   1.654   2.784
11661WAT      O35224   1.089   8.904   6.700
11661WAT     H135225   1.105   8.874   6.606
11661WAT     H235226   1.176   8.926   6.744
11662WAT      O35227   8.875   1.743   3.405
11662WAT     H135228   8.822   1.697   3.333
11662WAT     H235229   8.908   1.831   3.370
11663WAT      O35230   1.166   0.408   5.037
11663WAT     H135231   1.262   0.402   5.011
11663WAT     H235232   1.132   0.316   5.060
11664WAT      O35233   3.030   3.859   7.903
11664WAT     H135234   3.080   3.835   7.820
11664WAT     H235235   3.076   3.936   7.949
11665WAT      O35236   5.000   4.114   8.128
11665WAT     H135237   5.059   4.191   8.148
11665WAT     H235238   5.049   4.028   8.146
11666WAT      O35239   6.672   8.135   1.962
11666WAT     H135240   6.667   8.233   1.948
11666WAT     H235241   6.608   8.088   1.901
11667WAT      O35242   0.868   6.238   6.228
11667WAT     H135243   0.817   6.231   6.142
11667WAT     H235244   0.964   6.214   6.211
11668WAT      O35245   3.104   2.454   8.260
11668WAT     H135246   3.108   2.441   8.161
11668WAT     H235247   3.042   2.529   8.282
11669WAT      O35248   7.297   0.849   9.843
11669WAT     H135249   7.223   0.793   9.807
11669WAT     H235250   7.287   0.859   9.942
11670WAT      O35251   1.928   0.727   4.802
11670WAT     H135252   1.929   0.827   4.797
11670WAT     H235253   1.971   0.689   4.720
11671WAT      O35254   0.430   5.245   2.396
11671WAT     H135255   0.404   5.276   2.488
11671WAT     H235256   0.444   5.146   2.397
11672WAT      O35257   0.401   3.451   9.617
11672WAT     H135258   0.351   3.529   9.655
11672WAT     H235259   0.412   3.381   9.687
11673WAT      O35260   6.985   2.158   4.151
11673WAT     H135261   6.885   2.163   4.154
11673WAT     H235262   7.022   2.251   4.145
11674WAT      O35263   2.341   8.115   3.914
11674WAT     H135264   2.436   8.124   3.886
11674WAT     H235265   2.325   8.024   3.952
11675WAT      O35266   5.205   4.502   9.727
11675WAT     H135267   5.301   4.511   9.751
11675WAT     H235268   5.148   4.520   9.807
11676WAT      O35269   6.015   2.829   3.164
11676WAT     H135270   6.093   2.789   3.212
11676WAT     H235271   6.024   2.929   3.165
11677WAT      O35272   9.133   8.124   3.913
11677WAT     H135273   9.201   8.071   3.964
11677WAT     H235274   9.041   8.098   3.942
11678WAT      O35275   3.218   5.063   4.778
11678WAT     H135276   3.275   5.140   4.749
11678WAT     H235277   3.124   5.078   4.750
11679WAT      O35278   4.551   9.559   8.769
11679WAT     H135279   4.520   9.467   8.795
11679WAT     H235280   4.482   9.602   8.711
11680WAT      O35281   6.154   8.312   9.000
11680WAT     H135282   6.086   8.239   9.005
11680WAT     H235283   6.239   8.277   8.960
11681WAT      O35284   0.735   4.509   5.343
11681WAT     H135285   0.831   4.513   5.372
11681WAT     H235286   0.730   4.521   5.244
11682WAT      O35287   6.069   4.885   2.134
11682WAT     H135288   6.157   4.847   2.161
11682WAT     H235289   6.070   4.907   2.037
11683WAT      O35290   9.080   6.189   0.814
11683WAT     H135291   9.103   6.247   0.736
11683WAT     H235292   9.078   6.245   0.897
11684WAT      O35293   4.103   5.712   5.069
11684WAT     H135294   4.171   5.641   5.081
11684WAT     H235295   4.139   5.799   5.102
11685WAT      O35296   0.403   6.661   5.886
11685WAT     H135297   0.451   6.614   5.812
11685WAT     H235298   0.313   6.690   5.855
11686WAT      O35299   9.262   4.703   1.914
11686WAT     H135300   9.237   4.685   2.010
11686WAT     H235301   9.361   4.697   1.904
11687WAT      O35302   1.486   1.910   6.051
11687WAT     H135303   1.391   1.881   6.057
11687WAT     H235304   1.506   1.974   6.125
11688WAT      O35305   8.476   3.759   1.186
11688WAT     H135306   8.498   3.664   1.207
11688WAT     H235307   8.498   3.817   1.265
11689WAT      O35308   4.246   8.371   0.496
11689WAT     H135309   4.305   8.291   0.507
11689WAT     H235310   4.213   8.375   0.402
11690WAT      O35311   9.050   5.791   5.013
11690WAT     H135312   9.138   5.814   5.053
11690WAT     H235313   8.989   5.754   5.084
11691WAT      O35314   0.095   1.535   7.409
11691WAT     H135315   0.097   1.543   7.509
11691WAT     H235316   0.183   1.501   7.377
11692WAT      O35317   7.999   0.269   6.211
11692WAT     H135318   8.051   0.185   6.196
11692WAT     H235319   8.056   0.348   6.188
11693WAT      O35320   4.239   5.481   1.518
11693WAT     H135321   4.274   5.422   1.445
11693WAT     H235322   4.241   5.576   1.488
11694WAT      O35323   7.402   1.453   6.590
11694WAT     H135324   7.488   1.494   6.622
11694WAT     H235325   7.389   1.477   6.494
11695WAT      O35326   2.098   0.970   9.390
11695WAT     H135327   2.117   1.051   9.335
11695WAT     H235328   2.108   0.992   9.487
11696WAT      O35329   4.229   7.708   7.357
11696WAT     H135330   4.293   7.762   7.411
11696WAT     H235331   4.280   7.653   7.291
11697WAT      O35332   1.469   2.450   4.675
11697WAT     H135333   1.400   2.495   4.732
11697WAT     H235334   1.507   2.516   4.610
11698WAT      O35335   2.506   1.273   3.389
11698WAT     H135336   2.407   1.263   3.384
11698WAT     H235337   2.538   1.330   3.313
11699WAT      O35338   6.568   1.280   7.014
11699WAT     H135339   6.487   1.230   7.046
11699WAT     H235340   6.552   1.316   6.922
11700WAT      O35341   1.594   3.202   8.699
11700WAT     H135342   1.522   3.133   8.704
11700WAT     H235343   1.682   3.156   8.683
11701WAT      O35344   7.260   2.134   0.770
11701WAT     H135345   7.311   2.053   0.798
11701WAT     H235346   7.211   2.172   0.848
11702WAT      O35347   2.843   4.288   4.441
11702WAT     H135348   2.885   4.366   4.487
11702WAT     H235349   2.879   4.203   4.479
11703WAT      O35350   9.286   4.320   1.783
11703WAT     H135351   9.276   4.299   1.880
11703WAT     H235352   9.204   4.290   1.733
11704WAT      O35353   7.978   5.047   3.213
11704WAT     H135354   8.030   4.967   3.181
11704WAT     H235355   8.041   5.120   3.239
11705WAT      O35356   7.538   8.527   1.798
11705WAT     H135357   7.612   8.586   1.765
11705WAT     H235358   7.458   8.538   1.740
11706WAT      O35359   5.904   8.370   6.312
11706WAT     H135360   5.863   8.352   6.401
11706WAT     H235361   6.003   8.365   6.318
11707WAT      O35362   4.842   9.578   3.776
11707WAT     H135363   4.746   9.587   3.802
11707WAT     H235364   4.899   9.633   3.838
11708WAT      O35365   0.033   2.977   0.278
11708WAT     H135366  -0.054   2.942   0.244
11708WAT     H235367   0.107   2.915   0.250
11709WAT      O35368   8.390   1.413   3.471
11709WAT     H135369   8.413   1.316   3.480
11709WAT     H235370   8.400   1.440   3.375
11710WAT      O35371   8.817   9.594   2.508
11710WAT     H135372   8.796   9.609   2.604
11710WAT     H235373   8.760   9.653   2.451
11711WAT      O35374   1.041   8.740   5.020
11711WAT     H135375   1.004   8.707   4.934
11711WAT     H235376   1.065   8.837   5.012
11712WAT      O35377   5.898   7.971   1.572
11712WAT     H135378   5.956   8.051   1.560
11712WAT     H235379   5.861   7.969   1.665
11713WAT      O35380   5.511   6.532   4.717
11713WAT     H135381   5.517   6.631   4.725
11713WAT     H235382   5.548   6.503   4.629
11714WAT      O35383   9.857   0.423   6.249
11714WAT     H135384   9.957   0.422   6.242
11714WAT     H235385   9.820   0.342   6.203
11715WAT      O35386   1.725   4.078   1.545
11715WAT     H135387   1.785   4.157   1.532
11715WAT     H235388   1.751   4.006   1.480
11716WAT      O35389   2.097   4.483   6.709
11716WAT     H135390   2.052   4.397   6.684
11716WAT     H235391   2.041   4.532   6.776
11717WAT      O35392   8.816   9.418   1.456
11717WAT     H135393   8.768   9.339   1.494
11717WAT     H235394   8.829   9.405   1.357
11718WAT      O35395   6.918   3.679   1.474
11718WAT     H135396   6.827   3.662   1.436
11718WAT     H235397   6.913   3.677   1.574
11719WAT      O35398   7.820   7.745   4.324
11719WAT     H135399   7.884   7.769   4.251
11719WAT     H235400   7.805   7.646   4.323
11720WAT      O35401   7.348   3.203   7.358
11720WAT     H135402   7.340   3.189   7.260
11720WAT     H235403   7.257   3.196   7.400
11721WAT      O35404   7.391   8.527   2.347
11721WAT     H135405   7.413   8.513   2.443
11721WAT     H235406   7.440   8.460   2.291
11722WAT      O35407   4.771   8.869   9.497
11722WAT     H135408   4.758   8.773   9.523
11722WAT     H235409   4.736   8.883   9.404
11723WAT      O35410   4.903   3.978   0.175
11723WAT     H135411   4.992   4.022   0.184
11723WAT     H235412   4.904   3.889   0.221
11724WAT      O35413   1.886   5.079   1.706
11724WAT     H135414   1.804   5.137   1.709
11724WAT     H235415   1.956   5.124   1.650
11725WAT      O35416   0.932   5.746   9.317
11725WAT     H135417   1.019   5.778   9.354
11725WAT     H235418   0.879   5.823   9.283
11726WAT      O35419   7.237   0.347   2.617
11726WAT     H135420   7.234   0.343   2.717
11726WAT     H235421   7.323   0.307   2.584
11727WAT      O35422   1.718   7.245   4.424
11727WAT     H135423   1.784   7.277   4.492
11727WAT     H235424   1.668   7.166   4.459
11728WAT      O35425   0.427   0.902   0.911
11728WAT     H135426   0.484   0.870   0.836
11728WAT     H235427   0.452   0.855   0.996
11729WAT      O35428   5.832   0.046   7.911
11729WAT     H135429   5.906   0.113   7.911
11729WAT     H235430   5.788   0.045   7.821
11730WAT      O35431   3.718   5.302   7.838
11730WAT     H135432   3.746   5.219   7.789
11730WAT     H235433   3.799   5.352   7.868
11731WAT      O35434   2.380   4.891   7.489
11731WAT     H135435   2.453   4.864   7.552
11731WAT     H235436   2.401   4.980   7.450
11732WAT      O35437   0.187   3.205   0.281
11732WAT     H135438   0.281   3.183   0.308
11732WAT     H235439   0.130   3.124   0.291
11733WAT      O35440   8.756   2.449   8.412
11733WAT     H135441   8.774   2.351   8.402
11733WAT     H235442   8.711   2.484   8.330
11734WAT      O35443   3.793   3.286   3.571
11734WAT     H135444   3.792   3.331   3.660
11734WAT     H235445   3.729   3.333   3.510
11735WAT      O35446   3.257   7.078   9.209
11735WAT     H135447   3.314   7.042   9.136
11735WAT     H235448   3.312   7.141   9.266
11736WAT      O35449   3.186   3.554   8.121
11736WAT     H135450   3.122   3.585   8.051
11736WAT     H235451   3.150   3.472   8.166
11737WAT      O35452   2.176   0.446   8.418
11737WAT     H135453   2.085   0.436   8.379
11737WAT     H235454   2.240   0.386   8.369
11738WAT      O35455   2.793   6.026   9.123
11738WAT     H135456   2.722   6.089   9.154
11738WAT     H235457   2.751   5.941   9.093
11739WAT      O35458   6.511   4.494   3.315
11739WAT     H135459   6.459   4.417   3.277
11739WAT     H235460   6.466   4.528   3.397
11740WAT      O35461   4.781   5.667   2.836
11740WAT     H135462   4.785   5.699   2.742
11740WAT     H235463   4.784   5.746   2.898
11741WAT      O35464   8.976   7.798   0.609
11741WAT     H135465   9.065   7.843   0.618
11741WAT     H235466   8.934   7.790   0.700
11742WAT      O35467   2.599   5.091   7.066
11742WAT     H135468   2.512   5.052   7.094
11742WAT     H235469   2.672   5.024   7.082
11743WAT      O35470   3.848   6.993   8.647
11743WAT     H135471   3.840   6.908   8.699
11743WAT     H235472   3.838   6.973   8.549
11744WAT      O35473   8.562   0.131   7.684
11744WAT     H135474   8.580   0.081   7.600
11744WAT     H235475   8.618   0.214   7.686
11745WAT      O35476   6.050   4.386   8.923
11745WAT     H135477   6.123   4.372   8.991
11745WAT     H235478   5.999   4.300   8.911
11746WAT      O35479   3.318   6.674   0.880
11746WAT     H135480   3.394   6.620   0.915
11746WAT     H235481   3.327   6.769   0.909
11747WAT      O35482   7.460   6.774   4.229
11747WAT     H135483   7.403   6.821   4.297
11747WAT     H235484   7.432   6.803   4.138
11748WAT      O35485   0.331   7.983   5.061
11748WAT     H135486   0.374   7.979   4.971
11748WAT     H235487   0.245   8.035   5.055
11749WAT      O35488   0.305   6.647   7.298
11749WAT     H135489   0.365   6.598   7.235
11749WAT     H235490   0.247   6.711   7.247
11750WAT      O35491   2.382   6.144   2.147
11750WAT     H135492   2.410   6.163   2.242
11750WAT     H235493   2.297   6.091   2.148
11751WAT      O35494   0.300   2.561   9.071
11751WAT     H135495   0.226   2.506   9.033
11751WAT     H235496   0.263   2.619   9.145
11752WAT      O35497   0.497   5.312   4.842
11752WAT     H135498   0.502   5.263   4.755
11752WAT     H235499   0.489   5.246   4.917
11753WAT      O35500   0.165   8.972   0.507
11753WAT     H135501   0.229   9.048   0.521
11753WAT     H235502   0.095   8.999   0.440
11754WAT      O35503   8.996   6.579   0.521
11754WAT     H135504   9.039   6.505   0.573
11754WAT     H235505   8.982   6.658   0.580
11755WAT      O35506   3.063   4.801   6.902
11755WAT     H135507   2.981   4.820   6.847
11755WAT     H235508   3.091   4.884   6.949
11756WAT      O35509   3.187   3.822   3.733
11756WAT     H135510   3.265   3.848   3.675
11756WAT     H235511   3.172   3.724   3.727
11757WAT      O35512   9.773   7.615   8.282
11757WAT     H135513   9.706   7.684   8.310
11757WAT     H235514   9.779   7.544   8.353
11758WAT      O35515   2.549   6.950   3.625
11758WAT     H135516   2.563   6.896   3.707
11758WAT     H235517   2.631   7.004   3.606
11759WAT      O35518   5.562   6.403   7.415
11759WAT     H135519   5.638   6.459   7.446
11759WAT     H235520   5.476   6.446   7.442
11760WAT      O35521   0.288   3.395   6.006
11760WAT     H135522   0.194   3.363   6.008
11760WAT     H235523   0.329   3.374   5.916
11761WAT      O35524   6.454   3.137   0.239
11761WAT     H135525   6.410   3.124   0.328
11761WAT     H235526   6.398   3.198   0.182
11762WAT      O35527   9.284   2.504   8.928
11762WAT     H135528   9.252   2.593   8.959
11762WAT     H235529   9.210   2.455   8.883
11763WAT      O35530   1.934   1.967   6.802
11763WAT     H135531   1.875   1.956   6.721
11763WAT     H235532   2.018   1.916   6.789
11764WAT      O35533   4.563   3.102   2.663
11764WAT     H135534   4.563   3.103   2.763
11764WAT     H235535   4.562   3.007   2.631
11765WAT      O35536   3.653   9.683   6.693
11765WAT     H135537   3.591   9.655   6.620
11765WAT     H235538   3.655   9.613   6.764
11766WAT      O35539   6.780   4.606   4.047
11766WAT     H135540   6.851   4.550   4.006
11766WAT     H235541   6.738   4.664   3.977
11767WAT      O35542   9.477   5.342   1.646
11767WAT     H135543   9.543   5.397   1.595
11767WAT     H235544   9.399   5.399   1.672
11768WAT      O35545   5.618   9.581   7.497
11768WAT     H135546   5.606   9.558   7.400
11768WAT     H235547   5.690   9.649   7.506
11769WAT      O35548   2.735   7.440   4.565
11769WAT     H135549   2.697   7.531   4.580
11769WAT     H235550   2.717   7.382   4.644
11770WAT      O35551   9.180   6.722   7.762
11770WAT     H135552   9.250   6.676   7.816
11770WAT     H235553   9.155   6.665   7.683
11771WAT      O35554   7.070   6.795   4.409
11771WAT     H135555   7.143   6.836   4.463
11771WAT     H235556   7.108   6.728   4.346
11772WAT      O35557   9.566   1.843   0.606
11772WAT     H135558   9.618   1.814   0.526
11772WAT     H235559   9.491   1.778   0.623
11773WAT      O35560   3.353   3.516   2.898
11773WAT     H135561   3.351   3.602   2.948
11773WAT     H235562   3.345   3.439   2.962
11774WAT      O35563   4.952   0.023   7.661
11774WAT     H135564   4.973  -0.010   7.569
11774WAT     H235565   4.962   0.123   7.663
11775WAT      O35566   6.668   9.578   0.147
11775WAT     H135567   6.766   9.599   0.157
11775WAT     H235568   6.656   9.479   0.144
11776WAT      O35569   5.951   0.064   6.853
11776WAT     H135570   5.985   0.015   6.934
11776WAT     H235571   6.022   0.067   6.784
11777WAT      O35572   8.299   0.925   7.544
11777WAT     H135573   8.384   0.877   7.567
11777WAT     H235574   8.295   1.011   7.595
11778WAT      O35575   4.219   6.617   5.284
11778WAT     H135576   4.274   6.676   5.226
11778WAT     H235577   4.125   6.651   5.287
11779WAT      O35578   3.849   3.784   4.019
11779WAT     H135579   3.838   3.689   4.046
11779WAT     H235580   3.927   3.824   4.068
11780WAT      O35581   6.620   7.232   1.756
11780WAT     H135582   6.538   7.289   1.760
11780WAT     H235583   6.641   7.211   1.660
11781WAT      O35584   2.539   1.086   2.766
11781WAT     H135585   2.627   1.099   2.813
11781WAT     H235586   2.526   0.989   2.747
11782WAT      O35587   3.013   5.774   9.036
11782WAT     H135588   3.100   5.757   8.989
11782WAT     H235589   3.032   5.800   9.131
11783WAT      O35590   1.753   4.089   3.207
11783WAT     H135591   1.799   4.175   3.185
11783WAT     H235592   1.728   4.089   3.304
11784WAT      O35593   4.524   8.614   8.886
11784WAT     H135594   4.448   8.565   8.843
11784WAT     H235595   4.553   8.689   8.826
11785WAT      O35596   9.217   4.929   1.063
11785WAT     H135597   9.246   4.978   0.981
11785WAT     H235598   9.272   4.846   1.074
11786WAT      O35599   0.827   4.155   1.000
11786WAT     H135600   0.801   4.194   0.911
11786WAT     H235601   0.813   4.056   0.998
11787WAT      O35602   5.978   5.491   6.283
11787WAT     H135603   6.008   5.477   6.377
11787WAT     H235604   6.056   5.518   6.226
11788WAT      O35605   0.472   0.407   3.799
11788WAT     H135606   0.548   0.346   3.780
11788WAT     H235607   0.471   0.481   3.731
11789WAT      O35608   7.592   9.698   7.845
11789WAT     H135609   7.572   9.684   7.748
11789WAT     H235610   7.659   9.630   7.876
11790WAT      O35611   2.856   3.331   9.343
11790WAT     H135612   2.873   3.236   9.316
11790WAT     H235613   2.815   3.334   9.434
11791WAT      O35614   6.273   3.159   0.433
11791WAT     H135615   6.281   3.254   0.403
11791WAT     H235616   6.176   3.135   0.438
11792WAT      O35617   5.901   7.203   0.833
11792WAT     H135618   5.987   7.160   0.862
11792WAT     H235619   5.922   7.284   0.778
11793WAT      O35620   6.913   1.629   2.922
11793WAT     H135621   6.862   1.543   2.913
11793WAT     H235622   7.004   1.618   2.880
11794WAT      O35623   7.545   1.153   0.444
11794WAT     H135624   7.568   1.158   0.347
11794WAT     H235625   7.588   1.230   0.492
11795WAT      O35626   6.611   2.451   1.721
11795WAT     H135627   6.610   2.382   1.648
11795WAT     H235628   6.702   2.493   1.725
11796WAT      O35629   5.644   8.976   5.951
11796WAT     H135630   5.717   9.037   5.984
11796WAT     H235631   5.675   8.927   5.870
11797WAT      O35632   2.366   4.856   0.281
11797WAT     H135633   2.306   4.936   0.280
11797WAT     H235634   2.383   4.829   0.376
11798WAT      O35635   3.723   6.538   0.230
11798WAT     H135636   3.679   6.552   0.142
11798WAT     H235637   3.755   6.626   0.266
11799WAT      O35638   6.737   0.688   1.198
11799WAT     H135639   6.797   0.758   1.237
11799WAT     H235640   6.790   0.630   1.136
11800WAT      O35641   5.048   5.377   1.282
11800WAT     H135642   5.136   5.330   1.282
11800WAT     H235643   4.981   5.323   1.333
11801WAT      O35644   0.488   3.983   7.469
11801WAT     H135645   0.445   4.058   7.419
11801WAT     H235646   0.428   3.952   7.542
11802WAT      O35647   4.097   3.532   2.135
11802WAT     H135648   4.164   3.534   2.210
11802WAT     H235649   4.012   3.575   2.165
11803WAT      O35650   4.135   3.722   4.834
11803WAT     H135651   4.063   3.690   4.772
11803WAT     H235652   4.128   3.673   4.921
11804WAT      O35653   5.550   4.208   8.737
11804WAT     H135654   5.641   4.167   8.727
11804WAT     H235655   5.527   4.258   8.653
11805WAT      O35656   6.764   0.259   5.878
11805WAT     H135657   6.760   0.248   5.978
11805WAT     H235658   6.684   0.217   5.837
11806WAT      O35659   4.115   3.492   3.469
11806WAT     H135660   4.082   3.467   3.560
11806WAT     H235661   4.176   3.421   3.436
11807WAT      O35662   3.077   9.284   9.864
11807WAT     H135663   3.143   9.264   9.792
11807WAT     H235664   3.119   9.343   9.933
11808WAT      O35665   4.347   5.002   4.598
11808WAT     H135666   4.393   4.984   4.685
11808WAT     H235667   4.396   5.074   4.549
11809WAT      O35668   6.238   4.757   6.562
11809WAT     H135669   6.208   4.733   6.469
11809WAT     H235670   6.164   4.806   6.608
11810WAT      O35671   5.108   1.636   1.223
11810WAT     H135672   5.127   1.539   1.209
11810WAT     H235673   5.038   1.666   1.157
11811WAT      O35674   3.411   3.005   6.969
11811WAT     H135675   3.373   3.067   6.901
11811WAT     H235676   3.338   2.969   7.027
11812WAT      O35677   5.118   8.148   1.633
11812WAT     H135678   5.118   8.048   1.622
11812WAT     H235679   5.136   8.191   1.544
11813WAT      O35680   5.624   6.864   4.687
11813WAT     H135681   5.650   6.959   4.669
11813WAT     H235682   5.581   6.858   4.777
11814WAT      O35683   0.843   0.160   5.616
11814WAT     H135684   0.786   0.103   5.558
11814WAT     H235685   0.785   0.224   5.666
11815WAT      O35686   4.636   2.818   8.360
11815WAT     H135687   4.562   2.805   8.426
11815WAT     H235688   4.650   2.734   8.307
11816WAT      O35689   0.547   6.873   7.629
11816WAT     H135690   0.474   6.810   7.601
11816WAT     H235691   0.534   6.901   7.724
11817WAT      O35692   1.449   6.006   1.576
11817WAT     H135693   1.404   6.076   1.632
11817WAT     H235694   1.383   5.967   1.512
11818WAT      O35695   1.466   8.441   4.877
11818WAT     H135696   1.510   8.491   4.802
11818WAT     H235697   1.369   8.465   4.879
11819WAT      O35698   4.289   6.540   4.939
11819WAT     H135699   4.316   6.599   5.016
11819WAT     H235700   4.355   6.465   4.931
11820WAT      O35701   0.021   2.284   4.557
11820WAT     H135702  -0.035   2.202   4.570
11820WAT     H235703   0.117   2.258   4.548
11821WAT      O35704   8.029   6.813   1.876
11821WAT     H135705   7.935   6.779   1.881
11821WAT     H235706   8.028   6.912   1.861
11822WAT      O35707   6.498   9.732   6.370
11822WAT     H135708   6.555   9.805   6.408
11822WAT     H235709   6.450   9.766   6.289
11823WAT      O35710   3.008   7.965   4.609
11823WAT     H135711   2.928   7.924   4.565
11823WAT     H235712   3.082   7.898   4.613
11824WAT      O35713   4.495   1.057   0.361
11824WAT     H135714   4.416   1.022   0.310
11824WAT     H235715   4.486   1.155   0.375
11825WAT      O35716   2.373   2.966   3.837
11825WAT     H135717   2.460   2.963   3.885
11825WAT     H235718   2.331   2.876   3.836
11826WAT      O35719   0.996   4.494   0.539
11826WAT     H135720   1.033   4.444   0.617
11826WAT     H235721   0.950   4.431   0.478
11827WAT      O35722   1.901   4.858   3.852
11827WAT     H135723   1.927   4.763   3.868
11827WAT     H235724   1.900   4.877   3.754
11828WAT      O35725   6.289   5.999   0.827
11828WAT     H135726   6.375   5.992   0.878
11828WAT     H235727   6.225   6.057   0.877
11829WAT      O35728   9.693   2.514   1.303
11829WAT     H135729   9.630   2.436   1.308
11829WAT     H235730   9.652   2.592   1.349
11830WAT      O35731   9.416   1.854   1.837
11830WAT     H135732   9.496   1.796   1.853
11830WAT     H235733   9.430   1.942   1.882
11831WAT      O35734   0.279   1.090   9.363
11831WAT     H135735   0.202   1.154   9.364
11831WAT     H235736   0.328   1.095   9.451
11832WAT      O35737   2.525   3.266   2.410
11832WAT     H135738   2.511   3.354   2.454
11832WAT     H235739   2.542   3.196   2.480
11833WAT      O35740   7.191   7.743   1.535
11833WAT     H135741   7.180   7.645   1.518
11833WAT     H235742   7.208   7.791   1.449
11834WAT      O35743   7.756   1.965   2.555
11834WAT     H135744   7.771   2.036   2.624
11834WAT     H235745   7.802   1.992   2.470
11835WAT      O35746   5.228   4.348   5.128
11835WAT     H135747   5.323   4.373   5.146
11835WAT     H235748   5.170   4.380   5.203
11836WAT      O35749   1.294   9.725   1.313
11836WAT     H135750   1.264   9.696   1.222
11836WAT     H235751   1.232   9.795   1.348
11837WAT      O35752   3.683   1.171   6.687
11837WAT     H135753   3.647   1.138   6.600
11837WAT     H235754   3.782   1.186   6.679
11838WAT      O35755   1.208   9.691   6.309
11838WAT     H135756   1.115   9.666   6.284
11838WAT     H235757   1.237   9.638   6.388
11839WAT      O35758   7.122   6.969   8.642
11839WAT     H135759   7.194   6.904   8.618
11839WAT     H235760   7.100   7.024   8.561
11840WAT      O35761   6.063   6.117   7.389
11840WAT     H135762   6.074   6.105   7.488
11840WAT     H235763   5.965   6.117   7.367
11841WAT      O35764   9.472   4.294   8.147
11841WAT     H135765   9.388   4.240   8.153
11841WAT     H235766   9.490   4.338   8.235
11842WAT      O35767   5.390   0.657   2.201
11842WAT     H135768   5.405   0.638   2.104
11842WAT     H235769   5.293   0.646   2.223
11843WAT      O35770   1.141   5.520   1.359
11843WAT     H135771   1.186   5.510   1.447
11843WAT     H235772   1.175   5.451   1.295
11844WAT      O35773   0.294   9.816   1.003
11844WAT     H135774   0.308   9.780   0.911
11844WAT     H235775   0.212   9.774   1.043
11845WAT      O35776   5.101   9.731   4.698
11845WAT     H135777   5.160   9.668   4.648
11845WAT     H235778   5.007   9.722   4.666
11846WAT      O35779   2.097   3.246   3.191
11846WAT     H135780   2.180   3.263   3.138
11846WAT     H235781   2.117   3.256   3.288
11847WAT      O35782   8.842   2.162   7.739
11847WAT     H135783   8.834   2.151   7.640
11847WAT     H235784   8.754   2.188   7.777
11848WAT      O35785   8.886   3.822   6.572
11848WAT     H135786   8.828   3.775   6.639
11848WAT     H235787   8.961   3.869   6.619
11849WAT      O35788   5.645   0.187   6.091
11849WAT     H135789   5.730   0.141   6.065
11849WAT     H235790   5.649   0.214   6.187
11850WAT      O35791   2.814   1.061   0.486
11850WAT     H135792   2.748   1.132   0.511
11850WAT     H235793   2.817   0.992   0.558
11851WAT      O35794   6.495   0.356   1.766
11851WAT     H135795   6.559   0.302   1.821
11851WAT     H235796   6.546   0.423   1.713
11852WAT      O35797   4.963   3.194   7.512
11852WAT     H135798   5.016   3.109   7.506
11852WAT     H235799   4.881   3.185   7.455
11853WAT      O35800   6.188   4.159   5.095
11853WAT     H135801   6.188   4.115   5.006
11853WAT     H235802   6.277   4.146   5.139
11854WAT      O35803   9.599   5.356   4.771
11854WAT     H135804   9.501   5.349   4.791
11854WAT     H235805   9.648   5.379   4.856
11855WAT      O35806   5.627   4.437   8.884
11855WAT     H135807   5.573   4.354   8.868
11855WAT     H235808   5.646   4.481   8.796
11856WAT      O35809   0.800   4.020   6.553
11856WAT     H135810   0.786   3.948   6.622
11856WAT     H235811   0.849   4.096   6.595
11857WAT      O35812   0.499   6.939   7.897
11857WAT     H135813   0.566   7.008   7.924
11857WAT     H235814   0.517   6.854   7.947
11858WAT      O35815   3.661   8.908   1.835
11858WAT     H135816   3.713   8.947   1.911
11858WAT     H235817   3.690   8.950   1.749
11859WAT      O35818   6.768   5.342   7.298
11859WAT     H135819   6.697   5.291   7.345
11859WAT     H235820   6.727   5.399   7.226
11860WAT      O35821   3.169   3.337   5.548
11860WAT     H135822   3.258   3.299   5.574
11860WAT     H235823   3.099   3.266   5.554
11861WAT      O35824   8.194   4.828   8.373
11861WAT     H135825   8.095   4.827   8.355
11861WAT     H235826   8.238   4.756   8.320
11862WAT      O35827   4.910   9.530   5.133
11862WAT     H135828   4.892   9.536   5.035
11862WAT     H235829   4.949   9.616   5.165
11863WAT      O35830   2.151   7.619   6.276
11863WAT     H135831   2.117   7.679   6.204
11863WAT     H235832   2.122   7.525   6.258
11864WAT      O35833   7.556   3.434   8.480
11864WAT     H135834   7.576   3.447   8.383
11864WAT     H235835   7.638   3.399   8.526
11865WAT      O35836   4.242   4.433   7.258
11865WAT     H135837   4.155   4.474   7.230
11865WAT     H235838   4.243   4.337   7.232
11866WAT      O35839   1.239   4.366   8.681
11866WAT     H135840   1.236   4.320   8.770
11866WAT     H235841   1.152   4.354   8.635
11867WAT      O35842   3.891   5.976   9.769
11867WAT     H135843   3.933   5.924   9.695
11867WAT     H235844   3.925   6.071   9.766
11868WAT      O35845   1.120   1.472   9.282
11868WAT     H135846   1.132   1.376   9.308
11868WAT     H235847   1.026   1.487   9.252
11869WAT      O35848   5.394   6.433   6.083
11869WAT     H135849   5.432   6.485   6.006
11869WAT     H235850   5.450   6.449   6.164
11870WAT      O35851   9.774   0.836   0.735
11870WAT     H135852   9.802   0.758   0.679
11870WAT     H235853   9.849   0.901   0.741
11871WAT      O35854   9.287   0.251   2.494
11871WAT     H135855   9.216   0.194   2.536
11871WAT     H235856   9.311   0.325   2.556
11872WAT      O35857   6.208   3.245   0.027
11872WAT     H135858   6.157   3.313  -0.025
11872WAT     H235859   6.265   3.192  -0.036
11873WAT      O35860   1.879   2.935   2.577
11873WAT     H135861   1.827   2.965   2.658
11873WAT     H235862   1.818   2.936   2.497
11874WAT      O35863   0.575   3.438   0.797
11874WAT     H135864   0.557   3.448   0.895
11874WAT     H235865   0.500   3.386   0.755
11875WAT      O35866   3.864   0.218   1.097
11875WAT     H135867   3.941   0.158   1.120
11875WAT     H235868   3.803   0.170   1.033
11876WAT      O35869   1.472   0.691   2.556
11876WAT     H135870   1.430   0.617   2.504
11876WAT     H235871   1.491   0.661   2.649
11877WAT      O35872   3.774   1.648   5.573
11877WAT     H135873   3.762   1.712   5.648
11877WAT     H235874   3.826   1.569   5.604
11878WAT      O35875   1.861   3.160   3.767
11878WAT     H135876   1.911   3.207   3.694
11878WAT     H235877   1.861   3.217   3.849
11879WAT      O35878   6.730   4.459   5.043
11879WAT     H135879   6.635   4.484   5.062
11879WAT     H235880   6.731   4.377   4.985
11880WAT      O35881   5.617   5.141   2.302
11880WAT     H135882   5.593   5.055   2.347
11880WAT     H235883   5.702   5.177   2.341
11881WAT      O35884   5.158   0.383   5.644
11881WAT     H135885   5.214   0.428   5.713
11881WAT     H235886   5.196   0.293   5.624
11882WAT      O35887   9.256   3.146   8.420
11882WAT     H135888   9.193   3.217   8.390
11882WAT     H235889   9.279   3.086   8.344
11883WAT      O35890   7.055   5.539   4.859
11883WAT     H135891   7.036   5.463   4.796
11883WAT     H235892   6.975   5.599   4.864
11884WAT      O35893   4.530   4.491   9.392
11884WAT     H135894   4.609   4.434   9.416
11884WAT     H235895   4.467   4.496   9.469
11885WAT      O35896   4.151   8.495   2.420
11885WAT     H135897   4.159   8.590   2.450
11885WAT     H235898   4.180   8.488   2.324
11886WAT      O35899   9.555   8.454   0.735
11886WAT     H135900   9.506   8.498   0.810
11886WAT     H235901   9.617   8.385   0.772
11887WAT      O35902   8.575   7.818   2.110
11887WAT     H135903   8.668   7.838   2.143
11887WAT     H235904   8.557   7.720   2.119
11888WAT      O35905   3.217   4.753   7.776
11888WAT     H135906   3.292   4.689   7.760
11888WAT     H235907   3.216   4.821   7.703
11889WAT      O35908   0.535   6.895   0.879
11889WAT     H135909   0.436   6.899   0.863
11889WAT     H235910   0.557   6.945   0.963
11890WAT      O35911   0.414   5.811   3.233
11890WAT     H135912   0.341   5.768   3.181
11890WAT     H235913   0.383   5.831   3.326
11891WAT      O35914   0.162   8.724   3.575
11891WAT     H135915   0.091   8.663   3.611
11891WAT     H235916   0.206   8.772   3.650
11892WAT      O35917   4.304   4.843   0.924
11892WAT     H135918   4.372   4.895   0.976
11892WAT     H235919   4.340   4.752   0.904
11893WAT      O35920   8.899   7.078   7.523
11893WAT     H135921   8.954   7.074   7.439
11893WAT     H235922   8.955   7.113   7.598
11894WAT      O35923   7.941   7.716   9.422
11894WAT     H135924   7.988   7.694   9.337
11894WAT     H235925   7.842   7.715   9.408
11895WAT      O35926   4.710   6.247   8.680
11895WAT     H135927   4.744   6.240   8.773
11895WAT     H235928   4.610   6.257   8.682
11896WAT      O35929   1.549   8.583   1.063
11896WAT     H135930   1.549   8.670   1.015
11896WAT     H235931   1.593   8.513   1.007
11897WAT      O35932   9.714   8.123   2.142
11897WAT     H135933   9.811   8.142   2.131
11897WAT     H235934   9.702   8.030   2.177
11898WAT      O35935   7.760   7.254   0.807
11898WAT     H135936   7.691   7.186   0.834
11898WAT     H235937   7.845   7.237   0.856
11899WAT      O35938   8.131   7.257   2.454
11899WAT     H135939   8.137   7.356   2.451
11899WAT     H235940   8.075   7.224   2.378
11900WAT      O35941   8.352   0.366   8.028
11900WAT     H135942   8.305   0.309   7.961
11900WAT     H235943   8.349   0.462   7.997
11901WAT      O35944   9.711   9.402   7.881
11901WAT     H135945   9.798   9.355   7.896
11901WAT     H235946   9.714   9.493   7.922
11902WAT      O35947   6.385   2.577   6.311
11902WAT     H135948   6.308   2.641   6.320
11902WAT     H235949   6.351   2.484   6.306
11903WAT      O35950   4.923   8.600   3.580
11903WAT     H135951   4.854   8.671   3.562
11903WAT     H235952   5.013   8.643   3.588
11904WAT      O35953   7.217   1.786   0.201
11904WAT     H135954   7.162   1.707   0.173
11904WAT     H235955   7.211   1.797   0.300
11905WAT      O35956   8.448   1.996   3.825
11905WAT     H135957   8.412   2.026   3.913
11905WAT     H235958   8.466   1.898   3.827
11906WAT      O35959   6.429   7.563   8.065
11906WAT     H135960   6.422   7.516   8.153
11906WAT     H235961   6.446   7.661   8.081
11907WAT      O35962   7.645   2.288   8.466
11907WAT     H135963   7.693   2.327   8.388
11907WAT     H235964   7.554   2.259   8.439
11908WAT      O35965   6.724   0.176   3.997
11908WAT     H135966   6.665   0.122   4.058
11908WAT     H235967   6.679   0.263   3.977
11909WAT      O35968   2.593   1.532   4.222
11909WAT     H135969   2.583   1.470   4.301
11909WAT     H235970   2.504   1.574   4.201
11910WAT      O35971   1.805   2.286   4.847
11910WAT     H135972   1.721   2.249   4.806
11910WAT     H235973   1.791   2.383   4.870
11911WAT      O35974   8.171   5.536   2.376
11911WAT     H135975   8.214   5.447   2.389
11911WAT     H235976   8.072   5.527   2.389
11912WAT      O35977   3.045   8.059   5.889
11912WAT     H135978   3.029   8.073   5.987
11912WAT     H235979   2.999   8.130   5.837
11913WAT      O35980   6.794   0.704   7.009
11913WAT     H135981   6.730   0.640   6.966
11913WAT     H235982   6.742   0.777   7.055
11914WAT      O35983   6.146   4.475   2.667
11914WAT     H135984   6.175   4.404   2.732
11914WAT     H235985   6.097   4.432   2.591
11915WAT      O35986   4.749   8.796   3.500
11915WAT     H135987   4.736   8.761   3.407
11915WAT     H235988   4.661   8.826   3.537
11916WAT      O35989   3.712   8.896   2.712
11916WAT     H135990   3.802   8.856   2.693
11916WAT     H235991   3.716   8.995   2.698
11917WAT      O35992   2.052   5.578   3.404
11917WAT     H135993   1.959   5.590   3.438
11917WAT     H235994   2.117   5.614   3.471
11918WAT      O35995   7.624   9.457   8.913
11918WAT     H135996   7.717   9.434   8.940
11918WAT     H235997   7.559   9.400   8.964
11919WAT      O35998   3.681   2.669   3.452
11919WAT     H135999   3.726   2.676   3.363
11919WAT     H236000   3.745   2.697   3.524
11920WAT      O36001   1.849   8.040   5.397
11920WAT     H136002   1.902   7.991   5.328
11920WAT     H236003   1.761   8.067   5.358
11921WAT      O36004   8.579   8.327   5.961
11921WAT     H136005   8.641   8.339   5.884
11921WAT     H236006   8.630   8.289   6.039
11922WAT      O36007   8.342   1.110   3.493
11922WAT     H136008   8.328   1.038   3.425
11922WAT     H236009   8.389   1.072   3.573
11923WAT      O36010   6.171   0.882   4.798
11923WAT     H136011   6.246   0.920   4.743
11923WAT     H236012   6.132   0.954   4.855
11924WAT      O36013   4.185   4.774   8.535
11924WAT     H136014   4.262   4.775   8.471
11924WAT     H236015   4.106   4.731   8.491
11925WAT      O36016   7.277   8.435   0.861
11925WAT     H136017   7.353   8.391   0.907
11925WAT     H236018   7.233   8.500   0.923
11926WAT      O36019   4.042   6.264   7.276
11926WAT     H136020   4.114   6.237   7.340
11926WAT     H236021   3.963   6.205   7.288
11927WAT      O36022   4.062   5.054   7.045
11927WAT     H136023   4.036   5.069   7.141
11927WAT     H236024   4.148   5.003   7.041
11928WAT      O36025   1.947   3.978   1.751
11928WAT     H136026   1.942   4.065   1.800
11928WAT     H236027   1.915   3.991   1.657
11929WAT      O36028   1.552   0.797   0.709
11929WAT     H136029   1.520   0.890   0.729
11929WAT     H236030   1.542   0.741   0.791
11930WAT      O36031   7.446   6.004   5.159
11930WAT     H136032   7.499   5.993   5.075
11930WAT     H236033   7.421   6.100   5.171
11931WAT      O36034   7.401   0.213   1.025
11931WAT     H136035   7.433   0.178   1.113
11931WAT     H236036   7.326   0.278   1.040
11932WAT      O36037   5.532   4.378   1.718
11932WAT     H136038   5.591   4.459   1.711
11932WAT     H236039   5.566   4.320   1.792
11933WAT      O36040   8.930   6.338   5.575
11933WAT     H136041   8.976   6.297   5.653
11933WAT     H236042   8.997   6.386   5.518
11934WAT      O36043   4.622   4.965   4.845
11934WAT     H136044   4.536   5.011   4.869
11934WAT     H236045   4.645   4.899   4.917
11935WAT      O36046   3.473   9.177   8.323
11935WAT     H136047   3.421   9.233   8.259
11935WAT     H236048   3.417   9.100   8.353
11936WAT      O36049   0.924   6.957   7.262
11936WAT     H136050   0.883   6.897   7.330
11936WAT     H236051   0.887   6.936   7.172
11937WAT      O36052   4.472   3.268   7.653
11937WAT     H136053   4.433   3.181   7.684
11937WAT     H236054   4.522   3.310   7.728
11938WAT      O36055   7.092   3.820   7.915
11938WAT     H136056   7.070   3.773   7.830
11938WAT     H236057   7.183   3.860   7.909
11939WAT      O36058   2.816   2.520   0.122
11939WAT     H136059   2.796   2.618   0.117
11939WAT     H236060   2.821   2.492   0.218
11940WAT      O36061   0.383   1.841   5.391
11940WAT     H136062   0.455   1.788   5.435
11940WAT     H236063   0.416   1.875   5.303
11941WAT      O36064   4.953   7.618   8.865
11941WAT     H136065   5.028   7.682   8.849
11941WAT     H236066   4.988   7.525   8.869
11942WAT      O36067   4.016   2.829   7.955
11942WAT     H136068   4.108   2.868   7.943
11942WAT     H236069   4.005   2.751   7.894
11943WAT      O36070   4.246   1.529   2.804
11943WAT     H136071   4.272   1.433   2.812
11943WAT     H236072   4.310   1.585   2.857
11944WAT      O36073   8.557   7.020   9.289
11944WAT     H136074   8.649   7.005   9.253
11944WAT     H236075   8.528   7.114   9.267
11945WAT      O36076   6.810   4.738   9.040
11945WAT     H136077   6.769   4.704   9.125
11945WAT     H236078   6.775   4.686   8.963
11946WAT      O36079   5.279   8.711   8.905
11946WAT     H136080   5.295   8.660   8.821
11946WAT     H236081   5.243   8.650   8.975
11947WAT      O36082   0.275   0.466   6.131
11947WAT     H136083   0.310   0.532   6.198
11947WAT     H236084   0.309   0.490   6.040
11948WAT      O36085   7.058   3.795   2.020
11948WAT     H136086   6.967   3.829   2.044
11948WAT     H236087   7.085   3.725   2.085
11949WAT      O36088   0.472   7.536   9.200
11949WAT     H136089   0.570   7.546   9.219
11949WAT     H236090   0.424   7.510   9.284
11950WAT      O36091   8.921   9.190   9.289
11950WAT     H136092   8.835   9.163   9.247
11950WAT     H236093   8.990   9.204   9.218
11951WAT      O36094   3.185   0.587   7.536
11951WAT     H136095   3.226   0.609   7.447
11951WAT     H236096   3.128   0.505   7.527
11952WAT      O36097   3.027   2.995   6.824
11952WAT     H136098   2.937   2.979   6.786
11952WAT     H236099   3.094   2.938   6.777
11953WAT      O36100   8.371   3.144   8.108
11953WAT     H136101   8.415   3.177   8.025
11953WAT     H236102   8.384   3.045   8.116
11954WAT      O36103   9.823   9.116   8.828
11954WAT     H136104   9.794   9.041   8.888
11954WAT     H236105   9.884   9.079   8.758
11955WAT      O36106   7.393   7.958   7.955
11955WAT     H136107   7.319   7.953   7.888
11955WAT     H236108   7.464   8.021   7.923
11956WAT      O36109   3.585   0.439   6.076
11956WAT     H136110   3.594   0.388   5.990
11956WAT     H236111   3.653   0.406   6.141
11957WAT      O36112   5.906   2.476   3.489
11957WAT     H136113   5.960   2.514   3.565
11957WAT     H236114   5.877   2.384   3.513
11958WAT      O36115   9.604   9.785   2.669
11958WAT     H136116   9.695   9.804   2.704
11958WAT     H236117   9.568   9.866   2.622
11959WAT      O36118   1.774   1.907   7.288
11959WAT     H136119   1.800   1.960   7.208
11959WAT     H236120   1.806   1.813   7.278
11960WAT      O36121   9.670   1.787   7.406
11960WAT     H136122   9.625   1.710   7.451
11960WAT     H236123   9.752   1.754   7.359
11961WAT      O36124   8.818   2.716   2.077
11961WAT     H136125   8.748   2.703   2.006
11961WAT     H236126   8.889   2.646   2.066
11962WAT      O36127   8.370   7.897   1.465
11962WAT     H136128   8.330   7.851   1.386
11962WAT     H236129   8.358   7.839   1.546
11963WAT      O36130   1.436   5.607   1.859
11963WAT     H136131   1.342   5.614   1.892
11963WAT     H236132   1.435   5.593   1.760
11964WAT      O36133   3.907   7.918   1.694
11964WAT     H136134   3.982   7.942   1.756
11964WAT     H236135   3.824   7.967   1.722
11965WAT      O36136   0.314   2.571   0.526
11965WAT     H136137   0.214   2.573   0.520
11965WAT     H236138   0.343   2.623   0.606
11966WAT      O36139   7.005   3.117   2.758
11966WAT     H136140   7.103   3.133   2.750
11966WAT     H236141   6.974   3.064   2.680
11967WAT      O36142   2.524   8.220   6.935
11967WAT     H136143   2.503   8.214   7.033
11967WAT     H236144   2.506   8.313   6.903
11968WAT      O36145   1.760   2.939   7.341
11968WAT     H136146   1.855   2.911   7.325
11968WAT     H236147   1.738   3.018   7.284
11969WAT      O36148   7.266   7.049   5.529
11969WAT     H136149   7.191   6.988   5.554
11969WAT     H236150   7.228   7.132   5.487
11970WAT      O36151   2.720   9.273   8.154
11970WAT     H136152   2.806   9.252   8.200
11970WAT     H236153   2.737   9.342   8.083
11971WAT      O36154   9.051   7.374   8.920
11971WAT     H136155   9.133   7.402   8.971
11971WAT     H236156   9.064   7.393   8.823
11972WAT      O36157   8.384   2.936   4.329
11972WAT     H136158   8.347   2.888   4.409
11972WAT     H236159   8.409   3.029   4.355
11973WAT      O36160   2.746   0.424   3.424
11973WAT     H136161   2.792   0.394   3.341
11973WAT     H236162   2.811   0.469   3.485
11974WAT      O36163   8.808   0.818   6.115
11974WAT     H136164   8.758   0.842   6.032
11974WAT     H236165   8.899   0.859   6.113
11975WAT      O36166   3.237   5.101   7.659
11975WAT     H136167   3.217   5.016   7.612
11975WAT     H236168   3.325   5.095   7.705
11976WAT      O36169   1.599   9.085   7.016
11976WAT     H136170   1.683   9.113   7.063
11976WAT     H236171   1.621   9.021   6.943
11977WAT      O36172   3.164   5.589   1.254
11977WAT     H136173   3.206   5.591   1.163
11977WAT     H236174   3.163   5.496   1.289
11978WAT      O36175   7.822   8.662   2.734
11978WAT     H136176   7.846   8.697   2.825
11978WAT     H236177   7.763   8.582   2.743
11979WAT      O36178   9.656   4.438   2.756
11979WAT     H136179   9.645   4.385   2.840
11979WAT     H236180   9.566   4.471   2.726
11980WAT      O36181   8.075   8.931   3.148
11980WAT     H136182   8.141   8.987   3.199
11980WAT     H236183   8.099   8.931   3.051
11981WAT      O36184   4.915   9.114   1.832
11981WAT     H136185   4.999   9.097   1.780
11981WAT     H236186   4.889   9.031   1.881
11982WAT      O36187   1.471   7.644   2.946
11982WAT     H136188   1.397   7.706   2.974
11982WAT     H236189   1.487   7.654   2.848
11983WAT      O36190   1.156   6.739   1.724
11983WAT     H136191   1.239   6.760   1.776
11983WAT     H236192   1.151   6.797   1.643
11984WAT      O36193   3.714   9.663   1.348
11984WAT     H136194   3.660   9.730   1.399
11984WAT     H236195   3.790   9.709   1.302
11985WAT      O36196   3.015   6.190   9.746
11985WAT     H136197   3.007   6.093   9.771
11985WAT     H236198   3.008   6.199   9.646
11986WAT      O36199   9.017   9.249   6.929
11986WAT     H136200   9.039   9.311   7.005
11986WAT     H236201   9.082   9.173   6.928
11987WAT      O36202   6.243   0.793   7.136
11987WAT     H136203   6.225   0.816   7.232
11987WAT     H236204   6.166   0.741   7.099
11988WAT      O36205   1.914   9.051   4.943
11988WAT     H136206   1.925   8.974   4.880
11988WAT     H236207   1.818   9.080   4.943
11989WAT      O36208   6.565   6.506   0.885
11989WAT     H136209   6.575   6.569   0.808
11989WAT     H236210   6.502   6.432   0.860
11990WAT      O36211   5.850   8.333   2.195
11990WAT     H136212   5.871   8.318   2.291
11990WAT     H236213   5.834   8.430   2.179
11991WAT      O36214   9.012   3.010   4.463
11991WAT     H136215   8.955   2.938   4.422
11991WAT     H236216   9.098   3.018   4.413
11992WAT      O36217   0.153   3.880   3.623
11992WAT     H136218   0.195   3.889   3.713
11992WAT     H236219   0.112   3.968   3.596
11993WAT      O36220   5.817   3.238   9.156
11993WAT     H136221   5.745   3.234   9.225
11993WAT     H236222   5.822   3.330   9.117
11994WAT      O36223   5.341   5.665   9.134
11994WAT     H136224   5.265   5.627   9.186
11994WAT     H236225   5.388   5.734   9.189
11995WAT      O36226   3.228   7.605   6.258
11995WAT     H136227   3.206   7.508   6.257
11995WAT     H236228   3.325   7.617   6.278
11996WAT      O36229   6.635   5.773   7.445
11996WAT     H136230   6.634   5.689   7.498
11996WAT     H236231   6.560   5.771   7.378
11997WAT      O36232   1.317   9.529   4.954
11997WAT     H136233   1.371   9.602   4.911
11997WAT     H236234   1.226   9.527   4.912
11998WAT      O36235   9.317   9.629   8.184
11998WAT     H136236   9.248   9.646   8.114
11998WAT     H236237   9.306   9.536   8.220
11999WAT      O36238   8.240   8.688   1.967
11999WAT     H136239   8.189   8.644   2.042
11999WAT     H236240   8.237   8.629   1.887
12000WAT      O36241   6.186   6.592   1.458
12000WAT     H136242   6.124   6.669   1.472
12000WAT     H236243   6.280   6.622   1.469
12001WAT      O36244   0.548   4.018   7.168
12001WAT     H136245   0.592   3.999   7.080
12001WAT     H236246   0.612   4.066   7.228
12002WAT      O36247   3.760   7.890   0.979
12002WAT     H136248   3.667   7.870   0.948
12002WAT     H236249   3.813   7.928   0.902
12003WAT      O36250   9.444   8.797   3.571
12003WAT     H136251   9.470   8.888   3.541
12003WAT     H236252   9.389   8.752   3.500
12004WAT      O36253   4.171   3.409   2.404
12004WAT     H136254   4.071   3.411   2.411
12004WAT     H236255   4.202   3.314   2.404
12005WAT      O36256   7.923   6.208   3.861
12005WAT     H136257   7.950   6.123   3.816
12005WAT     H236258   7.975   6.284   3.821
12006WAT      O36259   9.763   8.196   1.354
12006WAT     H136260   9.724   8.245   1.432
12006WAT     H236261   9.748   8.098   1.366
12007WAT      O36262   8.841   9.345   7.452
12007WAT     H136263   8.869   9.258   7.412
12007WAT     H236264   8.921   9.402   7.467
12008WAT      O36265   8.006   3.042   7.242
12008WAT     H136266   8.075   3.077   7.305
12008WAT     H236267   7.942   3.116   7.219
12009WAT      O36268   7.376   5.285   4.711
12009WAT     H136269   7.444   5.338   4.762
12009WAT     H236270   7.346   5.337   4.631
12010WAT      O36271   8.014   7.453   3.183
12010WAT     H136272   7.935   7.423   3.237
12010WAT     H236273   8.038   7.382   3.116
12011WAT      O36274   3.800   9.080   4.870
12011WAT     H136275   3.842   9.072   4.780
12011WAT     H236276   3.871   9.103   4.937
12012WAT      O36277   8.659   5.593   0.251
12012WAT     H136278   8.725   5.545   0.193
12012WAT     H236279   8.669   5.560   0.345
12013WAT      O36280   8.029   7.193   5.504
12013WAT     H136281   8.013   7.226   5.411
12013WAT     H236282   8.024   7.269   5.568
12014WAT      O36283   6.695   5.704   0.984
12014WAT     H136284   6.680   5.701   0.885
12014WAT     H236285   6.653   5.624   1.026
12015WAT      O36286   2.969   7.659   6.622
12015WAT     H136287   2.911   7.578   6.634
12015WAT     H236288   2.938   7.711   6.543
12016WAT      O36289   0.725   5.755   6.507
12016WAT     H136290   0.758   5.765   6.413
12016WAT     H236291   0.651   5.820   6.524
12017WAT      O36292   8.337   7.420   3.102
12017WAT     H136293   8.249   7.398   3.059
12017WAT     H236294   8.335   7.514   3.136
12018WAT      O36295   0.300   7.572   8.959
12018WAT     H136296   0.374   7.554   9.024
12018WAT     H236297   0.225   7.618   9.006
12019WAT      O36298   5.076   2.621   3.931
12019WAT     H136299   5.033   2.536   3.900
12019WAT     H236300   5.114   2.670   3.852
12020WAT      O36301   3.315   1.486   9.576
12020WAT     H136302   3.383   1.414   9.594
12020WAT     H236303   3.296   1.535   9.661
12021WAT      O36304   9.666   7.862   3.335
12021WAT     H136305   9.687   7.892   3.428
12021WAT     H236306   9.612   7.778   3.338
12022WAT      O36307   6.716   1.797   5.451
12022WAT     H136308   6.811   1.808   5.481
12022WAT     H236309   6.689   1.701   5.461
12023WAT      O36310   1.166   5.819   5.702
12023WAT     H136311   1.257   5.851   5.675
12023WAT     H236312   1.101   5.836   5.628
12024WAT      O36313   4.261   4.189   8.384
12024WAT     H136314   4.290   4.284   8.394
12024WAT     H236315   4.178   4.186   8.329
12025WAT      O36316   9.719   3.999   0.371
12025WAT     H136317   9.692   3.923   0.312
12025WAT     H236318   9.705   3.974   0.467
12026WAT      O36319   2.353   2.281   5.180
12026WAT     H136320   2.393   2.190   5.183
12026WAT     H236321   2.297   2.295   5.262
12027WAT      O36322   7.726   0.138   9.535
12027WAT     H136323   7.727   0.089   9.448
12027WAT     H236324   7.635   0.129   9.577
12028WAT      O36325   5.664   6.095   6.085
12028WAT     H136326   5.729   6.027   6.052
12028WAT     H236327   5.580   6.089   6.032
12029WAT      O36328   1.672   4.929   6.923
12029WAT     H136329   1.610   4.855   6.898
12029WAT     H236330   1.711   4.910   7.013
12030WAT      O36331   5.515   5.345   1.101
12030WAT     H136332   5.546   5.261   1.146
12030WAT     H236333   5.485   5.411   1.170
12031WAT      O36334   1.437   6.841   6.157
12031WAT     H136335   1.348   6.834   6.113
12031WAT     H236336   1.430   6.808   6.251
12032WAT      O36337   0.288   9.600   4.540
12032WAT     H136338   0.257   9.531   4.475
12032WAT     H236339   0.384   9.623   4.523
12033WAT      O36340   3.001   1.035   5.661
12033WAT     H136341   3.094   0.998   5.673
12033WAT     H236342   3.006   1.134   5.652
12034WAT      O36343   2.028   6.091   8.827
12034WAT     H136344   2.013   6.092   8.728
12034WAT     H236345   1.980   6.013   8.867
12035WAT      O36346   7.935   0.226   3.178
12035WAT     H136347   7.879   0.305   3.202
12035WAT     H236348   7.878   0.144   3.174
12036WAT      O36349   1.606   6.392   1.215
12036WAT     H136350   1.629   6.388   1.312
12036WAT     H236351   1.626   6.304   1.172
12037WAT      O36352   2.759   2.017   1.161
12037WAT     H136353   2.811   2.087   1.209
12037WAT     H236354   2.771   1.929   1.206
12038WAT      O36355   3.768   6.682   2.132
12038WAT     H136356   3.729   6.752   2.072
12038WAT     H236357   3.862   6.708   2.155
12039WAT      O36358   8.601   3.192   0.678
12039WAT     H136359   8.565   3.101   0.696
12039WAT     H236360   8.658   3.190   0.595
12040WAT      O36361   4.238   4.598   1.177
12040WAT     H136362   4.308   4.551   1.231
12040WAT     H236363   4.276   4.621   1.087
12041WAT      O36364   0.925   3.200   5.914
12041WAT     H136365   0.959   3.292   5.897
12041WAT     H236366   0.853   3.178   5.848
12042WAT      O36367   0.195   0.621   9.734
12042WAT     H136368   0.236   0.547   9.681
12042WAT     H236369   0.115   0.587   9.783
12043WAT      O36370   4.137   7.918   8.966
12043WAT     H136371   4.193   7.995   8.995
12043WAT     H236372   4.054   7.914   9.022
12044WAT      O36373   9.765   5.872   5.939
12044WAT     H136374   9.836   5.803   5.954
12044WAT     H236375   9.808   5.961   5.925
12045WAT      O36376   6.833   2.651   3.358
12045WAT     H136377   6.805   2.567   3.310
12045WAT     H236378   6.880   2.627   3.442
12046WAT      O36379   2.585   2.828   7.856
12046WAT     H136380   2.504   2.860   7.906
12046WAT     H236381   2.667   2.862   7.902
12047WAT      O36382   2.006   6.066   5.908
12047WAT     H136383   2.050   5.993   5.855
12047WAT     H236384   1.925   6.029   5.954
12048WAT      O36385   1.703   3.289   1.889
12048WAT     H136386   1.669   3.382   1.878
12048WAT     H236387   1.761   3.265   1.811
12049WAT      O36388   9.179   5.683   0.109
12049WAT     H136389   9.106   5.749   0.123
12049WAT     H236390   9.143   5.604   0.058
12050WAT      O36391   2.246   7.193   3.302
12050WAT     H136392   2.319   7.153   3.247
12050WAT     H236393   2.256   7.165   3.398
12051WAT      O36394   5.936   0.928   5.155
12051WAT     H136395   5.852   0.973   5.186
12051WAT     H236396   5.986   0.892   5.234
12052WAT      O36397   0.271   0.246   1.381
12052WAT     H136398   0.317   0.194   1.453
12052WAT     H236399   0.339   0.293   1.325
12053WAT      O36400   9.277   4.904   9.486
12053WAT     H136401   9.224   4.986   9.503
12053WAT     H236402   9.216   4.829   9.459
12054WAT      O36403   2.723   4.981   7.778
12054WAT     H136404   2.646   4.924   7.751
12054WAT     H236405   2.701   5.078   7.762
12055WAT      O36406   4.690   0.908   6.631
12055WAT     H136407   4.708   0.813   6.657
12055WAT     H236408   4.703   0.918   6.533
12056WAT      O36409   7.743   1.372   3.753
12056WAT     H136410   7.689   1.446   3.793
12056WAT     H236411   7.701   1.284   3.777
12057WAT      O36412   0.970   3.907   6.867
12057WAT     H136413   1.031   3.894   6.946
12057WAT     H236414   0.943   3.818   6.831
12058WAT      O36415   0.315   1.270   4.757
12058WAT     H136416   0.329   1.353   4.704
12058WAT     H236417   0.293   1.293   4.852
12059WAT      O36418   6.123   7.689   8.023
12059WAT     H136419   6.134   7.593   7.995
12059WAT     H236420   6.083   7.693   8.114
12060WAT      O36421   1.070   9.479   2.389
12060WAT     H136422   1.008   9.533   2.445
12060WAT     H236423   1.093   9.529   2.306
12061WAT      O36424   5.349   8.058   1.193
12061WAT     H136425   5.366   8.026   1.287
12061WAT     H236426   5.436   8.070   1.146
12062WAT      O36427   4.016   0.083   5.537
12062WAT     H136428   3.928   0.047   5.569
12062WAT     H236429   4.002   0.172   5.493
12063WAT      O36430   2.721   1.544   3.787
12063WAT     H136431   2.676   1.609   3.848
12063WAT     H236432   2.773   1.478   3.842
12064WAT      O36433   8.788   6.599   0.297
12064WAT     H136434   8.771   6.595   0.395
12064WAT     H236435   8.866   6.542   0.273
12065WAT      O36436   4.736   5.485   8.597
12065WAT     H136437   4.763   5.536   8.515
12065WAT     H236438   4.657   5.529   8.639
12066WAT      O36439   8.472   3.889   9.019
12066WAT     H136440   8.546   3.822   9.030
12066WAT     H236441   8.421   3.868   8.935
12067WAT      O36442   2.853   7.719   4.097
12067WAT     H136443   2.897   7.630   4.082
12067WAT     H236444   2.792   7.714   4.176
12068WAT      O36445   4.168   7.403   8.255
12068WAT     H136446   4.254   7.355   8.239
12068WAT     H236447   4.095   7.337   8.270
12069WAT      O36448   0.654   3.543   6.693
12069WAT     H136449   0.733   3.483   6.706
12069WAT     H236450   0.571   3.488   6.684
12070WAT      O36451   5.926   0.726   4.778
12070WAT     H136452   5.914   0.627   4.767
12070WAT     H236453   6.024   0.748   4.771
12071WAT      O36454   9.085   5.192   6.283
12071WAT     H136455   8.995   5.214   6.246
12071WAT     H236456   9.078   5.180   6.382
12072WAT      O36457   6.677   2.894   2.702
12072WAT     H136458   6.719   2.880   2.791
12072WAT     H236459   6.630   2.983   2.700
12073WAT      O36460   5.964   8.818   2.346
12073WAT     H136461   6.026   8.868   2.406
12073WAT     H236462   5.908   8.755   2.400
12074WAT      O36463   3.204   5.162   8.076
12074WAT     H136464   3.227   5.072   8.115
12074WAT     H236465   3.278   5.191   8.015
12075WAT      O36466   2.740   7.427   4.888
12075WAT     H136467   2.728   7.366   4.966
12075WAT     H236468   2.817   7.488   4.905
12076WAT      O36469   9.684   6.367   3.672
12076WAT     H136470   9.759   6.343   3.733
12076WAT     H236471   9.699   6.326   3.582
12077WAT      O36472   5.083   6.998   4.116
12077WAT     H136473   5.059   7.026   4.209
12077WAT     H236474   5.000   6.977   4.065
12078WAT      O36475   4.375   4.238   6.984
12078WAT     H136476   4.364   4.153   6.932
12078WAT     H236477   4.366   4.316   6.923
12079WAT      O36478   8.777   1.359   0.012
12079WAT     H136479   8.785   1.289  -0.059
12079WAT     H236480   8.712   1.430  -0.018
12080WAT      O36481   7.315   9.318   2.464
12080WAT     H136482   7.258   9.280   2.537
12080WAT     H236483   7.272   9.301   2.375
12081WAT      O36484   8.583   0.066   1.618
12081WAT     H136485   8.604  -0.002   1.548
12081WAT     H236486   8.645   0.144   1.609
12082WAT      O36487   8.451   8.439   7.749
12082WAT     H136488   8.502   8.369   7.699
12082WAT     H236489   8.514   8.509   7.782
12083WAT      O36490   1.557   4.899   8.668
12083WAT     H136491   1.630   4.959   8.701
12083WAT     H236492   1.597   4.817   8.628
12084WAT      O36493   9.560   5.073   3.506
12084WAT     H136494   9.606   5.152   3.544
12084WAT     H236495   9.477   5.054   3.558
12085WAT      O36496   2.345   9.829   4.550
12085WAT     H136497   2.319   9.755   4.487
12085WAT     H236498   2.268   9.847   4.612
12086WAT      O36499   4.378   6.944   7.841
12086WAT     H136500   4.281   6.948   7.867
12086WAT     H236501   4.386   6.955   7.742
12087WAT      O36502   6.216   3.232   7.348
12087WAT     H136503   6.126   3.271   7.327
12087WAT     H236504   6.272   3.233   7.265
12088WAT      O36505   4.334   0.169   4.494
12088WAT     H136506   4.295   0.253   4.532
12088WAT     H236507   4.350   0.104   4.568
12089WAT      O36508   3.916   0.992   8.870
12089WAT     H136509   4.009   1.022   8.891
12089WAT     H236510   3.919   0.904   8.823
12090WAT      O36511   1.518   2.390   6.237
12090WAT     H136512   1.535   2.341   6.323
12090WAT     H236513   1.587   2.462   6.226
12091WAT      O36514   0.639   6.020   9.448
12091WAT     H136515   0.612   5.954   9.377
12091WAT     H236516   0.561   6.077   9.472
12092WAT      O36517   8.421   1.129   1.875
12092WAT     H136518   8.515   1.116   1.904
12092WAT     H236519   8.390   1.221   1.898
12093WAT      O36520   8.411   5.857   7.260
12093WAT     H136521   8.474   5.823   7.190
12093WAT     H236522   8.444   5.831   7.350
12094WAT      O36523   8.133   8.881   8.822
12094WAT     H136524   8.086   8.801   8.787
12094WAT     H236525   8.209   8.904   8.761
12095WAT      O36526   1.653   3.069   3.106
12095WAT     H136527   1.562   3.027   3.102
12095WAT     H236528   1.651   3.147   3.169
12096WAT      O36529   0.353   2.250   0.758
12096WAT     H136530   0.417   2.327   0.763
12096WAT     H236531   0.345   2.208   0.848
12097WAT      O36532   7.996   7.131   2.653
12097WAT     H136533   8.002   7.032   2.639
12097WAT     H236534   8.029   7.178   2.572
12098WAT      O36535   4.028   3.884   2.163
12098WAT     H136536   3.990   3.791   2.167
12098WAT     H236537   3.954   3.951   2.173
12099WAT      O36538   8.142   4.524   1.296
12099WAT     H136539   8.206   4.480   1.358
12099WAT     H236540   8.049   4.517   1.333
12100WAT      O36541   0.626   4.902   4.337
12100WAT     H136542   0.560   4.946   4.398
12100WAT     H236543   0.610   4.803   4.336
12101WAT      O36544   0.582   0.828   6.436
12101WAT     H136545   0.581   0.804   6.533
12101WAT     H236546   0.644   0.768   6.388
12102WAT      O36547   8.879   3.946   1.655
12102WAT     H136548   8.917   3.926   1.746
12102WAT     H236549   8.934   3.901   1.585
12103WAT      O36550   8.787   6.840   5.183
12103WAT     H136551   8.816   6.795   5.267
12103WAT     H236552   8.724   6.781   5.133
12104WAT      O36553   7.982   9.601   7.719
12104WAT     H136554   7.934   9.665   7.659
12104WAT     H236555   7.958   9.621   7.814
12105WAT      O36556   8.643   9.566   0.732
12105WAT     H136557   8.583   9.576   0.811
12105WAT     H236558   8.592   9.584   0.649
12106WAT      O36559   4.878   0.595   9.089
12106WAT     H136560   4.919   0.685   9.073
12106WAT     H236561   4.840   0.560   9.004
12107WAT      O36562   7.170   3.213   0.969
12107WAT     H136563   7.143   3.193   1.063
12107WAT     H236564   7.269   3.224   0.965
12108WAT      O36565   1.919   7.790   1.162
12108WAT     H136566   1.822   7.766   1.155
12108WAT     H236567   1.938   7.869   1.104
12109WAT      O36568   5.642   1.627   3.746
12109WAT     H136569   5.718   1.659   3.803
12109WAT     H236570   5.674   1.616   3.652
12110WAT      O36571   8.650   7.773   4.256
12110WAT     H136572   8.715   7.792   4.329
12110WAT     H236573   8.560   7.754   4.296
12111WAT      O36574   8.778   7.828   0.836
12111WAT     H136575   8.817   7.920   0.829
12111WAT     H236576   8.699   7.819   0.776
12112WAT      O36577   8.935   7.084   2.703
12112WAT     H136578   9.011   7.066   2.765
12112WAT     H236579   8.889   7.169   2.731
12113WAT      O36580   6.714   1.074   3.647
12113WAT     H136581   6.738   1.020   3.566
12113WAT     H236582   6.659   1.152   3.620
12114WAT      O36583   7.484   8.390   1.499
12114WAT     H136584   7.502   8.302   1.455
12114WAT     H236585   7.491   8.379   1.598
12115WAT      O36586   8.683   2.575   8.186
12115WAT     H136587   8.697   2.663   8.232
12115WAT     H236588   8.732   2.575   8.099
12116WAT      O36589   2.888   9.672   4.930
12116WAT     H136590   2.936   9.737   4.870
12116WAT     H236591   2.789   9.681   4.918
12117WAT      O36592   3.481   4.327   9.504
12117WAT     H136593   3.462   4.317   9.602
12117WAT     H236594   3.395   4.328   9.453
12118WAT      O36595   3.729   0.013   0.011
12118WAT     H136596   3.764   0.085   0.071
12118WAT     H236597   3.783  -0.070   0.023
12119WAT      O36598   2.598   0.385   9.679
12119WAT     H136599   2.653   0.303   9.662
12119WAT     H236600   2.531   0.366   9.750
12120WAT      O36601   8.253   4.118   6.997
12120WAT     H136602   8.196   4.038   7.017
12120WAT     H236603   8.342   4.107   7.042
12121WAT      O36604   7.495   9.779   7.027
12121WAT     H136605   7.543   9.858   6.989
12121WAT     H236606   7.554   9.698   7.023
12122WAT      O36607   9.576   6.797   7.695
12122WAT     H136608   9.526   6.790   7.608
12122WAT     H236609   9.579   6.892   7.724
12123WAT      O36610   0.445   8.814   5.098
12123WAT     H136611   0.534   8.774   5.119
12123WAT     H236612   0.390   8.817   5.182
12124WAT      O36613   9.662   5.131   8.010
12124WAT     H136614   9.706   5.042   8.010
12124WAT     H236615   9.678   5.177   7.922
12125WAT      O36616   6.772   9.643   4.691
12125WAT     H136617   6.858   9.619   4.646
12125WAT     H236618   6.790   9.670   4.786
12126WAT      O36619   8.291   2.679   5.815
12126WAT     H136620   8.277   2.623   5.733
12126WAT     H236621   8.355   2.633   5.877
12127WAT      O36622   8.647   9.522   6.555
12127WAT     H136623   8.737   9.555   6.527
12127WAT     H236624   8.577   9.584   6.521
12128WAT      O36625   5.944   9.463   9.026
12128WAT     H136626   5.854   9.508   9.028
12128WAT     H236627   5.948   9.393   9.097
12129WAT      O36628   8.845   3.112   6.481
12129WAT     H136629   8.788   3.175   6.534
12129WAT     H236630   8.934   3.103   6.524
12130WAT      O36631   7.775   0.867   7.937
12130WAT     H136632   7.818   0.809   8.007
12130WAT     H236633   7.794   0.963   7.956
12131WAT      O36634   1.151   6.364   6.383
12131WAT     H136635   1.176   6.387   6.289
12131WAT     H236636   1.100   6.439   6.424
12132WAT      O36637   8.689   0.645   3.001
12132WAT     H136638   8.740   0.688   2.926
12132WAT     H236639   8.615   0.706   3.029
12133WAT      O36640   8.506   0.454   5.223
12133WAT     H136641   8.414   0.427   5.250
12133WAT     H236642   8.536   0.532   5.278
12134WAT      O36643   3.162   1.733   2.064
12134WAT     H136644   3.133   1.650   2.017
12134WAT     H236645   3.259   1.725   2.087
12135WAT      O36646   2.796   6.208   9.425
12135WAT     H136647   2.850   6.126   9.442
12135WAT     H236648   2.854   6.278   9.382
12136WAT      O36649   7.857   1.922   7.956
12136WAT     H136650   7.915   1.983   7.903
12136WAT     H236651   7.823   1.849   7.896
12137WAT      O36652   5.688   8.166   3.477
12137WAT     H136653   5.745   8.239   3.440
12137WAT     H236654   5.598   8.202   3.500
12138WAT      O36655   5.793   1.068   9.530
12138WAT     H136656   5.835   1.158   9.540
12138WAT     H236657   5.828   1.024   9.447
12139WAT      O36658   5.301   1.103   6.841
12139WAT     H136659   5.292   1.202   6.848
12139WAT     H236660   5.239   1.069   6.770
12140WAT      O36661   5.356   1.403   5.448
12140WAT     H136662   5.269   1.392   5.496
12140WAT     H236663   5.352   1.353   5.361
12141WAT      O36664   2.350   2.239   6.639
12141WAT     H136665   2.280   2.171   6.614
12141WAT     H236666   2.369   2.298   6.561
12142WAT      O36667   5.475   9.706   8.274
12142WAT     H136668   5.400   9.771   8.289
12142WAT     H236669   5.444   9.614   8.295
12143WAT      O36670   1.959   2.249   4.567
12143WAT     H136671   2.046   2.209   4.538
12143WAT     H236672   1.930   2.207   4.653
12144WAT      O36673   2.105   6.639   5.181
12144WAT     H136674   2.089   6.564   5.117
12144WAT     H236675   2.139   6.719   5.132
12145WAT      O36676   5.254   5.356   0.105
12145WAT     H136677   5.170   5.309   0.130
12145WAT     H236678   5.296   5.395   0.186
12146WAT      O36679   2.654   7.911   5.941
12146WAT     H136680   2.624   7.997   5.901
12146WAT     H236681   2.586   7.840   5.921
12147WAT      O36682   4.833   4.963   1.211
12147WAT     H136683   4.824   4.867   1.187
12147WAT     H236684   4.743   5.002   1.230
12148WAT      O36685   4.582   7.621   3.279
12148WAT     H136686   4.508   7.562   3.310
12148WAT     H236687   4.559   7.659   3.189
12149WAT      O36688   1.736   9.724   2.579
12149WAT     H136689   1.810   9.689   2.522
12149WAT     H236690   1.773   9.755   2.666
12150WAT      O36691   9.285   5.077   4.152
12150WAT     H136692   9.375   5.101   4.187
12150WAT     H236693   9.295   5.028   4.065
12151WAT      O36694   3.165   4.457   7.622
12151WAT     H136695   3.126   4.365   7.613
12151WAT     H236696   3.237   4.455   7.691
12152WAT      O36697   2.416   7.980   0.374
12152WAT     H136698   2.498   7.966   0.320
12152WAT     H236699   2.440   7.979   0.472
12153WAT      O36700   3.771   6.579   6.750
12153WAT     H136701   3.694   6.527   6.786
12153WAT     H236702   3.743   6.672   6.729
12154WAT      O36703   2.388   7.624   3.188
12154WAT     H136704   2.346   7.564   3.256
12154WAT     H236705   2.320   7.690   3.155
12155WAT      O36706   2.195   0.489   2.874
12155WAT     H136707   2.251   0.568   2.900
12155WAT     H236708   2.253   0.409   2.863
12156WAT      O36709   3.433   3.764   1.557
12156WAT     H136710   3.454   3.829   1.630
12156WAT     H236711   3.502   3.771   1.485
12157WAT      O36712   5.951   3.522   3.632
12157WAT     H136713   6.048   3.502   3.638
12157WAT     H236714   5.899   3.451   3.679
12158WAT      O36715   8.076   4.915   6.818
12158WAT     H136716   8.002   4.913   6.751
12158WAT     H236717   8.038   4.902   6.910
12159WAT      O36718   3.186   6.464   3.119
12159WAT     H136719   3.164   6.419   3.033
12159WAT     H236720   3.236   6.401   3.178
12160WAT      O36721   3.133   8.355   5.714
12160WAT     H136722   3.227   8.341   5.683
12160WAT     H236723   3.130   8.363   5.813
12161WAT      O36724   6.179   0.873   4.023
12161WAT     H136725   6.258   0.909   3.973
12161WAT     H236726   6.128   0.948   4.064
12162WAT      O36727   2.263   0.794   8.844
12162WAT     H136728   2.357   0.771   8.818
12162WAT     H236729   2.263   0.875   8.903
12163WAT      O36730   1.963   4.243   6.660
12163WAT     H136731   2.008   4.154   6.670
12163WAT     H236732   1.875   4.241   6.709
12164WAT      O36733   4.190   5.472   9.556
12164WAT     H136734   4.199   5.410   9.479
12164WAT     H236735   4.184   5.419   9.641
12165WAT      O36736   8.874   0.949   0.878
12165WAT     H136737   8.839   1.042   0.889
12165WAT     H236738   8.822   0.887   0.937
12166WAT      O36739   0.082   8.857   8.466
12166WAT     H136740   0.127   8.851   8.377
12166WAT     H236741  -0.017   8.849   8.455
12167WAT      O36742   1.308   1.147   2.616
12167WAT     H136743   1.298   1.061   2.567
12167WAT     H236744   1.369   1.135   2.694
12168WAT      O36745   6.589   0.412   3.929
12168WAT     H136746   6.641   0.491   3.895
12168WAT     H236747   6.526   0.442   4.001
12169WAT      O36748   9.053   8.578   6.859
12169WAT     H136749   9.017   8.488   6.833
12169WAT     H236750   9.048   8.640   6.780
12170WAT      O36751   8.075   1.853   8.097
12170WAT     H136752   8.147   1.865   8.029
12170WAT     H236753   7.990   1.894   8.064
12171WAT      O36754   7.833   5.379   3.751
12171WAT     H136755   7.762   5.345   3.813
12171WAT     H236756   7.822   5.335   3.662
12172WAT      O36757   8.177   6.557   6.390
12172WAT     H136758   8.158   6.617   6.313
12172WAT     H236759   8.267   6.515   6.378
12173WAT      O36760   3.034   9.563   2.358
12173WAT     H136761   2.972   9.621   2.305
12173WAT     H236762   2.994   9.471   2.366
12174WAT      O36763   0.245   2.116   6.676
12174WAT     H136764   0.324   2.073   6.722
12174WAT     H236765   0.238   2.211   6.705
12175WAT      O36766   9.545   0.043   7.917
12175WAT     H136767   9.594  -0.014   7.851
12175WAT     H236768   9.536  -0.006   8.004
12176WAT      O36769   4.417   5.550   8.250
12176WAT     H136770   4.375   5.620   8.192
12176WAT     H236771   4.452   5.593   8.333
12177WAT      O36772   9.717   9.223   1.355
12177WAT     H136773   9.755   9.153   1.415
12177WAT     H236774   9.757   9.311   1.377
12178WAT      O36775   6.185   5.004   0.992
12178WAT     H136776   6.145   4.953   1.069
12178WAT     H236777   6.282   4.980   0.983
12179WAT      O36778   7.094   3.309   3.772
12179WAT     H136779   7.082   3.299   3.871
12179WAT     H236780   7.085   3.405   3.747
12180WAT      O36781   5.300   4.682   8.030
12180WAT     H136782   5.200   4.689   8.030
12180WAT     H236783   5.332   4.645   7.943
12181WAT      O36784   4.735   3.062   8.404
12181WAT     H136785   4.706   2.971   8.374
12181WAT     H236786   4.734   3.125   8.326
12182WAT      O36787   4.335   4.754   4.065
12182WAT     H136788   4.274   4.737   3.988
12182WAT     H236789   4.382   4.669   4.088
12183WAT      O36790   7.279   6.450   8.233
12183WAT     H136791   7.190   6.480   8.201
12183WAT     H236792   7.271   6.412   8.325
12184WAT      O36793   1.115   0.609   6.577
12184WAT     H136794   1.107   0.541   6.649
12184WAT     H236795   1.153   0.567   6.495
12185WAT      O36796   3.767   0.168   4.152
12185WAT     H136797   3.675   0.134   4.133
12185WAT     H236798   3.834   0.097   4.131
12186WAT      O36799   9.276   6.413   8.937
12186WAT     H136800   9.360   6.453   8.899
12186WAT     H236801   9.236   6.476   9.003
12187WAT      O36802   7.360   1.292   5.336
12187WAT     H136803   7.455   1.287   5.304
12187WAT     H236804   7.359   1.315   5.433
12188WAT      O36805   0.864   7.936   1.041
12188WAT     H136806   0.798   7.973   0.976
12188WAT     H236807   0.906   7.853   1.003
12189WAT      O36808   4.722   6.408   7.761
12189WAT     H136809   4.731   6.502   7.794
12189WAT     H236810   4.654   6.405   7.689
12190WAT      O36811   8.960   1.801   4.686
12190WAT     H136812   8.893   1.822   4.615
12190WAT     H236813   9.049   1.784   4.644
12191WAT      O36814   1.014   5.052   1.584
12191WAT     H136815   1.110   5.025   1.578
12191WAT     H236816   1.008   5.148   1.611
12192WAT      O36817   4.024   6.866   7.239
12192WAT     H136818   4.015   6.845   7.336
12192WAT     H236819   4.086   6.800   7.196
12193WAT      O36820   6.759   0.160   7.904
12193WAT     H136821   6.769   0.104   7.986
12193WAT     H236822   6.662   0.171   7.883
12194WAT      O36823   6.256   4.888   2.421
12194WAT     H136824   6.292   4.855   2.334
12194WAT     H236825   6.296   4.835   2.496
12195WAT      O36826   3.398   3.272   1.024
12195WAT     H136827   3.314   3.237   0.982
12195WAT     H236828   3.387   3.277   1.123
12196WAT      O36829   5.041   8.158   8.023
12196WAT     H136830   5.135   8.192   8.017
12196WAT     H236831   5.014   8.122   7.934
12197WAT      O36832   3.506   1.218   0.370
12197WAT     H136833   3.422   1.270   0.385
12197WAT     H236834   3.486   1.136   0.316
12198WAT      O36835   3.960   6.472   3.433
12198WAT     H136836   3.921   6.382   3.415
12198WAT     H236837   3.897   6.525   3.491
12199WAT      O36838   3.678   4.727   6.450
12199WAT     H136839   3.770   4.706   6.483
12199WAT     H236840   3.611   4.669   6.496
12200WAT      O36841   5.507   7.864   9.267
12200WAT     H136842   5.475   7.774   9.238
12200WAT     H236843   5.572   7.900   9.201
12201WAT      O36844   4.588   5.504   9.269
12201WAT     H136845   4.545   5.458   9.192
12201WAT     H236846   4.656   5.444   9.311
12202WAT      O36847   8.134   4.077   5.437
12202WAT     H136848   8.151   4.157   5.495
12202WAT     H236849   8.176   3.996   5.477
12203WAT      O36850   9.888   2.687   0.136
12203WAT     H136851   9.793   2.715   0.124
12203WAT     H236852   9.949   2.762   0.110
12204WAT      O36853   0.419   2.959   0.833
12204WAT     H136854   0.416   2.995   0.926
12204WAT     H236855   0.514   2.941   0.808
12205WAT      O36856   4.869   3.901   8.997
12205WAT     H136857   4.923   3.976   9.037
12205WAT     H236858   4.917   3.865   8.917
12206WAT      O36859   3.256   7.155   4.562
12206WAT     H136860   3.284   7.112   4.476
12206WAT     H236861   3.159   7.134   4.579
12207WAT      O36862   3.109   7.992   8.063
12207WAT     H136863   3.186   8.052   8.041
12207WAT     H236864   3.081   7.942   7.981
12208WAT      O36865   2.792   4.562   2.508
12208WAT     H136866   2.869   4.534   2.451
12208WAT     H236867   2.719   4.598   2.450
12209WAT      O36868   0.474   9.468   6.821
12209WAT     H136869   0.540   9.467   6.896
12209WAT     H236870   0.391   9.420   6.848
12210WAT      O36871   6.629   2.241   1.539
12210WAT     H136872   6.666   2.259   1.448
12210WAT     H236873   6.569   2.161   1.536
12211WAT      O36874   8.853   8.365   7.885
12211WAT     H136875   8.882   8.314   7.804
12211WAT     H236876   8.766   8.411   7.866
12212WAT      O36877   3.811   5.487   2.334
12212WAT     H136878   3.768   5.521   2.250
12212WAT     H236879   3.802   5.557   2.405
12213WAT      O36880   4.248   6.058   1.219
12213WAT     H136881   4.306   6.102   1.150
12213WAT     H236882   4.234   6.120   1.296
12214WAT      O36883   7.243   2.683   4.619
12214WAT     H136884   7.220   2.701   4.523
12214WAT     H236885   7.268   2.587   4.629
12215WAT      O36886   6.606   0.821   5.933
12215WAT     H136887   6.602   0.821   5.833
12215WAT     H236888   6.530   0.767   5.969
12216WAT      O36889   5.360   5.228   4.176
12216WAT     H136890   5.288   5.181   4.228
12216WAT     H236891   5.367   5.322   4.208
12217WAT      O36892   4.175   1.370   5.306
12217WAT     H136893   4.263   1.337   5.340
12217WAT     H236894   4.142   1.445   5.364
12218WAT      O36895   0.330   3.433   0.177
12218WAT     H136896   0.271   3.361   0.215
12218WAT     H236897   0.278   3.518   0.170
12219WAT      O36898   7.825   3.190   8.951
12219WAT     H136899   7.839   3.092   8.965
12219WAT     H236900   7.732   3.206   8.919
12220WAT      O36901   8.217   7.105   5.897
12220WAT     H136902   8.277   7.179   5.867
12220WAT     H236903   8.142   7.094   5.832
12221WAT      O36904   8.249   8.095   7.006
12221WAT     H136905   8.332   8.040   7.015
12221WAT     H236906   8.270   8.191   7.025
12222WAT      O36907   4.561   7.500   5.603
12222WAT     H136908   4.556   7.584   5.658
12222WAT     H236909   4.581   7.524   5.508
12223WAT      O36910   8.041   3.738   0.510
12223WAT     H136911   8.106   3.733   0.435
12223WAT     H236912   8.090   3.761   0.595
12224WAT      O36913   8.596   3.225   2.407
12224WAT     H136914   8.617   3.221   2.505
12224WAT     H236915   8.499   3.245   2.394
12225WAT      O36916   8.409   7.450   8.109
12225WAT     H136917   8.330   7.398   8.076
12225WAT     H236918   8.435   7.419   8.200
12226WAT      O36919   0.158   2.320   0.570
12226WAT     H136920   0.187   2.410   0.539
12226WAT     H236921   0.213   2.293   0.650
12227WAT      O36922   3.390   9.284   8.088
12227WAT     H136923   3.450   9.208   8.064
12227WAT     H236924   3.423   9.368   8.044
12228WAT      O36925   1.182   1.758   7.832
12228WAT     H136926   1.222   1.794   7.748
12228WAT     H236927   1.252   1.708   7.884
12229WAT      O36928   5.030   5.857   8.305
12229WAT     H136929   4.957   5.902   8.253
12229WAT     H236930   5.099   5.822   8.242
12230WAT      O36931   9.392   8.862   9.596
12230WAT     H136932   9.305   8.864   9.547
12230WAT     H236933   9.456   8.924   9.552
12231WAT      O36934   5.104   8.771   1.941
12231WAT     H136935   5.117   8.674   1.919
12231WAT     H236936   5.016   8.802   1.906
12232WAT      O36937   7.611   0.789   6.072
12232WAT     H136938   7.545   0.715   6.066
12232WAT     H236939   7.600   0.837   6.159
12233WAT      O36940   3.261   3.935   7.252
12233WAT     H136941   3.271   4.034   7.264
12233WAT     H236942   3.330   3.902   7.188
12234WAT      O36943   6.153   0.432   9.874
12234WAT     H136944   6.125   0.428   9.778
12234WAT     H236945   6.179   0.341   9.905
12235WAT      O36946   8.538   1.846   8.456
12235WAT     H136947   8.616   1.884   8.506
12235WAT     H236948   8.468   1.916   8.445
12236WAT      O36949   1.809   2.510   6.959
12236WAT     H136950   1.778   2.423   6.921
12236WAT     H236951   1.903   2.501   6.991
12237WAT      O36952   2.260   5.352   6.225
12237WAT     H136953   2.189   5.317   6.163
12237WAT     H236954   2.223   5.428   6.278
12238WAT      O36955   4.650   4.089   5.331
12238WAT     H136956   4.718   4.016   5.341
12238WAT     H236957   4.609   4.085   5.240
12239WAT      O36958   9.568   5.775   9.328
12239WAT     H136959   9.593   5.725   9.245
12239WAT     H236960   9.538   5.867   9.304
12240WAT      O36961   7.763   4.828   9.191
12240WAT     H136962   7.849   4.857   9.234
12240WAT     H236963   7.750   4.730   9.204
12241WAT      O36964   5.075   5.277   9.344
12241WAT     H136965   4.976   5.286   9.359
12241WAT     H236966   5.094   5.186   9.308
12242WAT      O36967   0.586   9.328   6.342
12242WAT     H136968   0.646   9.258   6.302
12242WAT     H236969   0.529   9.368   6.270
12243WAT      O36970   3.624   5.622   7.583
12243WAT     H136971   3.645   5.701   7.642
12243WAT     H236972   3.565   5.559   7.632
12244WAT      O36973   7.880   3.279   6.384
12244WAT     H136974   7.848   3.263   6.477
12244WAT     H236975   7.967   3.233   6.370
12245WAT      O36976   8.618   1.649   5.170
12245WAT     H136977   8.593   1.570   5.227
12245WAT     H236978   8.710   1.636   5.134
12246WAT      O36979   0.235   1.090   8.020
12246WAT     H136980   0.304   1.156   7.993
12246WAT     H236981   0.279   1.011   8.063
12247WAT      O36982   1.752   9.719   3.368
12247WAT     H136983   1.834   9.742   3.420
12247WAT     H236984   1.698   9.802   3.352
12248WAT      O36985   2.020   3.244   8.024
12248WAT     H136986   2.024   3.277   7.930
12248WAT     H236987   2.098   3.183   8.042
12249WAT      O36988   5.588   0.020   0.878
12249WAT     H136989   5.521   0.076   0.830
12249WAT     H236990   5.667   0.004   0.818
12250WAT      O36991   5.962   6.724   5.387
12250WAT     H136992   6.051   6.712   5.431
12250WAT     H236993   5.893   6.671   5.436
12251WAT      O36994   0.236   6.938   0.578
12251WAT     H136995   0.183   6.864   0.619
12251WAT     H236996   0.243   7.014   0.642
12252WAT      O36997   5.528   8.380   0.069
12252WAT     H136998   5.565   8.472   0.083
12252WAT     H236999   5.483   8.350   0.153
12253WAT      O37000   9.855   1.900   3.503
12253WAT     H137001   9.900   1.865   3.421
12253WAT     H237002   9.905   1.871   3.584
12254WAT      O37003   8.029   2.067   9.409
12254WAT     H137004   7.987   1.998   9.351
12254WAT     H237005   7.958   2.113   9.464
12255WAT      O37006   1.446   1.922   1.264
12255WAT     H137007   1.504   1.879   1.333
12255WAT     H237008   1.502   1.980   1.205
12256WAT      O37009   7.036   3.192   4.032
12256WAT     H137010   7.033   3.104   3.984
12256WAT     H237011   7.125   3.201   4.077
12257WAT      O37012   2.344   4.687   3.139
12257WAT     H137013   2.418   4.620   3.133
12257WAT     H237014   2.317   4.697   3.235
12258WAT      O37015   1.607   1.705   7.903
12258WAT     H137016   1.584   1.754   7.819
12258WAT     H237017   1.650   1.768   7.968
12259WAT      O37018   6.766   6.215   0.014
12259WAT     H137019   6.826   6.288  -0.017
12259WAT     H237020   6.671   6.237  -0.008
12260WAT      O37021   6.794   4.646   3.676
12260WAT     H137022   6.753   4.722   3.727
12260WAT     H237023   6.735   4.566   3.682
12261WAT      O37024   3.418   4.735   4.998
12261WAT     H137025   3.438   4.657   4.938
12261WAT     H237026   3.494   4.800   4.995
12262WAT      O37027   0.648   6.155   6.765
12262WAT     H137028   0.726   6.195   6.717
12262WAT     H237029   0.567   6.212   6.751
12263WAT      O37030   6.193   0.056   6.306
12263WAT     H137031   6.270   0.029   6.247
12263WAT     H237032   6.229   0.086   6.394
12264WAT      O37033   1.589   5.620   2.940
12264WAT     H137034   1.668   5.578   2.894
12264WAT     H237035   1.617   5.706   2.982
12265WAT      O37036   4.090   4.301   2.601
12265WAT     H137037   4.118   4.242   2.677
12265WAT     H237038   3.992   4.289   2.584
12266WAT      O37039   9.020   6.651   0.821
12266WAT     H137040   9.110   6.678   0.786
12266WAT     H237041   9.027   6.627   0.918
12267WAT      O37042   8.984   0.052   8.985
12267WAT     H137043   8.985  -0.026   8.922
12267WAT     H237044   8.912   0.038   9.053
12268WAT      O37045   0.888   1.533   8.747
12268WAT     H137046   0.809   1.476   8.725
12268WAT     H237047   0.962   1.514   8.683
12269WAT      O37048   7.748   2.515   1.634
12269WAT     H137049   7.685   2.502   1.711
12269WAT     H237050   7.804   2.433   1.622
12270WAT      O37051   2.286   0.105   7.678
12270WAT     H137052   2.360   0.153   7.725
12270WAT     H237053   2.321   0.068   7.592
12271WAT      O37054   2.555   9.631   9.066
12271WAT     H137055   2.644   9.644   9.023
12271WAT     H237056   2.543   9.699   9.139
12272WAT      O37057   0.082   2.542   2.235
12272WAT     H137058   0.141   2.464   2.254
12272WAT     H237059  -0.012   2.520   2.261
12273WAT      O37060   8.262   5.569   1.589
12273WAT     H137061   8.299   5.603   1.676
12273WAT     H237062   8.162   5.572   1.592
12274WAT      O37063   4.382   9.731   2.558
12274WAT     H137064   4.428   9.650   2.595
12274WAT     H237065   4.288   9.707   2.534
12275WAT      O37066   9.366   8.085   9.263
12275WAT     H137067   9.288   8.022   9.267
12275WAT     H237068   9.448   8.035   9.233
12276WAT      O37069   5.341   0.868   0.032
12276WAT     H137070   5.264   0.852   0.094
12276WAT     H237071   5.316   0.939  -0.034
12277WAT      O37072   1.964   1.884   4.973
12277WAT     H137073   1.899   1.845   5.040
12277WAT     H237074   1.997   1.811   4.914
12278WAT      O37075   7.566   6.345   8.378
12278WAT     H137076   7.522   6.411   8.317
12278WAT     H237077   7.662   6.334   8.352
12279WAT      O37078   0.437   8.233   2.652
12279WAT     H137079   0.488   8.246   2.737
12279WAT     H237080   0.346   8.198   2.673
12280WAT      O37081   5.073   3.735   1.622
12280WAT     H137082   5.041   3.775   1.708
12280WAT     H237083   5.062   3.635   1.626
12281WAT      O37084   4.474   9.064   0.646
12281WAT     H137085   4.540   8.988   0.640
12281WAT     H237086   4.418   9.066   0.564
12282WAT      O37087   7.190   6.122   7.773
12282WAT     H137088   7.131   6.042   7.771
12282WAT     H237089   7.279   6.098   7.812
12283WAT      O37090   0.704   1.422   5.566
12283WAT     H137091   0.610   1.425   5.599
12283WAT     H237092   0.762   1.481   5.624
12284WAT      O37093   2.583   8.227   4.061
12284WAT     H137094   2.535   8.250   4.146
12284WAT     H237095   2.670   8.277   4.058
12285WAT      O37096   2.370   9.638   4.309
12285WAT     H137097   2.425   9.720   4.294
12285WAT     H237098   2.431   9.561   4.326
12286WAT      O37099   2.009   4.820   3.213
12286WAT     H137100   2.071   4.894   3.238
12286WAT     H237101   2.041   4.776   3.130
12287WAT      O37102   8.147   7.976   8.472
12287WAT     H137103   8.048   7.991   8.473
12287WAT     H237104   8.175   7.929   8.555
12288WAT      O37105   9.221   4.971   6.567
12288WAT     H137106   9.249   5.065   6.544
12288WAT     H237107   9.278   4.938   6.643
12289WAT      O37108   9.760   3.966   3.266
12289WAT     H137109   9.755   4.012   3.177
12289WAT     H237110   9.687   4.001   3.325
12290WAT      O37111   5.283   6.130   8.655
12290WAT     H137112   5.324   6.092   8.737
12290WAT     H237113   5.240   6.057   8.602
12291WAT      O37114   9.220   1.916   4.968
12291WAT     H137115   9.222   1.874   5.059
12291WAT     H237116   9.129   1.951   4.948
12292WAT      O37117   2.353   1.481   2.270
12292WAT     H137118   2.294   1.554   2.304
12292WAT     H237119   2.398   1.435   2.346
12293WAT      O37120   5.319   3.587   9.023
12293WAT     H137121   5.399   3.544   8.981
12293WAT     H237122   5.331   3.686   9.025
12294WAT      O37123   6.881   6.924   2.075
12294WAT     H137124   6.963   6.943   2.129
12294WAT     H237125   6.865   6.825   2.073
12295WAT      O37126   3.716   7.793   4.665
12295WAT     H137127   3.657   7.780   4.586
12295WAT     H237128   3.807   7.757   4.645
12296WAT      O37129   1.196   6.278   6.783
12296WAT     H137130   1.250   6.249   6.704
12296WAT     H237131   1.140   6.202   6.815
12297WAT      O37132   6.049   9.603   2.415
12297WAT     H137133   6.111   9.667   2.369
12297WAT     H237134   6.047   9.517   2.366
12298WAT      O37135   8.922   6.923   8.391
12298WAT     H137136   8.990   6.991   8.419
12298WAT     H237137   8.843   6.969   8.350
12299WAT      O37138   6.810   0.787   8.569
12299WAT     H137139   6.841   0.832   8.653
12299WAT     H237140   6.884   0.732   8.531
12300WAT      O37141   8.921   1.176   8.422
12300WAT     H137142   8.984   1.150   8.349
12300WAT     H237143   8.832   1.134   8.406
12301WAT      O37144   7.072   5.299   9.682
12301WAT     H137145   7.106   5.256   9.598
12301WAT     H237146   7.027   5.386   9.660
12302WAT      O37147   1.900   1.286   7.748
12302WAT     H137148   1.904   1.243   7.839
12302WAT     H237149   1.890   1.385   7.760
12303WAT      O37150   6.328   4.063   3.004
12303WAT     H137151   6.350   3.966   3.004
12303WAT     H237152   6.404   4.115   2.965
12304WAT      O37153   3.650   9.381   3.273
12304WAT     H137154   3.608   9.417   3.356
12304WAT     H237155   3.593   9.404   3.194
12305WAT      O37156   6.633   2.593   0.363
12305WAT     H137157   6.612   2.636   0.451
12305WAT     H237158   6.723   2.550   0.368
12306WAT      O37159   2.953   1.709   9.818
12306WAT     H137160   3.026   1.731   9.882
12306WAT     H237161   2.946   1.781   9.749
12307WAT      O37162   3.284   8.393   7.644
12307WAT     H137163   3.313   8.384   7.740
12307WAT     H237164   3.185   8.409   7.641
12308WAT      O37165   7.425   6.080   9.821
12308WAT     H137166   7.507   6.131   9.795
12308WAT     H237167   7.431   5.986   9.787
12309WAT      O37168   1.837   0.338   6.141
12309WAT     H137169   1.843   0.255   6.198
12309WAT     H237170   1.741   0.358   6.122
12310WAT      O37171   5.266   8.581   3.401
12310WAT     H137172   5.215   8.654   3.446
12310WAT     H237173   5.327   8.620   3.332
12311WAT      O37174   7.838   6.598   8.398
12311WAT     H137175   7.842   6.606   8.498
12311WAT     H237176   7.875   6.682   8.357
12312WAT      O37177   5.134   6.471   4.981
12312WAT     H137178   5.036   6.453   4.990
12312WAT     H237179   5.155   6.498   4.887
12313WAT      O37180   8.101   1.972   4.899
12313WAT     H137181   8.114   2.069   4.918
12313WAT     H237182   8.112   1.955   4.801
12314WAT      O37183   5.387   7.734   6.925
12314WAT     H137184   5.312   7.667   6.920
12314WAT     H237185   5.475   7.686   6.917
12315WAT      O37186   2.648   2.011   6.733
12315WAT     H137187   2.626   2.086   6.795
12315WAT     H237188   2.745   2.016   6.708
12316WAT      O37189   7.015   5.832   9.071
12316WAT     H137190   6.947   5.824   8.998
12316WAT     H237191   7.023   5.928   9.098
12317WAT      O37192   7.631   6.230   5.841
12317WAT     H137193   7.711   6.243   5.899
12317WAT     H237194   7.555   6.196   5.896
12318WAT      O37195   8.703   2.965   3.036
12318WAT     H137196   8.728   3.062   3.031
12318WAT     H237197   8.611   2.956   3.075
12319WAT      O37198   3.336   3.145   4.870
12319WAT     H137199   3.284   3.222   4.904
12319WAT     H237200   3.295   3.111   4.785
12320WAT      O37201   9.492   1.019   1.474
12320WAT     H137202   9.585   0.984   1.463
12320WAT     H237203   9.464   1.008   1.569
12321WAT      O37204   4.678   2.590   8.003
12321WAT     H137205   4.772   2.583   8.038
12321WAT     H237206   4.672   2.542   7.915
12322WAT      O37207   8.400   2.717   5.268
12322WAT     H137208   8.351   2.633   5.290
12322WAT     H237209   8.468   2.736   5.339
12323WAT      O37210   6.039   9.630   5.646
12323WAT     H137211   5.986   9.686   5.582
12323WAT     H237212   6.080   9.552   5.597
12324WAT      O37213   1.796   8.055   8.146
12324WAT     H137214   1.883   8.091   8.110
12324WAT     H237215   1.813   8.007   8.231
12325WAT      O37216   5.054   1.359   3.678
12325WAT     H137217   4.976   1.325   3.626
12325WAT     H237218   5.096   1.435   3.627
12326WAT      O37219   3.728   8.150   7.102
12326WAT     H137220   3.659   8.179   7.036
12326WAT     H237221   3.803   8.216   7.104
12327WAT      O37222   0.195   4.010   6.637
12327WAT     H137223   0.165   4.066   6.560
12327WAT     H237224   0.168   4.055   6.723
12328WAT      O37225   9.338   5.444   4.410
12328WAT     H137226   9.399   5.370   4.436
12328WAT     H237227   9.248   5.407   4.387
12329WAT      O37228   6.872   6.553   0.899
12329WAT     H137229   6.933   6.482   0.864
12329WAT     H237230   6.779   6.519   0.903
12330WAT      O37231   6.864   2.589   6.721
12330WAT     H137232   6.926   2.601   6.799
12330WAT     H237233   6.903   2.633   6.641
12331WAT      O37234   2.278   0.601   1.533
12331WAT     H137235   2.330   0.528   1.490
12331WAT     H237236   2.180   0.588   1.517
12332WAT      O37237   9.441   2.805   5.894
12332WAT     H137238   9.489   2.750   5.962
12332WAT     H237239   9.427   2.897   5.929
12333WAT      O37240   9.418   7.721   5.383
12333WAT     H137241   9.360   7.802   5.386
12333WAT     H237242   9.500   7.741   5.330
12334WAT      O37243   5.657   6.026   8.748
12334WAT     H137244   5.684   5.930   8.756
12334WAT     H237245   5.689   6.076   8.829
12335WAT      O37246   8.183   7.739   6.366
12335WAT     H137247   8.265   7.787   6.334
12335WAT     H237248   8.120   7.805   6.406
12336WAT      O37249   9.422   8.767   3.261
12336WAT     H137250   9.334   8.723   3.278
12336WAT     H237251   9.493   8.720   3.312
12337WAT      O37252   2.948   4.190   1.365
12337WAT     H137253   2.901   4.195   1.277
12337WAT     H237254   2.924   4.269   1.420
12338WAT      O37255   5.280   6.206   4.703
12338WAT     H137256   5.269   6.301   4.734
12338WAT     H237257   5.204   6.182   4.643
12339WAT      O37258   4.484   2.361   3.024
12339WAT     H137259   4.431   2.442   2.998
12339WAT     H237260   4.581   2.382   3.022
12340WAT      O37261   8.199   5.791   1.421
12340WAT     H137262   8.187   5.712   1.481
12340WAT     H237263   8.264   5.768   1.348
12341WAT      O37264   5.167   8.752   5.044
12341WAT     H137265   5.189   8.826   4.980
12341WAT     H237266   5.234   8.678   5.034
12342WAT      O37267   1.798   3.094   8.035
12342WAT     H137268   1.882   3.147   8.045
12342WAT     H237269   1.766   3.100   7.941
12343WAT      O37270   1.660   4.422   1.773
12343WAT     H137271   1.678   4.372   1.689
12343WAT     H237272   1.625   4.513   1.752
12344WAT      O37273   0.750   3.242   4.864
12344WAT     H137274   0.791   3.242   4.955
12344WAT     H237275   0.743   3.336   4.830
12345WAT      O37276   2.609   1.403   1.557
12345WAT     H137277   2.617   1.376   1.653
12345WAT     H237278   2.696   1.389   1.510
12346WAT      O37279   0.949   8.098   5.752
12346WAT     H137280   1.010   8.054   5.686
12346WAT     H237281   0.996   8.107   5.840
12347WAT      O37282   5.962   4.784   8.362
12347WAT     H137283   5.877   4.751   8.401
12347WAT     H237284   6.032   4.790   8.434
12348WAT      O37285   5.750   9.170   3.333
12348WAT     H137286   5.780   9.198   3.424
12348WAT     H237287   5.793   9.083   3.309
12349WAT      O37288   9.831   3.646   4.147
12349WAT     H137289   9.740   3.682   4.167
12349WAT     H237290   9.892   3.663   4.224
12350WAT      O37291   1.254   0.647   3.015
12350WAT     H137292   1.229   0.721   2.953
12350WAT     H237293   1.201   0.655   3.099
12351WAT      O37294   7.597   8.354   4.040
12351WAT     H137295   7.565   8.421   3.972
12351WAT     H237296   7.600   8.263   3.998
12352WAT      O37297   8.472   5.816   2.833
12352WAT     H137298   8.395   5.850   2.777
12352WAT     H237299   8.444   5.811   2.929
12353WAT      O37300   4.510   2.580   1.107
12353WAT     H137301   4.563   2.647   1.159
12353WAT     H237302   4.416   2.611   1.096
12354WAT      O37303   1.412   6.355   2.882
12354WAT     H137304   1.502   6.327   2.914
12354WAT     H237305   1.343   6.289   2.915
12355WAT      O37306   3.220   7.727   1.738
12355WAT     H137307   3.245   7.667   1.663
12355WAT     H237308   3.261   7.817   1.725
12356WAT      O37309   6.845   4.690   8.193
12356WAT     H137310   6.927   4.683   8.250
12356WAT     H237311   6.781   4.617   8.218
12357WAT      O37312   1.398   6.111   8.305
12357WAT     H137313   1.462   6.121   8.382
12357WAT     H237314   1.432   6.162   8.226
12358WAT      O37315   4.124   6.117   8.041
12358WAT     H137316   4.162   6.200   8.083
12358WAT     H237317   4.026   6.129   8.027
12359WAT      O37318   1.632   2.894   5.972
12359WAT     H137319   1.718   2.940   5.950
12359WAT     H237320   1.632   2.803   5.931
12360WAT      O37321   4.483   8.840   3.584
12360WAT     H137322   4.452   8.845   3.679
12360WAT     H237323   4.430   8.771   3.535
12361WAT      O37324   2.634   0.952   5.454
12361WAT     H137325   2.644   0.986   5.548
12361WAT     H237326   2.699   1.000   5.395
12362WAT      O37327   5.624   8.171   8.611
12362WAT     H137328   5.689   8.195   8.539
12362WAT     H237329   5.615   8.248   8.675
12363WAT      O37330   9.199   5.295   7.175
12363WAT     H137331   9.276   5.302   7.239
12363WAT     H237332   9.195   5.378   7.119
12364WAT      O37333   8.383   2.002   4.746
12364WAT     H137334   8.344   1.947   4.820
12364WAT     H237335   8.311   2.029   4.682
12365WAT      O37336   5.624   6.509   0.896
12365WAT     H137337   5.529   6.501   0.866
12365WAT     H237338   5.685   6.497   0.818
12366WAT      O37339   5.102   2.332   7.479
12366WAT     H137340   5.063   2.297   7.564
12366WAT     H237341   5.056   2.290   7.401
12367WAT      O37342   7.614   1.303   5.217
12367WAT     H137343   7.650   1.264   5.132
12367WAT     H237344   7.639   1.399   5.223
12368WAT      O37345   9.660   6.516   2.483
12368WAT     H137346   9.735   6.568   2.442
12368WAT     H237347   9.692   6.472   2.567
12369WAT      O37348   7.860   3.959   1.585
12369WAT     H137349   7.861   4.056   1.559
12369WAT     H237350   7.770   3.920   1.566
12370WAT      O37351   0.386   1.904   7.209
12370WAT     H137352   0.323   1.891   7.132
12370WAT     H237353   0.398   2.001   7.226
12371WAT      O37354   9.696   0.441   3.261
12371WAT     H137355   9.698   0.342   3.244
12371WAT     H237356   9.680   0.457   3.359
12372WAT      O37357   6.443   0.978   0.365
12372WAT     H137358   6.485   0.978   0.275
12372WAT     H237359   6.381   1.055   0.374
12373WAT      O37360   6.890   8.643   8.153
12373WAT     H137361   6.836   8.658   8.070
12373WAT     H237362   6.971   8.588   8.131
12374WAT      O37363   4.150   1.593   3.469
12374WAT     H137364   4.073   1.616   3.409
12374WAT     H237365   4.227   1.563   3.413
12375WAT      O37366   6.488   8.639   0.184
12375WAT     H137367   6.569   8.645   0.242
12375WAT     H237368   6.413   8.596   0.234
12376WAT      O37369   1.870   4.512   7.748
12376WAT     H137370   1.940   4.450   7.783
12376WAT     H237371   1.898   4.546   7.658
12377WAT      O37372   9.063   2.620   0.918
12377WAT     H137373   9.094   2.575   1.001
12377WAT     H237374   9.015   2.553   0.860
12378WAT      O37375   6.129   8.720   1.100
12378WAT     H137376   6.049   8.764   1.058
12378WAT     H237377   6.102   8.675   1.185
12379WAT      O37378   7.664   4.082   4.870
12379WAT     H137379   7.683   3.995   4.825
12379WAT     H237380   7.745   4.139   4.868
12380WAT      O37381   2.637   3.817   0.816
12380WAT     H137382   2.730   3.819   0.851
12380WAT     H237383   2.636   3.773   0.726
12381WAT      O37384   8.271   1.604   0.238
12381WAT     H137385   8.177   1.630   0.215
12381WAT     H237386   8.297   1.646   0.325
12382WAT      O37387   9.106   2.642   4.970
12382WAT     H137388   9.149   2.588   4.897
12382WAT     H237389   9.038   2.703   4.930
12383WAT      O37390   5.337   8.711   5.581
12383WAT     H137391   5.304   8.617   5.573
12383WAT     H237392   5.413   8.715   5.646
12384WAT      O37393   7.959   1.794   5.103
12384WAT     H137394   8.002   1.864   5.046
12384WAT     H237395   7.949   1.710   5.050
12385WAT      O37396   7.070   7.078   7.600
12385WAT     H137397   7.071   6.992   7.550
12385WAT     H237398   6.983   7.087   7.648
12386WAT      O37399   3.204   6.208   8.652
12386WAT     H137400   3.159   6.289   8.690
12386WAT     H237401   3.137   6.152   8.604
12387WAT      O37402   8.095   0.748   0.382
12387WAT     H137403   8.133   0.684   0.316
12387WAT     H237404   8.163   0.770   0.451
12388WAT      O37405   7.729   5.930   5.018
12388WAT     H137406   7.824   5.949   4.991
12388WAT     H237407   7.718   5.953   5.115
12389WAT      O37408   9.827   9.038   1.505
12389WAT     H137409   9.894   9.057   1.576
12389WAT     H237410   9.848   8.950   1.461
12390WAT      O37411   5.538   2.519   0.683
12390WAT     H137412   5.551   2.611   0.645
12390WAT     H237413   5.442   2.507   0.709
12391WAT      O37414   6.366   6.444   4.338
12391WAT     H137415   6.462   6.471   4.346
12391WAT     H237416   6.355   6.380   4.263
12392WAT      O37417   1.262   0.112   6.203
12392WAT     H137418   1.246   0.024   6.247
12392WAT     H237419   1.234   0.106   6.106
12393WAT      O37420   6.407   6.970   7.888
12393WAT     H137421   6.424   6.900   7.958
12393WAT     H237422   6.442   7.058   7.920
12394WAT      O37423   9.707   3.842   8.493
12394WAT     H137424   9.745   3.838   8.585
12394WAT     H237425   9.737   3.761   8.441
12395WAT      O37426   6.835   9.236   6.031
12395WAT     H137427   6.863   9.182   5.951
12395WAT     H237428   6.796   9.322   5.999
12396WAT      O37429   7.790   8.578   1.997
12396WAT     H137430   7.779   8.617   1.905
12396WAT     H237431   7.849   8.498   1.993
12397WAT      O37432   3.444   6.467   1.183
12397WAT     H137433   3.381   6.390   1.175
12397WAT     H237434   3.463   6.484   1.280
12398WAT      O37435   9.356   3.257   2.279
12398WAT     H137436   9.453   3.232   2.282
12398WAT     H237437   9.314   3.237   2.367
12399WAT      O37438   4.637   9.402   4.263
12399WAT     H137439   4.587   9.325   4.223
12399WAT     H237440   4.644   9.476   4.196
12400WAT      O37441   0.936   6.449   8.046
12400WAT     H137442   1.009   6.397   8.091
12400WAT     H237443   0.921   6.535   8.095
12401WAT      O37444   9.410   2.365   8.299
12401WAT     H137445   9.320   2.354   8.257
12401WAT     H237446   9.420   2.459   8.332
12402WAT      O37447   6.349   9.755   6.134
12402WAT     H137448   6.400   9.753   6.048
12402WAT     H237449   6.310   9.664   6.152
12403WAT      O37450   5.501   6.307   5.436
12403WAT     H137451   5.490   6.248   5.516
12403WAT     H237452   5.445   6.272   5.361
12404WAT      O37453   3.399   6.449   3.491
12404WAT     H137454   3.311   6.487   3.519
12404WAT     H237455   3.387   6.399   3.406
12405WAT      O37456   5.852   4.653   7.988
12405WAT     H137457   5.907   4.618   8.064
12405WAT     H237458   5.903   4.641   7.902
12406WAT      O37459   4.729   1.761   2.905
12406WAT     H137460   4.671   1.680   2.904
12406WAT     H237461   4.824   1.734   2.916
12407WAT      O37462   3.726   0.118   2.984
12407WAT     H137463   3.820   0.153   2.979
12407WAT     H237464   3.717   0.059   3.065
12408WAT      O37465   0.753   7.950   2.430
12408WAT     H137466   0.706   8.033   2.397
12408WAT     H237467   0.695   7.904   2.498
12409WAT      O37468   1.518   6.064   4.713
12409WAT     H137469   1.614   6.035   4.710
12409WAT     H237470   1.470   6.011   4.782
12410WAT      O37471   1.570   8.914   8.822
12410WAT     H137472   1.643   8.905   8.754
12410WAT     H237473   1.484   8.881   8.782
12411WAT      O37474   1.995   9.780   6.077
12411WAT     H137475   1.953   9.788   5.987
12411WAT     H237476   2.009   9.684   6.099
12412WAT      O37477   9.615   1.955   8.792
12412WAT     H137478   9.563   2.039   8.777
12412WAT     H237479   9.691   1.974   8.855
12413WAT      O37480   3.601   6.192   7.824
12413WAT     H137481   3.684   6.175   7.876
12413WAT     H237482   3.521   6.187   7.885
12414WAT      O37483   1.827   5.348   5.881
12414WAT     H137484   1.781   5.426   5.839
12414WAT     H237485   1.924   5.350   5.857
12415WAT      O37486   8.519   2.954   0.776
12415WAT     H137487   8.420   2.943   0.772
12415WAT     H237488   8.563   2.888   0.716
12416WAT      O37489   2.889   6.829   0.265
12416WAT     H137490   2.899   6.912   0.210
12416WAT     H237491   2.851   6.756   0.209
12417WAT      O37492   6.733   6.664   1.804
12417WAT     H137493   6.714   6.575   1.761
12417WAT     H237494   6.832   6.681   1.801
12418WAT      O37495   5.741   9.176   5.633
12418WAT     H137496   5.813   9.216   5.690
12418WAT     H237497   5.773   9.169   5.539
12419WAT      O37498   3.006   8.231   7.852
12419WAT     H137499   2.940   8.159   7.873
12419WAT     H237500   2.971   8.289   7.778
12420WAT      O37501   1.815   3.171   1.665
12420WAT     H137502   1.897   3.216   1.629
12420WAT     H237503   1.834   3.073   1.678
12421WAT      O37504   0.213   3.821   0.883
12421WAT     H137505   0.251   3.783   0.799
12421WAT     H237506   0.224   3.756   0.958
12422WAT      O37507   8.391   8.648   9.322
12422WAT     H137508   8.413   8.744   9.303
12422WAT     H237509   8.450   8.615   9.396
12423WAT      O37510   2.965   7.679   6.181
12423WAT     H137511   3.059   7.667   6.211
12423WAT     H237512   2.931   7.593   6.143
12424WAT      O37513   1.978   2.503   4.245
12424WAT     H137514   2.021   2.567   4.309
12424WAT     H237515   1.905   2.453   4.292
12425WAT      O37516   6.338   7.422   0.517
12425WAT     H137517   6.344   7.517   0.547
12425WAT     H237518   6.411   7.369   0.560
12426WAT      O37519   0.974   2.708   0.435
12426WAT     H137520   0.978   2.722   0.534
12426WAT     H237521   1.066   2.717   0.397
12427WAT      O37522   4.027   0.230   5.890
12427WAT     H137523   4.118   0.195   5.869
12427WAT     H237524   4.012   0.227   5.989
12428WAT      O37525   7.351   1.180   2.813
12428WAT     H137526   7.264   1.229   2.807
12428WAT     H237527   7.426   1.246   2.822
12429WAT      O37528   6.121   4.839   0.806
12429WAT     H137529   6.179   4.760   0.826
12429WAT     H237530   6.144   4.914   0.868
12430WAT      O37531   3.066   8.186   9.865
12430WAT     H137532   3.001   8.138   9.924
12430WAT     H237533   3.072   8.138   9.777
12431WAT      O37534   1.573   8.236   1.941
12431WAT     H137535   1.564   8.299   1.864
12431WAT     H237536   1.488   8.238   1.994
12432WAT      O37537   8.538   1.585   1.748
12432WAT     H137538   8.462   1.622   1.695
12432WAT     H237539   8.568   1.653   1.815
12433WAT      O37540   9.414   2.598   6.697
12433WAT     H137541   9.427   2.697   6.693
12433WAT     H237542   9.369   2.567   6.613
12434WAT      O37543   6.227   0.365   6.735
12434WAT     H137544   6.244   0.301   6.661
12434WAT     H237545   6.132   0.357   6.765
12435WAT      O37546   1.328   2.331   7.646
12435WAT     H137547   1.260   2.258   7.657
12435WAT     H237548   1.309   2.403   7.712
12436WAT      O37549   5.453   4.461   8.239
12436WAT     H137550   5.459   4.440   8.142
12436WAT     H237551   5.366   4.508   8.258
12437WAT      O37552   6.950   1.782   9.300
12437WAT     H137553   7.000   1.744   9.378
12437WAT     H237554   6.872   1.723   9.278
12438WAT      O37555   5.968   0.856   4.474
12438WAT     H137556   5.993   0.759   4.474
12438WAT     H237557   5.920   0.878   4.559
12439WAT      O37558   2.804   8.172   5.778
12439WAT     H137559   2.718   8.135   5.812
12439WAT     H237560   2.803   8.272   5.786
12440WAT      O37561   0.542   6.128   4.069
12440WAT     H137562   0.585   6.186   4.000
12440WAT     H237563   0.582   6.148   4.159
12441WAT      O37564   8.995   2.562   0.252
12441WAT     H137565   8.952   2.552   0.342
12441WAT     H237566   9.064   2.635   0.256
12442WAT      O37567   5.765   1.250   4.849
12442WAT     H137568   5.845   1.281   4.900
12442WAT     H237569   5.768   1.151   4.838
12443WAT      O37570   8.971   4.561   4.821
12443WAT     H137571   8.972   4.574   4.921
12443WAT     H237572   8.894   4.611   4.781
12444WAT      O37573   7.806   1.653   6.333
12444WAT     H137574   7.714   1.624   6.306
12444WAT     H237575   7.800   1.725   6.402
12445WAT      O37576   9.736   7.069   6.344
12445WAT     H137577   9.732   6.992   6.408
12445WAT     H237578   9.747   7.154   6.395
12446WAT      O37579   9.290   8.580   8.522
12446WAT     H137580   9.256   8.614   8.434
12446WAT     H237581   9.297   8.656   8.586
12447WAT      O37582   2.243   2.760   0.562
12447WAT     H137583   2.327   2.814   0.550
12447WAT     H237584   2.218   2.719   0.474
12448WAT      O37585   8.824   2.890   7.149
12448WAT     H137586   8.741   2.942   7.128
12448WAT     H237587   8.876   2.873   7.066
12449WAT      O37588   0.556   3.412   7.040
12449WAT     H137589   0.506   3.488   6.997
12449WAT     H237590   0.599   3.444   7.125
12450WAT      O37591   4.327   4.638   8.121
12450WAT     H137592   4.311   4.540   8.124
12450WAT     H237593   4.356   4.664   8.029
12451WAT      O37594   2.551   8.915   5.129
12451WAT     H137595   2.544   8.987   5.199
12451WAT     H237596   2.569   8.827   5.174
12452WAT      O37597   7.092   0.397   8.498
12452WAT     H137598   7.056   0.327   8.437
12452WAT     H237599   7.192   0.402   8.487
12453WAT      O37600   4.107   7.549   1.840
12453WAT     H137601   4.038   7.484   1.871
12453WAT     H237602   4.079   7.587   1.751
12454WAT      O37603   8.424   4.797   9.501
12454WAT     H137604   8.433   4.894   9.523
12454WAT     H237605   8.384   4.787   9.410
12455WAT      O37606   2.561   2.505   8.918
12455WAT     H137607   2.614   2.565   8.978
12455WAT     H237608   2.577   2.529   8.823
12456WAT      O37609   4.955   2.761   8.850
12456WAT     H137610   4.873   2.712   8.821
12456WAT     H237611   4.936   2.859   8.853
12457WAT      O37612   9.299   4.630   7.451
12457WAT     H137613   9.381   4.629   7.507
12457WAT     H237614   9.323   4.654   7.357
12458WAT      O37615   2.856   4.459   7.367
12458WAT     H137616   2.880   4.475   7.462
12458WAT     H237617   2.882   4.539   7.313
12459WAT      O37618   3.278   9.667   6.980
12459WAT     H137619   3.306   9.744   7.038
12459WAT     H237620   3.191   9.630   7.014
12460WAT      O37621   2.578   7.208   3.390
12460WAT     H137622   2.630   7.145   3.448
12460WAT     H237623   2.542   7.282   3.447
12461WAT      O37624   2.670   1.464   2.617
12461WAT     H137625   2.600   1.393   2.604
12461WAT     H237626   2.633   1.536   2.676
12462WAT      O37627   1.320   9.472   1.414
12462WAT     H137628   1.312   9.566   1.381
12462WAT     H237629   1.230   9.439   1.442
12463WAT      O37630   7.440   8.011   1.760
12463WAT     H137631   7.424   8.109   1.747
12463WAT     H237632   7.367   7.972   1.815
12464WAT      O37633   0.508   7.816   0.812
12464WAT     H137634   0.489   7.800   0.908
12464WAT     H237635   0.425   7.802   0.758
12465WAT      O37636   1.712   8.304   1.501
12465WAT     H137637   1.620   8.263   1.503
12465WAT     H237638   1.780   8.232   1.513
12466WAT      O37639   3.119   6.832   9.255
12466WAT     H137640   3.158   6.924   9.248
12466WAT     H237641   3.191   6.764   9.249
12467WAT      O37642   5.644   4.416   0.938
12467WAT     H137643   5.572   4.407   1.007
12467WAT     H237644   5.656   4.512   0.915
12468WAT      O37645   7.198   2.885   0.595
12468WAT     H137646   7.150   2.917   0.513
12468WAT     H237647   7.243   2.962   0.640
12469WAT      O37648   9.010   9.823   3.969
12469WAT     H137649   9.051   9.761   3.902
12469WAT     H237650   8.914   9.800   3.982
12470WAT      O37651   1.776   0.498   3.138
12470WAT     H137652   1.677   0.510   3.147
12470WAT     H237653   1.800   0.404   3.160
12471WAT      O37654   8.492   9.525   9.446
12471WAT     H137655   8.427   9.454   9.474
12471WAT     H237656   8.497   9.528   9.346
12472WAT      O37657   3.986   8.968   1.949
12472WAT     H137658   4.060   9.010   2.002
12472WAT     H237659   3.899   8.980   1.997
12473WAT      O37660   4.170   9.083   8.091
12473WAT     H137661   4.085   9.117   8.051
12473WAT     H237662   4.188   9.132   8.176
12474WAT      O37663   7.631   5.671   7.099
12474WAT     H137664   7.651   5.643   7.193
12474WAT     H237665   7.587   5.595   7.050
12475WAT      O37666   9.849   7.008   9.328
12475WAT     H137667   9.782   7.076   9.299
12475WAT     H237668   9.922   7.052   9.380
12476WAT      O37669   4.698   9.640   4.109
12476WAT     H137670   4.792   9.670   4.091
12476WAT     H237671   4.636   9.719   4.100
12477WAT      O37672   2.622   8.349   7.467
12477WAT     H137673   2.581   8.438   7.485
12477WAT     H237674   2.714   8.346   7.506
12478WAT      O37675   0.511   3.457   8.782
12478WAT     H137676   0.579   3.413   8.724
12478WAT     H237677   0.463   3.387   8.836
12479WAT      O37678   6.693   4.145   5.870
12479WAT     H137679   6.778   4.195   5.854
12479WAT     H237680   6.704   4.051   5.838
12480WAT      O37681   7.091   8.750   8.964
12480WAT     H137682   7.130   8.688   8.896
12480WAT     H237683   7.050   8.829   8.917
12481WAT      O37684   2.463   0.375   2.848
12481WAT     H137685   2.468   0.411   2.941
12481WAT     H237686   2.547   0.325   2.827
12482WAT      O37687   1.757   7.761   8.049
12482WAT     H137688   1.781   7.851   8.085
12482WAT     H237689   1.708   7.709   8.118
12483WAT      O37690   1.245   4.275   0.354
12483WAT     H137691   1.214   4.261   0.448
12483WAT     H237692   1.320   4.341   0.353
12484WAT      O37693   7.649   8.624   4.463
12484WAT     H137694   7.675   8.595   4.371
12484WAT     H237695   7.719   8.685   4.500
12485WAT      O37696   5.453   6.739   1.805
12485WAT     H137697   5.384   6.757   1.736
12485WAT     H237698   5.446   6.808   1.878
12486WAT      O37699   8.473   5.358   6.309
12486WAT     H137700   8.427   5.412   6.379
12486WAT     H237701   8.413   5.348   6.229
12487WAT      O37702   1.608   7.615   8.270
12487WAT     H137703   1.544   7.541   8.251
12487WAT     H237704   1.557   7.698   8.292
12488WAT      O37705   9.739   9.589   4.546
12488WAT     H137706   9.773   9.573   4.638
12488WAT     H237707   9.658   9.648   4.551
12489WAT      O37708   0.674   3.102   0.561
12489WAT     H137709   0.696   3.031   0.629
12489WAT     H237710   0.721   3.081   0.475
12490WAT      O37711   1.571   6.241   7.325
12490WAT     H137712   1.661   6.207   7.296
12490WAT     H237713   1.578   6.339   7.346
12491WAT      O37714   2.521   9.701   7.083
12491WAT     H137715   2.608   9.700   7.034
12491WAT     H237716   2.538   9.689   7.181
12492WAT      O37717   4.127   1.799   4.313
12492WAT     H137718   4.225   1.795   4.332
12492WAT     H237719   4.078   1.740   4.378
12493WAT      O37720   9.619   7.927   2.790
12493WAT     H137721   9.605   7.942   2.888
12493WAT     H237722   9.580   7.838   2.765
12494WAT      O37723   4.073   7.476   3.818
12494WAT     H137724   4.064   7.403   3.886
12494WAT     H237725   3.983   7.513   3.797
12495WAT      O37726   1.523   8.403   3.185
12495WAT     H137727   1.598   8.467   3.203
12495WAT     H237728   1.484   8.371   3.271
12496WAT      O37729   4.478   1.062   2.482
12496WAT     H137730   4.429   1.090   2.399
12496WAT     H237731   4.534   1.138   2.515
12497WAT      O37732   2.532   7.849   1.258
12497WAT     H137733   2.525   7.776   1.326
12497WAT     H237734   2.447   7.902   1.257
12498WAT      O37735   6.813   0.110   2.128
12498WAT     H137736   6.772   0.054   2.200
12498WAT     H237737   6.900   0.069   2.100
12499WAT      O37738   9.541   7.904   5.832
12499WAT     H137739   9.619   7.891   5.770
12499WAT     H237740   9.574   7.910   5.926
12500WAT      O37741   3.392   9.274   4.350
12500WAT     H137742   3.469   9.261   4.288
12500WAT     H237743   3.427   9.302   4.440
12501WAT      O37744   5.220   2.086   5.669
12501WAT     H137745   5.134   2.081   5.619
12501WAT     H237746   5.288   2.028   5.625
12502WAT      O37747   9.819   0.474   1.078
12502WAT     H137748   9.845   0.559   1.125
12502WAT     H237749   9.841   0.396   1.136
12503WAT      O37750   2.734   8.241   1.154
12503WAT     H137751   2.677   8.312   1.114
12503WAT     H237752   2.824   8.279   1.177
12504WAT      O37753   7.461   5.102   2.764
12504WAT     H137754   7.539   5.043   2.742
12504WAT     H237755   7.439   5.093   2.861
12505WAT      O37756   8.015   4.108   3.943
12505WAT     H137757   8.042   4.047   4.016
12505WAT     H237758   7.924   4.145   3.962
12506WAT      O37759   7.235   1.360   9.084
12506WAT     H137760   7.249   1.293   9.012
12506WAT     H237761   7.164   1.425   9.055
12507WAT      O37762   8.231   6.502   1.870
12507WAT     H137763   8.154   6.473   1.927
12507WAT     H237764   8.288   6.423   1.849
12508WAT      O37765   1.743   4.338   2.003
12508WAT     H137766   1.701   4.374   1.920
12508WAT     H237767   1.735   4.405   2.077
12509WAT      O37768   0.186   8.942   5.225
12509WAT     H137769   0.088   8.924   5.227
12509WAT     H237770   0.207   9.024   5.279
12510WAT      O37771   0.286   5.244   4.609
12510WAT     H137772   0.206   5.191   4.583
12510WAT     H237773   0.271   5.287   4.698
12511WAT      O37774   8.796   8.973   7.606
12511WAT     H137775   8.720   8.912   7.582
12511WAT     H237776   8.760   9.065   7.621
12512WAT      O37777   1.316   1.802   8.425
12512WAT     H137778   1.337   1.886   8.474
12512WAT     H237779   1.390   1.780   8.362
12513WAT      O37780   8.977   5.806   3.415
12513WAT     H137781   8.939   5.714   3.424
12513WAT     H237782   9.004   5.822   3.320
12514WAT      O37783   6.326   6.315   3.417
12514WAT     H137784   6.363   6.225   3.391
12514WAT     H237785   6.310   6.318   3.515
12515WAT      O37786   7.835   5.137   8.947
12515WAT     H137787   7.927   5.109   8.976
12515WAT     H237788   7.773   5.059   8.954
12516WAT      O37789   0.902   1.757   8.906
12516WAT     H137790   0.871   1.692   8.837
12516WAT     H237791   1.001   1.752   8.914
12517WAT      O37792   4.818   0.371   6.572
12517WAT     H137793   4.721   0.370   6.545
12517WAT     H237794   4.825   0.377   6.671
12518WAT      O37795   6.891   2.045   4.446
12518WAT     H137796   6.806   2.096   4.432
12518WAT     H237797   6.962   2.081   4.385
12519WAT      O37798   2.222   4.047   9.126
12519WAT     H137799   2.212   4.143   9.102
12519WAT     H237800   2.204   4.035   9.224
12520WAT      O37801   8.446   7.558   3.484
12520WAT     H137802   8.444   7.598   3.393
12520WAT     H237803   8.450   7.459   3.478
12521WAT      O37804   6.592   5.988   3.841
12521WAT     H137805   6.630   5.896   3.836
12521WAT     H237806   6.652   6.052   3.793
12522WAT      O37807   8.937   1.312   5.910
12522WAT     H137808   8.927   1.406   5.878
12522WAT     H237809   8.879   1.252   5.856
12523WAT      O37810   0.437   8.697   9.868
12523WAT     H137811   0.397   8.786   9.889
12523WAT     H237812   0.400   8.664   9.781
12524WAT      O37813   0.455   9.640   1.714
12524WAT     H137814   0.373   9.582   1.715
12524WAT     H237815   0.442   9.715   1.650
12525WAT      O37816   8.452   5.735   5.518
12525WAT     H137817   8.468   5.653   5.463
12525WAT     H237818   8.491   5.722   5.609
12526WAT      O37819   7.018   9.118   2.393
12526WAT     H137820   7.061   9.126   2.483
12526WAT     H237821   7.035   9.027   2.356
12527WAT      O37822   5.811   5.744   2.294
12527WAT     H137823   5.891   5.788   2.254
12527WAT     H237824   5.788   5.787   2.381
12528WAT      O37825   9.491   6.719   5.572
12528WAT     H137826   9.562   6.709   5.502
12528WAT     H237827   9.430   6.794   5.546
12529WAT      O37828   2.322   7.622   8.991
12529WAT     H137829   2.349   7.713   9.023
12529WAT     H237830   2.236   7.629   8.940
12530WAT      O37831   7.406   7.781   0.152
12530WAT     H137832   7.387   7.685   0.174
12530WAT     H237833   7.333   7.817   0.094
12531WAT      O37834   6.113   9.063   1.592
12531WAT     H137835   6.167   9.127   1.538
12531WAT     H237836   6.054   9.113   1.655
12532WAT      O37837   1.819   8.836   2.999
12532WAT     H137838   1.870   8.812   2.917
12532WAT     H237839   1.734   8.784   3.002
12533WAT      O37840   4.824   7.753   6.336
12533WAT     H137841   4.783   7.806   6.261
12533WAT     H237842   4.908   7.709   6.303
12534WAT      O37843   1.260   3.069   4.569
12534WAT     H137844   1.308   3.157   4.577
12534WAT     H237845   1.225   3.042   4.659
12535WAT      O37846   8.505   0.477   4.954
12535WAT     H137847   8.595   0.512   4.927
12535WAT     H237848   8.500   0.474   5.054
12536WAT      O37849   7.496   6.057   8.072
12536WAT     H137850   7.574   6.119   8.083
12536WAT     H237851   7.501   6.012   7.983
12537WAT      O37852   6.336   3.954   4.355
12537WAT     H137853   6.336   3.933   4.257
12537WAT     H237854   6.431   3.959   4.387
12538WAT      O37855   9.249   3.382   6.419
12538WAT     H137856   9.291   3.471   6.436
12538WAT     H237857   9.155   3.395   6.386
12539WAT      O37858   4.121   0.782   0.347
12539WAT     H137859   4.107   0.689   0.379
12539WAT     H237860   4.101   0.847   0.421
12540WAT      O37861   4.175   9.355   3.124
12540WAT     H137862   4.171   9.347   3.224
12540WAT     H237863   4.203   9.268   3.084
12541WAT      O37864   8.670   4.114   3.853
12541WAT     H137865   8.744   4.049   3.876
12541WAT     H237866   8.608   4.121   3.931
12542WAT      O37867   7.486   6.970   3.340
12542WAT     H137868   7.461   7.054   3.389
12542WAT     H237869   7.473   6.892   3.401
12543WAT      O37870   8.330   6.499   8.960
12543WAT     H137871   8.316   6.474   8.864
12543WAT     H237872   8.319   6.598   8.970
12544WAT      O37873   1.186   1.225   9.458
12544WAT     H137874   1.268   1.280   9.477
12544WAT     H237875   1.112   1.252   9.519
12545WAT      O37876   5.105   7.544   4.199
12545WAT     H137877   5.052   7.510   4.277
12545WAT     H237878   5.148   7.468   4.152
12546WAT      O37879   3.312   9.078   1.149
12546WAT     H137880   3.291   9.154   1.211
12546WAT     H237881   3.238   9.066   1.084
12547WAT      O37882   7.601   5.347   3.443
12547WAT     H137883   7.694   5.327   3.476
12547WAT     H237884   7.538   5.277   3.476
12548WAT      O37885   8.505   1.177   6.693
12548WAT     H137886   8.405   1.179   6.695
12548WAT     H237887   8.535   1.117   6.619
12549WAT      O37888   3.657   5.597   1.632
12549WAT     H137889   3.610   5.604   1.720
12549WAT     H237890   3.712   5.514   1.629
12550WAT      O37891   4.188   4.770   7.279
12550WAT     H137892   4.143   4.686   7.250
12550WAT     H237893   4.219   4.821   7.199
12551WAT      O37894   2.774   1.558   6.660
12551WAT     H137895   2.808   1.610   6.739
12551WAT     H237896   2.739   1.622   6.592
12552WAT      O37897   4.502   2.551   2.651
12552WAT     H137898   4.434   2.558   2.724
12552WAT     H237899   4.520   2.454   2.631
12553WAT      O37900   7.714   3.723   9.732
12553WAT     H137901   7.648   3.798   9.729
12553WAT     H237902   7.666   3.636   9.722
12554WAT      O37903   8.181   5.409   9.475
12554WAT     H137904   8.204   5.393   9.379
12554WAT     H237905   8.265   5.402   9.530
12555WAT      O37906   5.773   7.850   3.789
12555WAT     H137907   5.843   7.809   3.847
12555WAT     H237908   5.804   7.940   3.757
12556WAT      O37909   0.976   8.352   9.767
12556WAT     H137910   1.066   8.364   9.725
12556WAT     H237911   0.957   8.254   9.778
12557WAT      O37912   4.669   8.688   3.966
12557WAT     H137913   4.635   8.733   3.883
12557WAT     H237914   4.769   8.682   3.962
12558WAT      O37915   7.827   8.237   6.959
12558WAT     H137916   7.843   8.227   7.057
12558WAT     H237917   7.766   8.165   6.927
12559WAT      O37918   2.748   8.347   6.243
12559WAT     H137919   2.680   8.309   6.306
12559WAT     H237920   2.808   8.410   6.293
12560WAT      O37921   4.125   6.770   4.513
12560WAT     H137922   4.115   6.839   4.442
12560WAT     H237923   4.083   6.803   4.598
12561WAT      O37924   1.717   3.819   7.068
12561WAT     H137925   1.751   3.726   7.056
12561WAT     H237926   1.661   3.825   7.150
12562WAT      O37927   0.563   2.416   0.837
12562WAT     H137928   0.647   2.465   0.813
12562WAT     H237929   0.527   2.452   0.923
12563WAT      O37930   0.549   6.363   0.110
12563WAT     H137931   0.507   6.311   0.185
12563WAT     H237932   0.477   6.398   0.051
12564WAT      O37933   8.799   8.023   0.484
12564WAT     H137934   8.848   7.993   0.566
12564WAT     H237935   8.863   8.059   0.417
12565WAT      O37936   3.515   1.683   6.509
12565WAT     H137937   3.516   1.622   6.430
12565WAT     H237938   3.437   1.661   6.567
12566WAT      O37939   0.062   2.963   1.414
12566WAT     H137940   0.086   3.049   1.370
12566WAT     H237941   0.080   2.887   1.351
12567WAT      O37942   7.552   4.863   6.034
12567WAT     H137943   7.580   4.958   6.018
12567WAT     H237944   7.627   4.813   6.077
12568WAT      O37945   2.836   6.574   9.648
12568WAT     H137946   2.926   6.539   9.625
12568WAT     H237947   2.788   6.599   9.564
12569WAT      O37948   1.797   1.185   4.267
12569WAT     H137949   1.784   1.278   4.301
12569WAT     H237950   1.712   1.151   4.229
12570WAT      O37951   8.847   6.257   6.450
12570WAT     H137952   8.905   6.337   6.466
12570WAT     H237953   8.897   6.174   6.473
12571WAT      O37954   1.119   0.348   4.191
12571WAT     H137955   1.163   0.353   4.102
12571WAT     H237956   1.022   0.371   4.182
12572WAT      O37957   2.447   4.797   2.492
12572WAT     H137958   2.470   4.813   2.588
12572WAT     H237959   2.519   4.742   2.450
12573WAT      O37960   0.768   4.809   0.385
12573WAT     H137961   0.865   4.831   0.373
12573WAT     H237962   0.737   4.845   0.473
12574WAT      O37963   2.520   5.519   3.990
12574WAT     H137964   2.552   5.613   3.985
12574WAT     H237965   2.461   5.500   3.912
12575WAT      O37966   7.408   9.560   8.591
12575WAT     H137967   7.415   9.608   8.504
12575WAT     H237968   7.487   9.499   8.603
12576WAT      O37969   6.750   4.695   4.308
12576WAT     H137970   6.729   4.639   4.388
12576WAT     H237971   6.766   4.637   4.229
12577WAT      O37972   5.573   4.082   5.719
12577WAT     H137973   5.638   4.150   5.754
12577WAT     H237974   5.507   4.127   5.659
12578WAT      O37975   4.064   3.279   1.268
12578WAT     H137976   4.121   3.361   1.272
12578WAT     H237977   4.118   3.203   1.232
12579WAT      O37978   0.254   0.898   6.363
12579WAT     H137979   0.154   0.902   6.369
12579WAT     H237980   0.286   0.811   6.400
12580WAT      O37981   5.791   5.654   3.889
12580WAT     H137982   5.692   5.648   3.881
12580WAT     H237983   5.827   5.706   3.811
12581WAT      O37984   2.123   4.479   1.451
12581WAT     H137985   2.178   4.416   1.507
12581WAT     H237986   2.147   4.467   1.354
12582WAT      O37987   6.441   3.671   9.179
12582WAT     H137988   6.381   3.752   9.184
12582WAT     H237989   6.535   3.698   9.200
12583WAT      O37990   4.438   4.117   9.227
12583WAT     H137991   4.433   4.208   9.186
12583WAT     H237992   4.386   4.116   9.312
12584WAT      O37993   9.109   5.242   8.462
12584WAT     H137994   9.068   5.288   8.384
12584WAT     H237995   9.199   5.207   8.436
12585WAT      O37996   9.494   3.495   2.560
12585WAT     H137997   9.579   3.520   2.607
12585WAT     H237998   9.415   3.524   2.615
12586WAT      O37999   0.520   0.994   2.939
12586WAT     H138000   0.486   0.987   2.845
12586WAT     H238001   0.619   0.984   2.939
12587WAT      O38002   7.153   8.099   4.983
12587WAT     H138003   7.178   8.141   4.895
12587WAT     H238004   7.053   8.100   4.992
12588WAT      O38005   0.004   8.300   2.352
12588WAT     H138006   0.063   8.254   2.286
12588WAT     H238007   0.054   8.375   2.395
12589WAT      O38008   0.471   8.204   6.136
12589WAT     H138009   0.532   8.153   6.076
12589WAT     H238010   0.428   8.278   6.084
12590WAT      O38011   0.167   3.720   7.957
12590WAT     H138012   0.106   3.770   7.895
12590WAT     H238013   0.261   3.755   7.946
12591WAT      O38014   2.586   6.764   2.774
12591WAT     H138015   2.514   6.832   2.764
12591WAT     H238016   2.675   6.808   2.763
12592WAT      O38017   5.627   2.727   2.421
12592WAT     H138018   5.708   2.697   2.471
12592WAT     H238019   5.636   2.824   2.399
12593WAT      O38020   7.626   0.745   6.520
12593WAT     H138021   7.586   0.662   6.479
12593WAT     H238022   7.622   0.738   6.620
12594WAT      O38023   5.711   2.727   8.245
12594WAT     H138024   5.704   2.818   8.286
12594WAT     H238025   5.622   2.683   8.244
12595WAT      O38026   6.121   0.597   2.348
12595WAT     H138027   6.046   0.542   2.384
12595WAT     H238028   6.189   0.612   2.420
12596WAT      O38029   3.086   5.739   3.534
12596WAT     H138030   3.132   5.818   3.575
12596WAT     H238031   2.991   5.762   3.515
12597WAT      O38032   7.732   4.139   5.571
12597WAT     H138033   7.658   4.202   5.593
12597WAT     H238034   7.773   4.165   5.484
12598WAT      O38035   2.854   8.142   2.345
12598WAT     H138036   2.842   8.240   2.361
12598WAT     H238037   2.820   8.119   2.254
12599WAT      O38038   9.701   4.903   7.085
12599WAT     H138039   9.618   4.899   7.140
12599WAT     H238040   9.698   4.832   7.014
12600WAT      O38041   3.876   8.440   1.694
12600WAT     H138042   3.955   8.494   1.665
12600WAT     H238043   3.884   8.418   1.791
12601WAT      O38044   8.109   4.867   2.397
12601WAT     H138045   8.081   4.773   2.418
12601WAT     H238046   8.132   4.874   2.300
12602WAT      O38047   5.825   4.613   0.330
12602WAT     H138048   5.917   4.651   0.342
12602WAT     H238049   5.811   4.589   0.234
12603WAT      O38050   6.792   9.248   9.388
12603WAT     H138051   6.822   9.183   9.318
12603WAT     H238052   6.715   9.209   9.439
12604WAT      O38053   6.880   1.488   0.575
12604WAT     H138054   6.926   1.441   0.650
12604WAT     H238055   6.943   1.495   0.497
12605WAT      O38056   3.705   8.956   0.473
12605WAT     H138057   3.799   8.924   0.490
12605WAT     H238058   3.697   9.052   0.499
12606WAT      O38059   0.758   5.416   7.667
12606WAT     H138060   0.757   5.384   7.762
12606WAT     H238061   0.668   5.403   7.627
12607WAT      O38062   0.783   4.580   0.719
12607WAT     H138063   0.746   4.673   0.716
12607WAT     H238064   0.849   4.567   0.646
12608WAT      O38065   5.627   3.209   5.479
12608WAT     H138066   5.708   3.159   5.511
12608WAT     H238067   5.546   3.152   5.488
12609WAT      O38068   3.601   2.001   0.527
12609WAT     H138069   3.555   1.926   0.481
12609WAT     H238070   3.700   1.984   0.528
12610WAT      O38071   4.630   9.311   2.470
12610WAT     H138072   4.706   9.351   2.418
12610WAT     H238073   4.652   9.216   2.493
12611WAT      O38074   1.205   6.548   8.613
12611WAT     H138075   1.279   6.493   8.653
12611WAT     H238076   1.239   6.640   8.595
12612WAT      O38077   5.889   8.587   6.555
12612WAT     H138078   5.939   8.547   6.632
12612WAT     H238079   5.839   8.668   6.587
12613WAT      O38080   8.364   8.733   7.141
12613WAT     H138081   8.268   8.729   7.114
12613WAT     H238082   8.382   8.822   7.185
12614WAT      O38083   1.368   5.977   5.348
12614WAT     H138084   1.311   6.058   5.333
12614WAT     H238085   1.430   5.965   5.270
12615WAT      O38086   8.043   7.821   5.623
12615WAT     H138087   8.016   7.743   5.567
12615WAT     H238088   8.143   7.822   5.634
12616WAT      O38089   1.133   4.121   7.172
12616WAT     H138090   1.086   4.067   7.241
12616WAT     H238091   1.193   4.062   7.118
12617WAT      O38092   4.613   4.664   6.894
12617WAT     H138093   4.561   4.748   6.875
12617WAT     H238094   4.558   4.604   6.952
12618WAT      O38095   6.061   1.151   2.122
12618WAT     H138096   6.029   1.211   2.048
12618WAT     H238097   6.129   1.199   2.177
12619WAT      O38098   8.187   2.410   8.388
12619WAT     H138099   8.257   2.375   8.452
12619WAT     H238100   8.200   2.508   8.376
12620WAT      O38101   2.782   5.441   9.671
12620WAT     H138102   2.734   5.518   9.629
12620WAT     H238103   2.735   5.416   9.756
12621WAT      O38104   4.144   5.268   9.338
12621WAT     H138105   4.153   5.170   9.320
12621WAT     H238106   4.085   5.310   9.269
12622WAT      O38107   1.780   5.014   5.669
12622WAT     H138108   1.760   4.917   5.659
12622WAT     H238109   1.717   5.055   5.735
12623WAT      O38110   7.012   5.155   6.491
12623WAT     H138111   7.081   5.095   6.450
12623WAT     H238112   7.015   5.146   6.590
12624WAT      O38113   5.784   5.759   8.737
12624WAT     H138114   5.783   5.685   8.804
12624WAT     H238115   5.786   5.721   8.645
12625WAT      O38116   4.830   3.995   4.616
12625WAT     H138117   4.835   4.082   4.566
12625WAT     H238118   4.907   3.936   4.588
12626WAT      O38119   3.796   7.912   5.444
12626WAT     H138120   3.833   7.987   5.389
12626WAT     H238121   3.730   7.949   5.509
12627WAT      O38122   0.200   7.095   1.653
12627WAT     H138123   0.280   7.036   1.660
12627WAT     H238124   0.125   7.058   1.708
12628WAT      O38125   8.039   1.166   9.185
12628WAT     H138126   7.997   1.135   9.100
12628WAT     H238127   8.137   1.150   9.182
12629WAT      O38128   5.786   3.411   3.233
12629WAT     H138129   5.689   3.434   3.233
12629WAT     H238130   5.807   3.352   3.155
12630WAT      O38131   4.356   9.688   5.410
12630WAT     H138132   4.360   9.607   5.469
12630WAT     H238133   4.428   9.683   5.341
12631WAT      O38134   4.868   1.519   0.042
12631WAT     H138135   4.836   1.525  -0.052
12631WAT     H238136   4.878   1.611   0.080
12632WAT      O38137   7.936   4.051   0.695
12632WAT     H138138   8.033   4.067   0.678
12632WAT     H238139   7.923   3.955   0.720
12633WAT      O38140   5.700   4.305   4.540
12633WAT     H138141   5.791   4.277   4.510
12633WAT     H238142   5.704   4.397   4.577
12634WAT      O38143   1.105   5.326   2.571
12634WAT     H138144   1.070   5.383   2.497
12634WAT     H238145   1.068   5.233   2.563
12635WAT      O38146   3.372   5.220   2.916
12635WAT     H138147   3.407   5.202   3.008
12635WAT     H238148   3.416   5.159   2.851
12636WAT      O38149   3.380   0.456   2.530
12636WAT     H138150   3.280   0.453   2.524
12636WAT     H238151   3.416   0.526   2.468
12637WAT      O38152   1.774   6.266   1.695
12637WAT     H138153   1.799   6.347   1.748
12637WAT     H238154   1.682   6.235   1.721
12638WAT      O38155   5.386   0.455   0.629
12638WAT     H138156   5.478   0.466   0.666
12638WAT     H238157   5.386   0.479   0.532
12639WAT      O38158   5.995   4.407   5.870
12639WAT     H138159   6.003   4.323   5.815
12639WAT     H238160   6.039   4.483   5.821
12640WAT      O38161   1.377   9.080   4.654
12640WAT     H138162   1.309   9.008   4.643
12640WAT     H238163   1.366   9.123   4.744
12641WAT      O38164   3.252   0.636   6.973
12641WAT     H138165   3.160   0.597   6.967
12641WAT     H238166   3.319   0.562   6.983
12642WAT      O38167   6.186   6.646   0.798
12642WAT     H138168   6.169   6.685   0.889
12642WAT     H238169   6.166   6.548   0.800
12643WAT      O38170   8.245   3.546   7.146
12643WAT     H138171   8.150   3.573   7.163
12643WAT     H238172   8.295   3.544   7.232
12644WAT      O38173   8.486   1.078   9.432
12644WAT     H138174   8.503   1.015   9.507
12644WAT     H238175   8.573   1.118   9.402
12645WAT      O38176   3.101   7.848   5.495
12645WAT     H138177   3.023   7.893   5.540
12645WAT     H238178   3.164   7.918   5.462
12646WAT      O38179   0.697   9.180   7.751
12646WAT     H138180   0.710   9.126   7.667
12646WAT     H238181   0.758   9.259   7.749
12647WAT      O38182   2.509   7.913   9.506
12647WAT     H138183   2.463   7.896   9.593
12647WAT     H238184   2.471   7.853   9.436
12648WAT      O38185   4.269   0.628   7.880
12648WAT     H138186   4.276   0.670   7.790
12648WAT     H238187   4.174   0.634   7.912
12649WAT      O38188   4.156   9.255   4.561
12649WAT     H138189   4.150   9.248   4.461
12649WAT     H238190   4.250   9.236   4.590
12650WAT      O38191   8.121   1.453   3.446
12650WAT     H138192   8.082   1.426   3.357
12650WAT     H238193   8.218   1.429   3.449
12651WAT      O38194   5.819   2.898   7.052
12651WAT     H138195   5.774   2.818   7.092
12651WAT     H238196   5.753   2.949   6.997
12652WAT      O38197   7.109   8.586   0.506
12652WAT     H138198   7.194   8.563   0.552
12652WAT     H238199   7.062   8.502   0.478
12653WAT      O38200   7.571   0.154   8.339
12653WAT     H138201   7.514   0.077   8.309
12653WAT     H238202   7.663   0.142   8.303
12654WAT      O38203   2.554   5.887   3.725
12654WAT     H138204   2.626   5.953   3.746
12654WAT     H238205   2.595   5.796   3.715
12655WAT      O38206   8.332   1.693   1.617
12655WAT     H138207   8.328   1.793   1.622
12655WAT     H238208   8.242   1.658   1.589
12656WAT      O38209   7.495   3.625   1.406
12656WAT     H138210   7.592   3.641   1.389
12656WAT     H238211   7.485   3.571   1.490
12657WAT      O38212   5.252   8.603   3.935
12657WAT     H138213   5.161   8.605   3.977
12657WAT     H238214   5.291   8.695   3.933
12658WAT      O38215   8.587   9.074   8.885
12658WAT     H138216   8.536   8.989   8.901
12658WAT     H238217   8.667   9.055   8.829
12659WAT      O38218   4.230   9.521   4.512
12659WAT     H138219   4.150   9.568   4.550
12659WAT     H238220   4.222   9.423   4.532
12660WAT      O38221   8.894   7.737   0.374
12660WAT     H138222   8.914   7.792   0.455
12660WAT     H238223   8.955   7.657   0.372
12661WAT      O38224   0.191   4.274   0.819
12661WAT     H138225   0.200   4.373   0.817
12661WAT     H238226   0.267   4.235   0.872
12662WAT      O38227   2.361   0.716   4.546
12662WAT     H138228   2.308   0.792   4.507
12662WAT     H238229   2.352   0.717   4.646
12663WAT      O38230   4.622   7.065   5.409
12663WAT     H138231   4.654   7.010   5.332
12663WAT     H238232   4.524   7.084   5.397
12664WAT      O38233   4.883   6.749   9.147
12664WAT     H138234   4.817   6.713   9.213
12664WAT     H238235   4.913   6.840   9.174
12665WAT      O38236   3.032   7.807   0.614
12665WAT     H138237   3.099   7.734   0.608
12665WAT     H238238   2.951   7.775   0.664
12666WAT      O38239   5.923   2.680   7.765
12666WAT     H138240   5.878   2.760   7.724
12666WAT     H238241   5.889   2.667   7.858
12667WAT      O38242   6.580   4.614   1.233
12667WAT     H138243   6.634   4.534   1.259
12667WAT     H238244   6.579   4.680   1.309
12668WAT      O38245   8.939   4.882   3.780
12668WAT     H138246   8.880   4.928   3.847
12668WAT     H238247   9.012   4.834   3.828
12669WAT      O38248   6.659   7.518   1.641
12669WAT     H138249   6.748   7.498   1.599
12669WAT     H238250   6.673   7.541   1.738
12670WAT      O38251   8.908   2.213   0.389
12670WAT     H138252   8.972   2.288   0.402
12670WAT     H238253   8.952   2.140   0.337
12671WAT      O38254   4.958   7.090   1.863
12671WAT     H138255   5.032   7.023   1.875
12671WAT     H238256   4.870   7.046   1.879
12672WAT      O38257   9.006   8.889   2.634
12672WAT     H138258   9.077   8.934   2.580
12672WAT     H238259   8.950   8.832   2.575
12673WAT      O38260   1.597   6.166   0.659
12673WAT     H138261   1.684   6.192   0.618
12673WAT     H238262   1.590   6.205   0.750
12674WAT      O38263   8.267   1.701   6.122
12674WAT     H138264   8.216   1.694   6.208
12674WAT     H238265   8.203   1.704   6.045
12675WAT      O38266   7.407   7.767   5.191
12675WAT     H138267   7.339   7.764   5.119
12675WAT     H238268   7.490   7.720   5.161
12676WAT      O38269   1.288   1.326   1.860
12676WAT     H138270   1.193   1.332   1.829
12676WAT     H238271   1.336   1.410   1.836
12677WAT      O38272   2.882   7.360   6.494
12677WAT     H138273   2.906   7.427   6.425
12677WAT     H238274   2.784   7.341   6.490
12678WAT      O38275   1.278   0.034   0.059
12678WAT     H138276   1.368   0.008   0.093
12678WAT     H238277   1.229   0.084   0.130
12679WAT      O38278   0.494   6.491   6.203
12679WAT     H138279   0.411   6.527   6.158
12679WAT     H238280   0.488   6.392   6.211
12680WAT      O38281   0.351   3.383   6.756
12680WAT     H138282   0.328   3.366   6.852
12680WAT     H238283   0.362   3.295   6.709
12681WAT      O38284   3.798   6.797   0.338
12681WAT     H138285   3.802   6.889   0.299
12681WAT     H238286   3.786   6.803   0.437
12682WAT      O38287   4.360   3.126   8.332
12682WAT     H138288   4.401   3.126   8.241
12682WAT     H238289   4.378   3.039   8.377
12683WAT      O38290   5.746   4.704   6.979
12683WAT     H138291   5.700   4.626   7.021
12683WAT     H238292   5.843   4.702   7.003
12684WAT      O38293   5.831   7.617   4.363
12684WAT     H138294   5.743   7.632   4.319
12684WAT     H238295   5.861   7.523   4.347
12685WAT      O38296   7.830   2.027   1.890
12685WAT     H138297   7.737   2.015   1.926
12685WAT     H238298   7.836   2.116   1.844
12686WAT      O38299   4.513   4.941   1.843
12686WAT     H138300   4.429   4.886   1.843
12686WAT     H238301   4.523   4.988   1.756
12687WAT      O38302   5.198   4.212   1.046
12687WAT     H138303   5.269   4.146   1.070
12687WAT     H238304   5.185   4.276   1.122
12688WAT      O38305   5.426   1.829   7.729
12688WAT     H138306   5.430   1.785   7.639
12688WAT     H238307   5.365   1.776   7.789
12689WAT      O38308   7.946   3.373   7.002
12689WAT     H138309   7.888   3.332   7.074
12689WAT     H238310   8.039   3.337   7.011
12690WAT      O38311   7.383   0.481   3.089
12690WAT     H138312   7.475   0.495   3.124
12690WAT     H238313   7.385   0.480   2.989
12691WAT      O38314   9.143   4.120   5.274
12691WAT     H138315   9.044   4.122   5.258
12691WAT     H238316   9.168   4.032   5.316
12692WAT      O38317   5.455   7.101   2.651
12692WAT     H138318   5.471   7.043   2.731
12692WAT     H238319   5.536   7.159   2.636
12693WAT      O38320   3.119   0.255   3.920
12693WAT     H138321   3.102   0.202   4.003
12693WAT     H238322   3.142   0.193   3.845
12694WAT      O38323   1.081   0.020   6.987
12694WAT     H138324   1.034  -0.001   6.901
12694WAT     H238325   1.033   0.093   7.035
12695WAT      O38326   3.998   9.165   9.398
12695WAT     H138327   4.080   9.180   9.342
12695WAT     H238328   3.933   9.109   9.347
12696WAT      O38329   1.720   1.275   3.700
12696WAT     H138330   1.680   1.196   3.746
12696WAT     H238331   1.711   1.265   3.601
12697WAT      O38332   9.368   5.818   9.625
12697WAT     H138333   9.323   5.853   9.544
12697WAT     H238334   9.452   5.770   9.599
12698WAT      O38335   1.500   1.393   6.288
12698WAT     H138336   1.532   1.481   6.253
12698WAT     H238337   1.401   1.386   6.275
12699WAT      O38338   8.322   3.209   0.152
12699WAT     H138339   8.265   3.144   0.203
12699WAT     H238340   8.368   3.162   0.078
12700WAT      O38341   7.770   7.465   8.197
12700WAT     H138342   7.689   7.407   8.198
12700WAT     H238343   7.818   7.459   8.284
12701WAT      O38344   4.785   8.113   9.271
12701WAT     H138345   4.689   8.125   9.294
12701WAT     H238346   4.800   8.018   9.240
12702WAT      O38347   3.419   0.703   1.575
12702WAT     H138348   3.449   0.694   1.480
12702WAT     H238349   3.499   0.702   1.635
12703WAT      O38350   5.327   3.658   8.586
12703WAT     H138351   5.229   3.660   8.605
12703WAT     H238352   5.352   3.736   8.529
12704WAT      O38353   3.389   3.336   3.694
12704WAT     H138354   3.304   3.306   3.737
12704WAT     H238355   3.374   3.351   3.597
12705WAT      O38356   9.515   4.605   7.640
12705WAT     H138357   9.559   4.522   7.674
12705WAT     H238358   9.527   4.679   7.707
12706WAT      O38359   4.840   7.673   5.689
12706WAT     H138360   4.880   7.619   5.615
12706WAT     H238361   4.875   7.641   5.777
12707WAT      O38362   1.050   6.040   7.973
12707WAT     H138363   1.132   6.091   8.000
12707WAT     H238364   0.983   6.104   7.936
12708WAT      O38365   0.808   3.440   0.541
12708WAT     H138366   0.713   3.411   0.528
12708WAT     H238367   0.821   3.471   0.636
12709WAT      O38368   1.536   1.905   4.243
12709WAT     H138369   1.558   1.915   4.146
12709WAT     H238370   1.596   1.965   4.297
12710WAT      O38371   1.309   1.457   5.894
12710WAT     H138372   1.361   1.391   5.948
12710WAT     H238373   1.309   1.546   5.940
12711WAT      O38374   3.779   6.707   0.999
12711WAT     H138375   3.684   6.680   0.985
12711WAT     H238376   3.782   6.788   1.058
12712WAT      O38377   5.923   4.616   7.498
12712WAT     H138378   5.888   4.531   7.458
12712WAT     H238379   5.962   4.674   7.427
12713WAT      O38380   5.001   0.120   1.751
12713WAT     H138381   4.969   0.033   1.788
12713WAT     H238382   5.094   0.110   1.717
12714WAT      O38383   1.530   2.827   6.577
12714WAT     H138384   1.446   2.811   6.525
12714WAT     H238385   1.508   2.833   6.674
12715WAT      O38386   9.823   5.573   8.163
12715WAT     H138387   9.874   5.657   8.149
12715WAT     H238388   9.727   5.588   8.143
12716WAT      O38389   2.393   8.955   9.455
12716WAT     H138390   2.303   8.934   9.492
12716WAT     H238391   2.462   8.900   9.502
12717WAT      O38392   3.911   6.994   5.670
12717WAT     H138393   3.815   6.986   5.699
12717WAT     H238394   3.969   6.939   5.730
12718WAT      O38395   0.270   2.284   6.317
12718WAT     H138396   0.209   2.346   6.368
12718WAT     H238397   0.292   2.325   6.228
12719WAT      O38398   9.836   5.946   8.101
12719WAT     H138399   9.738   5.932   8.085
12719WAT     H238400   9.882   5.961   8.014
12720WAT      O38401   3.101   3.361   7.189
12720WAT     H138402   3.049   3.339   7.271
12720WAT     H238403   3.195   3.328   7.199
12721WAT      O38404   2.851   0.447   2.107
12721WAT     H138405   2.763   0.433   2.061
12721WAT     H238406   2.924   0.406   2.053
12722WAT      O38407   0.772   4.805   3.779
12722WAT     H138408   0.857   4.760   3.752
12722WAT     H238409   0.728   4.845   3.699
12723WAT      O38410   5.528   1.470   7.923
12723WAT     H138411   5.523   1.558   7.970
12723WAT     H238412   5.476   1.475   7.838
12724WAT      O38413   7.815   4.169   1.888
12724WAT     H138414   7.746   4.234   1.920
12724WAT     H238415   7.822   4.174   1.789
12725WAT      O38416   6.474   1.525   7.320
12725WAT     H138417   6.496   1.582   7.241
12725WAT     H238418   6.550   1.530   7.385
12726WAT      O38419   1.089   3.665   9.809
12726WAT     H138420   1.180   3.635   9.838
12726WAT     H238421   1.085   3.668   9.709
12727WAT      O38422   7.678   1.209   8.183
12727WAT     H138423   7.731   1.162   8.112
12727WAT     H238424   7.661   1.146   8.259
12728WAT      O38425   7.551   5.138   7.544
12728WAT     H138426   7.484   5.200   7.584
12728WAT     H238427   7.503   5.065   7.495
12729WAT      O38428   6.992   7.327   2.754
12729WAT     H138429   6.923   7.259   2.780
12729WAT     H238430   6.996   7.332   2.654
12730WAT      O38431   1.534   0.216   6.993
12730WAT     H138432   1.450   0.268   7.008
12730WAT     H238433   1.524   0.159   6.911
12731WAT      O38434   2.618   2.314   4.378
12731WAT     H138435   2.587   2.409   4.387
12731WAT     H238436   2.696   2.299   4.439
12732WAT      O38437   5.016   9.742   2.687
12732WAT     H138438   4.941   9.712   2.629
12732WAT     H238439   5.048   9.832   2.656
12733WAT      O38440   7.349   7.461   1.199
12733WAT     H138441   7.278   7.525   1.171
12733WAT     H238442   7.439   7.504   1.188
12734WAT      O38443   1.182   0.546   3.682
12734WAT     H138444   1.123   0.490   3.740
12734WAT     H238445   1.145   0.548   3.589
12735WAT      O38446   1.213   4.198   3.066
12735WAT     H138447   1.229   4.246   3.152
12735WAT     H238448   1.140   4.130   3.078
12736WAT      O38449   2.278   7.965   2.268
12736WAT     H138450   2.182   7.968   2.243
12736WAT     H238451   2.287   7.936   2.363
12737WAT      O38452   2.537   4.810   7.699
12737WAT     H138453   2.542   4.748   7.777
12737WAT     H238454   2.570   4.763   7.617
12738WAT      O38455   5.798   9.304   1.455
12738WAT     H138456   5.805   9.214   1.497
12738WAT     H238457   5.853   9.370   1.506
12739WAT      O38458   3.521   3.521   0.920
12739WAT     H138459   3.559   3.588   0.984
12739WAT     H238460   3.488   3.441   0.970
12740WAT      O38461   8.013   4.277   2.521
12740WAT     H138462   8.052   4.202   2.466
12740WAT     H238463   7.916   4.258   2.537
12741WAT      O38464   5.926   0.003   8.471
12741WAT     H138465   6.020   0.021   8.441
12741WAT     H238466   5.871  -0.025   8.393
12742WAT      O38467   7.405   8.744   9.351
12742WAT     H138468   7.498   8.740   9.389
12742WAT     H238469   7.363   8.654   9.354
12743WAT      O38470   0.626   6.540   9.540
12743WAT     H138471   0.599   6.633   9.565
12743WAT     H238472   0.696   6.543   9.468
12744WAT      O38473   4.330   4.223   6.623
12744WAT     H138474   4.270   4.249   6.699
12744WAT     H238475   4.340   4.124   6.621
12745WAT      O38476   6.467   3.415   9.494
12745WAT     H138477   6.487   3.441   9.589
12745WAT     H238478   6.543   3.362   9.458
12746WAT      O38479   0.635   8.625   5.764
12746WAT     H138480   0.559   8.567   5.733
12746WAT     H238481   0.682   8.663   5.684
12747WAT      O38482   8.136   6.743   6.198
12747WAT     H138483   8.186   6.771   6.117
12747WAT     H238484   8.097   6.823   6.244
12748WAT      O38485   3.779   9.584   7.338
12748WAT     H138486   3.811   9.645   7.410
12748WAT     H238487   3.689   9.613   7.306
12749WAT      O38488   2.432   8.927   4.883
12749WAT     H138489   2.456   8.883   4.970
12749WAT     H238490   2.510   8.981   4.851
12750WAT      O38491   2.628   7.469   2.580
12750WAT     H138492   2.615   7.490   2.677
12750WAT     H238493   2.712   7.511   2.548
12751WAT      O38494   7.264   0.878   8.781
12751WAT     H138495   7.335   0.811   8.761
12751WAT     H238496   7.301   0.948   8.843
12752WAT      O38497   2.506   1.068   4.876
12752WAT     H138498   2.470   1.142   4.933
12752WAT     H238499   2.523   1.103   4.784
12753WAT      O38500   4.505   8.602   0.356
12753WAT     H138501   4.530   8.505   0.362
12753WAT     H238502   4.587   8.658   0.370
12754WAT      O38503   2.971   2.879   9.855
12754WAT     H138504   2.994   2.898   9.760
12754WAT     H238505   3.038   2.815   9.894
12755WAT      O38506   9.705   7.984   7.325
12755WAT     H138507   9.707   7.898   7.377
12755WAT     H238508   9.798   8.017   7.310
12756WAT      O38509   9.481   6.807   1.344
12756WAT     H138510   9.468   6.857   1.429
12756WAT     H238511   9.537   6.862   1.282
12757WAT      O38512   6.428   6.304   0.759
12757WAT     H138513   6.425   6.211   0.794
12757WAT     H238514   6.498   6.312   0.689
12758WAT      O38515   7.161   8.254   0.695
12758WAT     H138516   7.225   8.180   0.673
12758WAT     H238517   7.209   8.327   0.742
12759WAT      O38518   2.058   0.351   4.726
12759WAT     H138519   2.047   0.357   4.825
12759WAT     H238520   2.071   0.443   4.689
12760WAT      O38521   1.969   3.118   7.694
12760WAT     H138522   2.007   3.046   7.753
12760WAT     H238523   2.011   3.205   7.718
12761WAT      O38524   9.645   2.332   5.589
12761WAT     H138525   9.591   2.393   5.532
12761WAT     H238526   9.643   2.240   5.551
12762WAT      O38527   0.662   6.364   4.959
12762WAT     H138528   0.699   6.457   4.963
12762WAT     H238529   0.729   6.303   4.918
12763WAT      O38530   3.389   5.620   5.939
12763WAT     H138531   3.376   5.548   5.870
12763WAT     H238532   3.300   5.644   5.978
12764WAT      O38533   8.118   6.747   3.677
12764WAT     H138534   8.202   6.716   3.722
12764WAT     H238535   8.043   6.748   3.743
12765WAT      O38536   2.637   2.700   8.179
12765WAT     H138537   2.603   2.632   8.244
12765WAT     H238538   2.559   2.741   8.131
12766WAT      O38539   8.992   6.361   9.144
12766WAT     H138540   9.051   6.286   9.175
12766WAT     H238541   9.048   6.438   9.116
12767WAT      O38542   8.810   8.768   2.472
12767WAT     H138543   8.752   8.829   2.418
12767WAT     H238544   8.757   8.730   2.548
12768WAT      O38545   4.578   1.896   0.193
12768WAT     H138546   4.593   1.957   0.272
12768WAT     H238547   4.660   1.894   0.137
12769WAT      O38548   7.751   6.315   4.962
12769WAT     H138549   7.800   6.400   4.943
12769WAT     H238550   7.815   6.244   4.992
12770WAT      O38551   6.390   9.776   7.642
12770WAT     H138552   6.452   9.843   7.601
12770WAT     H238553   6.297   9.792   7.609
12771WAT      O38554   3.960   5.629   9.528
12771WAT     H138555   4.039   5.573   9.550
12771WAT     H238556   3.877   5.574   9.536
12772WAT      O38557   4.742   6.117   3.811
12772WAT     H138558   4.684   6.139   3.890
12772WAT     H238559   4.826   6.172   3.815
12773WAT      O38560   8.967   6.580   8.052
12773WAT     H138561   8.940   6.506   8.113
12773WAT     H238562   8.904   6.585   7.975
12774WAT      O38563   6.781   3.625   7.499
12774WAT     H138564   6.716   3.700   7.492
12774WAT     H238565   6.777   3.585   7.591
12775WAT      O38566   9.009   6.116   9.426
12775WAT     H138567   8.928   6.129   9.483
12775WAT     H238568   8.985   6.064   9.344
12776WAT      O38569   5.816   7.804   2.929
12776WAT     H138570   5.741   7.867   2.909
12776WAT     H238571   5.868   7.786   2.846
12777WAT      O38572   7.464   3.926   9.046
12777WAT     H138573   7.508   3.978   8.973
12777WAT     H238574   7.527   3.856   9.080
12778WAT      O38575   9.034   4.906   5.193
12778WAT     H138576   9.094   4.842   5.240
12778WAT     H238577   8.940   4.893   5.224
12779WAT      O38578   8.291   9.317   2.975
12779WAT     H138579   8.284   9.381   2.898
12779WAT     H238580   8.199   9.297   3.009
12780WAT      O38581   0.968   4.487   5.454
12780WAT     H138582   1.027   4.546   5.510
12780WAT     H238583   0.968   4.395   5.493
12781WAT      O38584   6.655   5.832   6.375
12781WAT     H138585   6.730   5.898   6.382
12781WAT     H238586   6.579   5.862   6.433
12782WAT      O38587   1.311   8.661   0.373
12782WAT     H138588   1.240   8.605   0.332
12782WAT     H238589   1.271   8.744   0.410
12783WAT      O38590   4.227   1.550   6.344
12783WAT     H138591   4.170   1.630   6.360
12783WAT     H238592   4.172   1.467   6.355
12784WAT      O38593   5.143   4.162   3.047
12784WAT     H138594   5.117   4.154   2.951
12784WAT     H238595   5.087   4.231   3.092
12785WAT      O38596   9.860   2.846   3.363
12785WAT     H138597   9.885   2.876   3.271
12785WAT     H238598   9.888   2.751   3.376
12786WAT      O38599   5.748   9.725   3.142
12786WAT     H138600   5.793   9.645   3.182
12786WAT     H238601   5.787   9.808   3.182
12787WAT      O38602   3.676   2.969   6.655
12787WAT     H138603   3.598   3.007   6.606
12787WAT     H238604   3.761   3.002   6.614
12788WAT      O38605   7.416   8.626   2.913
12788WAT     H138606   7.502   8.586   2.946
12788WAT     H238607   7.368   8.668   2.989
12789WAT      O38608   0.039   4.857   7.668
12789WAT     H138609   0.032   4.786   7.598
12789WAT     H238610   0.079   4.939   7.628
12790WAT      O38611   2.847   7.059   3.225
12790WAT     H138612   2.828   7.147   3.182
12790WAT     H238613   2.801   7.055   3.314
12791WAT      O38614   5.785   7.337   7.616
12791WAT     H138615   5.816   7.358   7.709
12791WAT     H238616   5.762   7.239   7.610
12792WAT      O38617   6.544   8.305   2.512
12792WAT     H138618   6.616   8.253   2.559
12792WAT     H238619   6.488   8.243   2.457
12793WAT      O38620   2.512   4.526   1.141
12793WAT     H138621   2.427   4.517   1.089
12793WAT     H238622   2.508   4.467   1.222
12794WAT      O38623   8.688   3.236   1.381
12794WAT     H138624   8.761   3.216   1.316
12794WAT     H238625   8.685   3.164   1.451
12795WAT      O38626   7.319   5.985   8.930
12795WAT     H138627   7.348   5.900   8.885
12795WAT     H238628   7.247   6.028   8.875
12796WAT      O38629   2.018   5.156   9.745
12796WAT     H138630   2.062   5.135   9.832
12796WAT     H238631   2.013   5.255   9.734
12797WAT      O38632   7.056   1.516   9.017
12797WAT     H138633   7.030   1.609   8.991
12797WAT     H238634   6.981   1.473   9.067
12798WAT      O38635   1.152   6.220   3.160
12798WAT     H138636   1.141   6.243   3.257
12798WAT     H238637   1.124   6.126   3.145
12799WAT      O38638   2.516   5.404   8.115
12799WAT     H138639   2.480   5.456   8.192
12799WAT     H238640   2.449   5.337   8.084
12800WAT      O38641   2.166   8.232   5.058
12800WAT     H138642   2.147   8.138   5.028
12800WAT     H238643   2.246   8.232   5.117
12801WAT      O38644   5.227   6.613   9.712
12801WAT     H138645   5.295   6.662   9.657
12801WAT     H238646   5.229   6.647   9.806
12802WAT      O38647   4.034   6.606   8.655
12802WAT     H138648   3.970   6.667   8.702
12802WAT     H238649   4.040   6.633   8.559
12803WAT      O38650   4.658   7.802   5.456
12803WAT     H138651   4.606   7.725   5.420
12803WAT     H238652   4.736   7.769   5.509
12804WAT      O38653   3.739   5.944   7.210
12804WAT     H138654   3.807   5.913   7.276
12804WAT     H238655   3.784   5.969   7.124
12805WAT      O38656   9.366   2.661   0.118
12805WAT     H138657   9.350   2.565   0.140
12805WAT     H238658   9.307   2.719   0.176
12806WAT      O38659   0.974   9.557   6.949
12806WAT     H138660   0.957   9.647   6.991
12806WAT     H238661   0.922   9.551   6.864
12807WAT      O38662   5.201   5.738   0.606
12807WAT     H138663   5.288   5.724   0.653
12807WAT     H238664   5.134   5.671   0.638
12808WAT      O38665   8.202   2.661   2.151
12808WAT     H138666   8.181   2.576   2.103
12808WAT     H238667   8.301   2.671   2.161
12809WAT      O38668   6.566   8.354   8.454
12809WAT     H138669   6.589   8.450   8.440
12809WAT     H238670   6.481   8.332   8.405
12810WAT      O38671   7.356   9.248   7.212
12810WAT     H138672   7.429   9.315   7.230
12810WAT     H238673   7.397   9.158   7.195
12811WAT      O38674   4.783   6.512   5.633
12811WAT     H138675   4.822   6.460   5.557
12811WAT     H238676   4.798   6.609   5.618
12812WAT      O38677   7.984   3.285   2.327
12812WAT     H138678   8.000   3.290   2.228
12812WAT     H238679   8.006   3.194   2.360
12813WAT      O38680   5.841   3.975   7.419
12813WAT     H138681   5.774   4.038   7.458
12813WAT     H238682   5.805   3.882   7.422
12814WAT      O38683   6.920   5.562   0.264
12814WAT     H138684   6.969   5.640   0.226
12814WAT     H238685   6.978   5.481   0.262
12815WAT      O38686   8.550   4.016   2.808
12815WAT     H138687   8.523   3.948   2.740
12815WAT     H238688   8.648   4.033   2.801
12816WAT      O38689   2.219   5.058   2.617
12816WAT     H138690   2.190   5.037   2.711
12816WAT     H238691   2.146   5.034   2.554
12817WAT      O38692   9.513   7.137   8.623
12817WAT     H138693   9.505   7.219   8.566
12817WAT     H238694   9.439   7.074   8.601
12818WAT      O38695   9.398   9.732   4.188
12818WAT     H138696   9.343   9.808   4.224
12818WAT     H238697   9.478   9.769   4.140
12819WAT      O38698   0.887   3.773   2.022
12819WAT     H138699   0.788   3.766   2.027
12819WAT     H238700   0.928   3.736   2.105
12820WAT      O38701   9.456   2.924   2.467
12820WAT     H138702   9.539   2.891   2.510
12820WAT     H238703   9.380   2.863   2.489
12821WAT      O38704   3.352   0.325   3.552
12821WAT     H138705   3.339   0.253   3.484
12821WAT     H238706   3.429   0.383   3.526
12822WAT      O38707   2.467   5.986   9.893
12822WAT     H138708   2.433   6.061   9.837
12822WAT     H238709   2.409   5.906   9.881
12823WAT      O38710   5.070   7.073   4.787
12823WAT     H138711   5.000   7.105   4.723
12823WAT     H238712   5.056   6.975   4.805
12824WAT      O38713   6.358   0.437   6.366
12824WAT     H138714   6.340   0.424   6.268
12824WAT     H238715   6.424   0.510   6.378
12825WAT      O38716   0.752   9.726   7.444
12825WAT     H138717   0.787   9.741   7.351
12825WAT     H238718   0.699   9.641   7.446
12826WAT      O38719   5.110   6.058   2.292
12826WAT     H138720   5.138   6.154   2.291
12826WAT     H238721   5.170   6.005   2.232
12827WAT      O38722   9.581   4.159   6.322
12827WAT     H138723   9.612   4.065   6.331
12827WAT     H238724   9.531   4.170   6.237
12828WAT      O38725   2.485   1.765   5.571
12828WAT     H138726   2.560   1.714   5.529
12828WAT     H238727   2.498   1.863   5.557
12829WAT      O38728   3.018   5.952   0.188
12829WAT     H138729   3.114   5.942   0.165
12829WAT     H238730   2.962   5.937   0.106
12830WAT      O38731   5.079   1.010   7.502
12830WAT     H138732   5.031   0.982   7.586
12830WAT     H238733   5.028   0.978   7.422
12831WAT      O38734   4.378   7.304   5.628
12831WAT     H138735   4.361   7.274   5.534
12831WAT     H238736   4.425   7.392   5.627
12832WAT      O38737   9.582   4.839   6.431
12832WAT     H138738   9.667   4.809   6.473
12832WAT     H238739   9.518   4.762   6.425
12833WAT      O38740   0.768   3.568   1.097
12833WAT     H138741   0.680   3.608   1.123
12833WAT     H238742   0.769   3.472   1.124
12834WAT      O38743   1.270   7.159   2.191
12834WAT     H138744   1.301   7.127   2.102
12834WAT     H238745   1.302   7.096   2.262
12835WAT      O38746   4.174   0.061   7.871
12835WAT     H138747   4.120  -0.022   7.879
12835WAT     H238748   4.247   0.047   7.804
12836WAT      O38749   8.137   2.523   3.101
12836WAT     H138750   8.053   2.566   3.133
12836WAT     H238751   8.215   2.580   3.126
12837WAT      O38752   5.456   6.924   8.045
12837WAT     H138753   5.502   7.013   8.041
12837WAT     H238754   5.524   6.852   8.059
12838WAT      O38755   6.864   2.566   1.715
12838WAT     H138756   6.922   2.636   1.673
12838WAT     H238757   6.918   2.510   1.777
12839WAT      O38758   2.052   5.659   8.494
12839WAT     H138759   2.059   5.559   8.490
12839WAT     H238760   2.143   5.698   8.506
12840WAT      O38761   1.585   0.654   8.236
12840WAT     H138762   1.620   0.577   8.290
12840WAT     H238763   1.514   0.702   8.287
12841WAT      O38764   1.053   1.429   1.738
12841WAT     H138765   1.099   1.517   1.754
12841WAT     H238766   1.039   1.417   1.640
12842WAT      O38767   4.898   3.937   3.602
12842WAT     H138768   4.991   3.922   3.568
12842WAT     H238769   4.846   3.852   3.596
12843WAT      O38770   8.229   0.745   5.559
12843WAT     H138771   8.156   0.808   5.534
12843WAT     H238772   8.215   0.711   5.651
12844WAT      O38773   0.787   0.032   0.179
12844WAT     H138774   0.722  -0.036   0.213
12844WAT     H238775   0.788   0.111   0.240
12845WAT      O38776   9.212   6.831   4.393
12845WAT     H138777   9.143   6.769   4.354
12845WAT     H238778   9.221   6.814   4.491
12846WAT      O38779   3.277   8.113   2.568
12846WAT     H138780   3.291   8.210   2.549
12846WAT     H238781   3.286   8.060   2.483
12847WAT      O38782   2.924   5.884   0.419
12847WAT     H138783   2.894   5.976   0.443
12847WAT     H238784   2.977   5.888   0.335
12848WAT      O38785   6.118   8.623   1.660
12848WAT     H138786   6.030   8.670   1.657
12848WAT     H238787   6.158   8.621   1.568
12849WAT      O38788   7.618   7.929   4.713
12849WAT     H138789   7.696   7.921   4.650
12849WAT     H238790   7.616   8.021   4.752
12850WAT      O38791   1.208   7.149   3.265
12850WAT     H138792   1.273   7.087   3.220
12850WAT     H238793   1.257   7.228   3.302
12851WAT      O38794   3.161   5.663   0.415
12851WAT     H138795   3.195   5.721   0.341
12851WAT     H238796   3.236   5.609   0.453
12852WAT      O38797   3.020   5.439   4.081
12852WAT     H138798   2.921   5.427   4.074
12852WAT     H238799   3.065   5.401   4.001
12853WAT      O38800   8.761   1.226   5.093
12853WAT     H138801   8.771   1.253   5.188
12853WAT     H238802   8.851   1.224   5.049
12854WAT      O38803   6.369   7.821   6.064
12854WAT     H138804   6.440   7.873   6.112
12854WAT     H238805   6.369   7.727   6.096
12855WAT      O38806   9.299   7.689   1.876
12855WAT     H138807   9.296   7.590   1.888
12855WAT     H238808   9.230   7.716   1.808
12856WAT      O38809   3.861   7.540   0.378
12856WAT     H138810   3.795   7.524   0.305
12856WAT     H238811   3.907   7.455   0.402
12857WAT      O38812   4.977   3.044   8.575
12857WAT     H138813   4.893   3.064   8.524
12857WAT     H238814   5.055   3.055   8.514
12858WAT      O38815   4.377   6.360   5.989
12858WAT     H138816   4.417   6.393   5.903
12858WAT     H238817   4.434   6.391   6.066
12859WAT      O38818   9.854   6.360   4.827
12859WAT     H138819   9.773   6.302   4.832
12859WAT     H238820   9.893   6.355   4.735
12860WAT      O38821   8.005   4.051   1.053
12860WAT     H138822   7.977   4.141   1.020
12860WAT     H238823   7.999   4.049   1.153
12861WAT      O38824   6.533   0.990   0.105
12861WAT     H138825   6.598   1.019   0.035
12861WAT     H238826   6.450   0.955   0.062
12862WAT      O38827   1.502   6.349   3.759
12862WAT     H138828   1.561   6.306   3.827
12862WAT     H238829   1.558   6.395   3.690
12863WAT      O38830   3.487   8.104   8.304
12863WAT     H138831   3.446   8.176   8.247
12863WAT     H238832   3.443   8.103   8.393
12864WAT      O38833   7.526   6.896   8.123
12864WAT     H138834   7.529   6.812   8.178
12864WAT     H238835   7.461   6.884   8.047
12865WAT      O38836   3.468   7.283   8.736
12865WAT     H138837   3.428   7.327   8.816
12865WAT     H238838   3.442   7.186   8.735
12866WAT      O38839   2.034   7.393   9.456
12866WAT     H138840   1.994   7.442   9.535
12866WAT     H238841   1.962   7.371   9.391
12867WAT      O38842   0.760   1.020   4.276
12867WAT     H138843   0.803   1.020   4.186
12867WAT     H238844   0.786   1.103   4.325
12868WAT      O38845   7.208   8.447   7.502
12868WAT     H138846   7.241   8.354   7.487
12868WAT     H238847   7.205   8.466   7.600
12869WAT      O38848   2.086   4.044   3.344
12869WAT     H138849   2.171   4.023   3.296
12869WAT     H238850   2.097   4.130   3.394
12870WAT      O38851   0.907   7.759   4.906
12870WAT     H138852   0.837   7.797   4.967
12870WAT     H238853   0.869   7.682   4.855
12871WAT      O38854   4.792   8.754   8.872
12871WAT     H138855   4.882   8.782   8.903
12871WAT     H238856   4.735   8.730   8.950
12872WAT      O38857   0.025   1.897   1.411
12872WAT     H138858   0.049   1.803   1.435
12872WAT     H238859  -0.003   1.900   1.315
12873WAT      O38860   4.759   9.588   9.094
12873WAT     H138861   4.822   9.664   9.109
12873WAT     H238862   4.733   9.585   8.997
12874WAT      O38863   9.249   6.164   9.016
12874WAT     H138864   9.274   6.256   8.985
12874WAT     H238865   9.319   6.099   8.987
12875WAT      O38866   8.677   7.478   8.518
12875WAT     H138867   8.588   7.465   8.473
12875WAT     H238868   8.726   7.553   8.474
12876WAT      O38869   2.452   3.384   2.759
12876WAT     H138870   2.443   3.437   2.674
12876WAT     H238871   2.379   3.316   2.764
12877WAT      O38872   8.093   1.396   8.390
12877WAT     H138873   8.089   1.415   8.488
12877WAT     H238874   8.087   1.482   8.339
12878WAT      O38875   5.938   6.950   5.269
12878WAT     H138876   5.880   6.945   5.188
12878WAT     H238877   5.932   6.865   5.320
12879WAT      O38878   0.200   2.080   5.754
12879WAT     H138879   0.168   2.174   5.759
12879WAT     H238880   0.282   2.075   5.696
12880WAT      O38881   4.521   6.550   7.561
12880WAT     H138882   4.521   6.616   7.485
12880WAT     H238883   4.518   6.600   7.648
12881WAT      O38884   4.683   5.299   1.757
12881WAT     H138885   4.733   5.367   1.703
12881WAT     H238886   4.587   5.326   1.764
12882WAT      O38887   7.153   1.421   5.217
12882WAT     H138888   7.234   1.368   5.241
12882WAT     H238889   7.136   1.414   5.119
12883WAT      O38890   5.803   6.343   6.737
12883WAT     H138891   5.758   6.258   6.765
12883WAT     H238892   5.901   6.335   6.754
12884WAT      O38893   5.788   1.255   9.258
12884WAT     H138894   5.836   1.167   9.265
12884WAT     H238895   5.754   1.281   9.349
12885WAT      O38896   0.468   4.359   8.236
12885WAT     H138897   0.479   4.264   8.266
12885WAT     H238898   0.484   4.420   8.313
12886WAT      O38899   1.304   8.089   6.832
12886WAT     H138900   1.241   8.166   6.826
12886WAT     H238901   1.336   8.065   6.740
12887WAT      O38902   7.487   4.835   7.133
12887WAT     H138903   7.579   4.850   7.169
12887WAT     H238904   7.477   4.739   7.106
12888WAT      O38905   3.859   8.006   3.630
12888WAT     H138906   3.953   7.973   3.622
12888WAT     H238907   3.855   8.102   3.601
12889WAT      O38908   2.278   2.442   1.611
12889WAT     H138909   2.266   2.425   1.513
12889WAT     H238910   2.374   2.459   1.630
12890WAT      O38911   0.613   4.848   3.499
12890WAT     H138912   0.612   4.765   3.443
12890WAT     H238913   0.530   4.852   3.554
12891WAT      O38914   6.399   1.924   9.791
12891WAT     H138915   6.408   1.879   9.702
12891WAT     H238916   6.437   1.864   9.861
12892WAT      O38917   4.466   8.211   6.439
12892WAT     H138918   4.426   8.211   6.530
12892WAT     H238919   4.520   8.294   6.425
12893WAT      O38920   7.135   5.563   2.801
12893WAT     H138921   7.191   5.569   2.719
12893WAT     H238922   7.074   5.643   2.807
12894WAT      O38923   5.920   6.222   1.293
12894WAT     H138924   5.883   6.315   1.292
12894WAT     H238925   6.014   6.224   1.329
12895WAT      O38926   5.129   4.068   4.700
12895WAT     H138927   5.151   4.120   4.617
12895WAT     H238928   5.164   3.975   4.691
12896WAT      O38929   3.542   2.451   4.337
12896WAT     H138930   3.446   2.439   4.361
12896WAT     H238931   3.599   2.435   4.418
12897WAT      O38932   1.704   8.568   6.179
12897WAT     H138933   1.795   8.589   6.212
12897WAT     H238934   1.636   8.597   6.247
12898WAT      O38935   3.703   0.788   1.193
12898WAT     H138936   3.731   0.884   1.199
12898WAT     H238937   3.624   0.772   1.252
12899WAT      O38938   8.773   1.764   7.587
12899WAT     H138939   8.704   1.833   7.612
12899WAT     H238940   8.777   1.756   7.488
12900WAT      O38941   3.187   5.338   0.611
12900WAT     H138942   3.108   5.396   0.630
12900WAT     H238943   3.158   5.255   0.565
12901WAT      O38944   9.049   8.426   9.270
12901WAT     H138945   9.001   8.367   9.334
12901WAT     H238946   9.015   8.520   9.279
12902WAT      O38947   7.663   3.385   2.701
12902WAT     H138948   7.734   3.440   2.656
12902WAT     H238949   7.596   3.446   2.743
12903WAT      O38950   2.596   6.309   9.623
12903WAT     H138951   2.636   6.331   9.712
12903WAT     H238952   2.669   6.282   9.560
12904WAT      O38953   1.642   3.949   9.430
12904WAT     H138954   1.681   3.979   9.343
12904WAT     H238955   1.548   3.984   9.438
12905WAT      O38956   0.058   7.199   6.789
12905WAT     H138957   0.131   7.233   6.848
12905WAT     H238958   0.098   7.146   6.714
12906WAT      O38959   7.149   2.796   7.370
12906WAT     H138960   7.195   2.714   7.336
12906WAT     H238961   7.203   2.836   7.444
12907WAT      O38962   8.890   7.258   7.799
12907WAT     H138963   8.813   7.307   7.841
12907WAT     H238964   8.862   7.166   7.773
12908WAT      O38965   2.790   3.996   3.410
12908WAT     H138966   2.699   3.957   3.395
12908WAT     H238967   2.847   3.979   3.330
12909WAT      O38968   1.132   9.749   3.330
12909WAT     H138969   1.121   9.729   3.427
12909WAT     H238970   1.044   9.775   3.290
12910WAT      O38971   7.755   4.806   8.656
12910WAT     H138972   7.815   4.865   8.601
12910WAT     H238973   7.732   4.851   8.742
12911WAT      O38974   2.727   0.585   2.434
12911WAT     H138975   2.729   0.486   2.450
12911WAT     H238976   2.694   0.602   2.341
12912WAT      O38977   2.845   1.214   7.859
12912WAT     H138978   2.797   1.237   7.774
12912WAT     H238979   2.915   1.146   7.840
12913WAT      O38980   1.277   1.938   4.393
12913WAT     H138981   1.346   1.925   4.321
12913WAT     H238982   1.246   1.848   4.425
12914WAT      O38983   5.685   8.252   4.085
12914WAT     H138984   5.671   8.157   4.115
12914WAT     H238985   5.599   8.288   4.049
12915WAT      O38986   0.087   2.610   3.336
12915WAT     H138987   0.152   2.685   3.326
12915WAT     H238988   0.075   2.565   3.247
12916WAT      O38989   0.701   6.107   7.050
12916WAT     H138990   0.674   6.138   6.959
12916WAT     H238991   0.644   6.150   7.119
12917WAT      O38992   7.773   7.345   6.712
12917WAT     H138993   7.870   7.348   6.688
12917WAT     H238994   7.747   7.431   6.756
12918WAT      O38995   0.054   9.676   9.097
12918WAT     H138996   0.062   9.640   9.004
12918WAT     H238997  -0.042   9.693   9.118
12919WAT      O38998   6.419   2.096   5.672
12919WAT     H138999   6.462   2.186   5.670
12919WAT     H239000   6.448   2.047   5.754
12920WAT      O39001   7.895   6.411   3.510
12920WAT     H139002   7.919   6.318   3.483
12920WAT     H239003   7.959   6.443   3.580
12921WAT      O39004   3.695   1.767   2.238
12921WAT     H139005   3.719   1.792   2.332
12921WAT     H239006   3.764   1.707   2.200
12922WAT      O39007   1.376   7.912   1.616
12922WAT     H139008   1.283   7.930   1.584
12922WAT     H239009   1.372   7.877   1.710
12923WAT      O39010   4.560   5.947   8.706
12923WAT     H139011   4.599   5.978   8.792
12923WAT     H239012   4.629   5.952   8.634
12924WAT      O39013   5.740   6.765   5.166
12924WAT     H139014   5.733   6.772   5.265
12924WAT     H239015   5.808   6.695   5.142
12925WAT      O39016   0.309   6.369   1.303
12925WAT     H139017   0.280   6.368   1.399
12925WAT     H239018   0.406   6.343   1.297
12926WAT      O39019   0.423   9.517   3.218
12926WAT     H139020   0.483   9.536   3.140
12926WAT     H239021   0.331   9.550   3.199
12927WAT      O39022   5.436   4.912   7.902
12927WAT     H139023   5.374   4.849   7.949
12927WAT     H239024   5.438   4.890   7.804
12928WAT      O39025   4.657   4.054   2.116
12928WAT     H139026   4.725   4.047   2.043
12928WAT     H239027   4.566   4.069   2.076
12929WAT      O39028   7.357   1.143   5.092
12929WAT     H139029   7.455   1.145   5.072
12929WAT     H239030   7.342   1.176   5.185
12930WAT      O39031   2.759   4.481   7.851
12930WAT     H139032   2.746   4.384   7.872
12930WAT     H239033   2.828   4.490   7.779
12931WAT      O39034   6.431   9.272   7.901
12931WAT     H139035   6.432   9.371   7.914
12931WAT     H239036   6.349   9.246   7.850
12932WAT      O39037   3.033   6.714   1.579
12932WAT     H139038   2.968   6.638   1.581
12932WAT     H239039   3.005   6.781   1.510
12933WAT      O39040   2.399   3.901   8.508
12933WAT     H139041   2.401   3.801   8.504
12933WAT     H239042   2.333   3.936   8.442
12934WAT      O39043   8.018   6.448   5.968
12934WAT     H139044   8.102   6.449   6.022
12934WAT     H239045   8.026   6.515   5.894
12935WAT      O39046   4.948   0.270   0.493
12935WAT     H139047   4.888   0.239   0.419
12935WAT     H239048   4.999   0.192   0.530
12936WAT      O39049   6.017   7.265   8.619
12936WAT     H139050   6.007   7.289   8.716
12936WAT     H239051   6.092   7.199   8.609
12937WAT      O39052   9.375   3.562   2.034
12937WAT     H139053   9.468   3.577   2.068
12937WAT     H239054   9.330   3.649   2.019
12938WAT      O39055   5.761   5.972   9.602
12938WAT     H139056   5.817   5.951   9.522
12938WAT     H239057   5.804   5.934   9.684
12939WAT      O39058   9.367   0.612   7.810
12939WAT     H139059   9.336   0.705   7.787
12939WAT     H239060   9.336   0.549   7.739
12940WAT      O39061   3.975   0.951   5.806
12940WAT     H139062   3.905   0.981   5.871
12940WAT     H239063   3.937   0.950   5.714
12941WAT      O39064   8.314   2.691   3.244
12941WAT     H139065   8.254   2.721   3.318
12941WAT     H239066   8.360   2.770   3.204
12942WAT      O39067   3.439   0.129   1.732
12942WAT     H139068   3.469   0.217   1.695
12942WAT     H239069   3.339   0.124   1.728
12943WAT      O39070   5.744   1.608   3.047
12943WAT     H139071   5.727   1.526   2.993
12943WAT     H239072   5.839   1.638   3.033
12944WAT      O39073   1.307   7.899   3.752
12944WAT     H139074   1.247   7.901   3.832
12944WAT     H239075   1.401   7.880   3.782
12945WAT      O39076   8.850   7.148   1.105
12945WAT     H139077   8.802   7.231   1.079
12945WAT     H239078   8.867   7.092   1.024
12946WAT      O39079   0.489   3.343   7.936
12946WAT     H139080   0.395   3.373   7.924
12946WAT     H239081   0.521   3.369   8.028
12947WAT      O39082   5.376   1.398   6.377
12947WAT     H139083   5.300   1.431   6.321
12947WAT     H239084   5.357   1.414   6.473
12948WAT      O39085   6.360   5.122   4.865
12948WAT     H139086   6.326   5.216   4.866
12948WAT     H239087   6.403   5.103   4.777
12949WAT      O39088   3.222   7.937   4.044
12949WAT     H139089   3.180   7.961   3.957
12949WAT     H239090   3.263   7.846   4.037
12950WAT      O39091   7.409   4.324   4.043
12950WAT     H139092   7.494   4.327   3.991
12950WAT     H239093   7.430   4.318   4.141
12951WAT      O39094   4.568   6.888   8.043
12951WAT     H139095   4.503   6.936   7.985
12951WAT     H239096   4.525   6.806   8.081
12952WAT      O39097   7.049   0.476   2.452
12952WAT     H139098   7.095   0.432   2.529
12952WAT     H239099   7.001   0.407   2.397
12953WAT      O39100   8.219   3.876   2.043
12953WAT     H139101   8.155   3.942   2.005
12953WAT     H239102   8.288   3.853   1.974
12954WAT      O39103   4.942   6.965   3.883
12954WAT     H139104   5.021   6.966   3.822
12954WAT     H239105   4.858   6.976   3.829
12955WAT      O39106   1.239   7.631   4.066
12955WAT     H139107   1.234   7.606   4.163
12955WAT     H239108   1.331   7.611   4.031
12956WAT      O39109   0.956   7.915   3.721
12956WAT     H139110   1.009   8.000   3.708
12956WAT     H239111   1.015   7.846   3.764
12957WAT      O39112   2.519   8.198   4.505
12957WAT     H139113   2.467   8.188   4.590
12957WAT     H239114   2.574   8.281   4.509
12958WAT      O39115   3.473   0.713   7.848
12958WAT     H139116   3.503   0.672   7.762
12958WAT     H239117   3.381   0.681   7.870
12959WAT      O39118   8.042   1.011   5.239
12959WAT     H139119   8.013   1.099   5.276
12959WAT     H239120   8.105   1.025   5.163
12960WAT      O39121   0.995   0.536   5.771
12960WAT     H139122   1.093   0.537   5.750
12960WAT     H239123   0.972   0.451   5.818
12961WAT      O39124   4.609   2.849   2.597
12961WAT     H139125   4.640   2.845   2.502
12961WAT     H239126   4.587   2.757   2.629
12962WAT      O39127   4.578   3.593   6.957
12962WAT     H139128   4.546   3.686   6.978
12962WAT     H239129   4.508   3.527   6.983
12963WAT      O39130   5.247   9.652   1.308
12963WAT     H139131   5.168   9.703   1.273
12963WAT     H239132   5.299   9.616   1.231
12964WAT      O39133   4.083   9.034   2.825
12964WAT     H139134   4.040   8.946   2.841
12964WAT     H239135   4.077   9.057   2.728
12965WAT      O39136   8.603   7.762   9.033
12965WAT     H139137   8.605   7.817   8.949
12965WAT     H239138   8.628   7.667   9.011
12966WAT      O39139   6.538   6.042   0.896
12966WAT     H139140   6.612   5.992   0.851
12966WAT     H239141   6.576   6.114   0.953
12967WAT      O39142   0.394   8.494   1.234
12967WAT     H139143   0.400   8.591   1.208
12967WAT     H239144   0.401   8.486   1.333
12968WAT      O39145   1.079   9.361   6.705
12968WAT     H139146   1.089   9.350   6.607
12968WAT     H239147   1.015   9.436   6.724
12969WAT      O39148   9.700   7.568   9.766
12969WAT     H139149   9.682   7.470   9.771
12969WAT     H239150   9.681   7.610   9.855
12970WAT      O39151   2.476   7.075   3.182
12970WAT     H139152   2.457   6.979   3.200
12970WAT     H239153   2.535   7.111   3.255
12971WAT      O39154   8.597   5.250   3.576
12971WAT     H139155   8.522   5.250   3.511
12971WAT     H239156   8.561   5.237   3.669
12972WAT      O39157   1.944   8.649   6.241
12972WAT     H139158   1.993   8.671   6.326
12972WAT     H239159   1.921   8.734   6.193
12973WAT      O39160   7.267   5.273   7.374
12973WAT     H139161   7.291   5.367   7.399
12973WAT     H239162   7.329   5.241   7.302
12974WAT      O39163   6.049   4.360   1.447
12974WAT     H139164   6.058   4.396   1.355
12974WAT     H239165   6.140   4.347   1.487
12975WAT      O39166   2.574   2.511   8.332
12975WAT     H139167   2.654   2.512   8.392
12975WAT     H239168   2.498   2.464   8.377
12976WAT      O39169   4.549   6.088   7.704
12976WAT     H139170   4.470   6.125   7.654
12976WAT     H239171   4.539   5.989   7.712
12977WAT      O39172   9.836   6.273   6.140
12977WAT     H139173   9.841   6.204   6.212
12977WAT     H239174   9.919   6.329   6.142
12978WAT      O39175   7.194   4.927   8.003
12978WAT     H139176   7.172   4.843   7.954
12978WAT     H239177   7.255   4.983   7.946
12979WAT      O39178   5.273   2.873   4.575
12979WAT     H139179   5.220   2.928   4.639
12979WAT     H239180   5.328   2.807   4.626
12980WAT      O39181   8.548   4.792   5.621
12980WAT     H139182   8.526   4.796   5.718
12980WAT     H239183   8.639   4.753   5.609
12981WAT      O39184   7.398   3.616   5.528
12981WAT     H139185   7.430   3.522   5.540
12981WAT     H239186   7.445   3.659   5.451
12982WAT      O39187   9.828   3.284   1.282
12982WAT     H139188   9.831   3.382   1.266
12982WAT     H239189   9.920   3.245   1.269
12983WAT      O39190   5.155   9.076   5.228
12983WAT     H139191   5.102   9.160   5.210
12983WAT     H239192   5.190   9.040   5.142
12984WAT      O39193   8.834   9.443   5.796
12984WAT     H139194   8.779   9.387   5.733
12984WAT     H239195   8.900   9.385   5.843
12985WAT      O39196   9.644   8.685   5.739
12985WAT     H139197   9.605   8.616   5.800
12985WAT     H239198   9.570   8.737   5.695
12986WAT      O39199   7.862   8.591   0.992
12986WAT     H139200   7.873   8.646   0.909
12986WAT     H239201   7.940   8.607   1.053
12987WAT      O39202   0.299   5.600   7.329
12987WAT     H139203   0.257   5.510   7.343
12987WAT     H239204   0.399   5.590   7.329
12988WAT      O39205   9.605   8.412   9.158
12988WAT     H139206   9.589   8.357   9.240
12988WAT     H239207   9.691   8.462   9.167
12989WAT      O39208   2.185   6.449   2.400
12989WAT     H139209   2.098   6.437   2.447
12989WAT     H239210   2.203   6.546   2.387
12990WAT      O39211   1.723   7.495   9.031
12990WAT     H139212   1.786   7.573   9.030
12990WAT     H239213   1.713   7.459   8.938
12991WAT      O39214   5.290   3.755   8.243
12991WAT     H139215   5.317   3.803   8.327
12991WAT     H239216   5.218   3.688   8.264
12992WAT      O39217   3.662   1.640   9.389
12992WAT     H139218   3.654   1.738   9.367
12992WAT     H239219   3.603   1.588   9.327
12993WAT      O39220   8.415   1.637   6.453
12993WAT     H139221   8.335   1.578   6.440
12993WAT     H239222   8.480   1.592   6.514
12994WAT      O39223   3.271   2.945   7.470
12994WAT     H139224   3.201   2.989   7.527
12994WAT     H239225   3.361   2.961   7.510
12995WAT      O39226   6.427   9.085   1.736
12995WAT     H139227   6.369   9.013   1.699
12995WAT     H239228   6.456   9.146   1.663
12996WAT      O39229   1.008   0.924   9.072
12996WAT     H139230   0.956   0.925   9.157
12996WAT     H239231   1.015   0.830   9.038
12997WAT      O39232   8.309   0.841   0.530
12997WAT     H139233   8.377   0.831   0.457
12997WAT     H239234   8.343   0.906   0.597
12998WAT      O39235   1.942   0.757   6.161
12998WAT     H139236   1.858   0.810   6.160
12998WAT     H239237   1.957   0.717   6.070
12999WAT      O39238   1.111   4.157   6.312
12999WAT     H139239   1.028   4.146   6.258
12999WAT     H239240   1.107   4.243   6.362
13000WAT      O39241   3.557   5.834   8.064
13000WAT     H139242   3.482   5.881   8.111
13000WAT     H239243   3.529   5.740   8.043
13001WAT      O39244   9.522   2.141   1.001
13001WAT     H139245   9.493   2.127   0.906
13001WAT     H239246   9.595   2.209   1.004
13002WAT      O39247   4.886   7.058   9.069
13002WAT     H139248   4.880   7.143   9.121
13002WAT     H239249   4.800   7.041   9.021
13003WAT      O39250   8.167   5.235   2.266
13003WAT     H139251   8.070   5.260   2.271
13003WAT     H239252   8.193   5.185   2.349
13004WAT      O39253   2.134   3.767   0.088
13004WAT     H139254   2.061   3.793   0.026
13004WAT     H239255   2.106   3.688   0.143
13005WAT      O39256   6.873   3.448   4.676
13005WAT     H139257   6.854   3.350   4.669
13005WAT     H239258   6.956   3.462   4.729
13006WAT      O39259   9.832   1.204   5.956
13006WAT     H139260   9.899   1.245   6.017
13006WAT     H239261   9.760   1.270   5.936
13007WAT      O39262   8.841   3.486   8.456
13007WAT     H139263   8.817   3.516   8.364
13007WAT     H239264   8.765   3.436   8.496
13008WAT      O39265   9.578   4.043   4.345
13008WAT     H139266   9.582   3.976   4.419
13008WAT     H239267   9.497   4.026   4.288
13009WAT      O39268   1.404   2.720   7.989
13009WAT     H139269   1.417   2.687   7.895
13009WAT     H239270   1.401   2.642   8.051
13010WAT      O39271   2.537   9.191   4.299
13010WAT     H139272   2.481   9.151   4.372
13010WAT     H239273   2.633   9.178   4.320
13011WAT      O39274   0.365   3.535   1.497
13011WAT     H139275   0.363   3.451   1.551
13011WAT     H239276   0.460   3.561   1.480
13012WAT      O39277   2.239   6.618   3.940
13012WAT     H139278   2.160   6.558   3.935
13012WAT     H239279   2.215   6.708   3.905
13013WAT      O39280   2.438   6.302   1.808
13013WAT     H139281   2.406   6.395   1.823
13013WAT     H239282   2.513   6.281   1.872
13014WAT      O39283   5.570   0.409   1.391
13014WAT     H139284   5.599   0.488   1.445
13014WAT     H239285   5.548   0.438   1.298
13015WAT      O39286   2.203   0.606   1.143
13015WAT     H139287   2.213   0.648   1.053
13015WAT     H239288   2.292   0.602   1.189
13016WAT      O39289   1.527   4.352   7.085
13016WAT     H139290   1.488   4.393   7.002
13016WAT     H239291   1.617   4.391   7.103
13017WAT      O39292   6.566   0.093   5.206
13017WAT     H139293   6.513   0.122   5.285
13017WAT     H239294   6.642   0.036   5.235
13018WAT      O39295   1.133   2.885   1.183
13018WAT     H139296   1.171   2.923   1.099
13018WAT     H239297   1.189   2.913   1.261
13019WAT      O39298   6.276   3.553   3.412
13019WAT     H139299   6.346   3.531   3.344
13019WAT     H239300   6.317   3.553   3.503
13020WAT      O39301   6.573   1.319   5.337
13020WAT     H139302   6.479   1.332   5.304
13020WAT     H239303   6.632   1.295   5.261
13021WAT      O39304   2.950   0.133   2.225
13021WAT     H139305   2.873   0.192   2.248
13021WAT     H239306   3.006   0.177   2.154
13022WAT      O39307   1.915   3.985   6.323
13022WAT     H139308   1.880   4.033   6.242
13022WAT     H239309   1.920   4.048   6.400
13023WAT      O39310   6.749   0.113   0.404
13023WAT     H139311   6.820   0.183   0.410
13023WAT     H239312   6.710   0.113   0.312
13024WAT      O39313   5.535   9.069   6.971
13024WAT     H139314   5.469   9.106   7.037
13024WAT     H239315   5.488   9.048   6.885
13025WAT      O39316   5.809   4.893   7.883
13025WAT     H139317   5.829   4.806   7.927
13025WAT     H239318   5.838   4.968   7.942
13026WAT      O39319   5.993   8.290   8.130
13026WAT     H139320   6.014   8.192   8.128
13026WAT     H239321   6.074   8.342   8.103
13027WAT      O39322   2.634   9.269   6.965
13027WAT     H139323   2.572   9.346   6.954
13027WAT     H239324   2.726   9.303   6.986
13028WAT      O39325   6.114   9.699   8.244
13028WAT     H139326   6.183   9.719   8.314
13028WAT     H239327   6.082   9.784   8.203
13029WAT      O39328   6.840   2.612   2.073
13029WAT     H139329   6.811   2.611   2.169
13029WAT     H239330   6.759   2.622   2.015
13030WAT      O39331   6.836   0.264   3.202
13030WAT     H139332   6.768   0.210   3.251
13030WAT     H239333   6.820   0.361   3.217
13031WAT      O39334   3.475   7.646   6.314
13031WAT     H139335   3.504   7.587   6.389
13031WAT     H239336   3.484   7.742   6.342
13032WAT      O39337   0.424   3.158   0.377
13032WAT     H139338   0.477   3.243   0.370
13032WAT     H239339   0.486   3.083   0.399
13033WAT      O39340   4.764   2.860   5.837
13033WAT     H139341   4.807   2.779   5.795
13033WAT     H239342   4.820   2.941   5.816
13034WAT      O39343   6.971   6.135   4.360
13034WAT     H139344   6.954   6.168   4.452
13034WAT     H239345   7.034   6.057   4.363
13035WAT      O39346   2.441   3.215   5.304
13035WAT     H139347   2.513   3.281   5.283
13035WAT     H239348   2.352   3.251   5.277
13036WAT      O39349   1.301   0.800   0.290
13036WAT     H139350   1.343   0.891   0.291
13036WAT     H239351   1.358   0.737   0.343
13037WAT      O39352   7.391   8.353   9.295
13037WAT     H139353   7.325   8.426   9.311
13037WAT     H239354   7.480   8.381   9.332
13038WAT      O39355   2.534   6.044   3.056
13038WAT     H139356   2.491   6.120   3.105
13038WAT     H239357   2.463   5.989   3.012
13039WAT      O39358   9.222   7.908   0.901
13039WAT     H139359   9.184   7.816   0.901
13039WAT     H239360   9.166   7.967   0.959
13040WAT      O39361   0.661   1.056   5.851
13040WAT     H139362   0.664   1.069   5.950
13040WAT     H239363   0.567   1.060   5.819
13041WAT      O39364   0.649   0.659   6.045
13041WAT     H139365   0.563   0.701   6.074
13041WAT     H239366   0.689   0.712   5.970
13042WAT      O39367   1.640   5.093   6.503
13042WAT     H139368   1.702   5.114   6.578
13042WAT     H239369   1.554   5.059   6.540
13043WAT      O39370   2.009   9.368   9.070
13043WAT     H139371   1.943   9.399   9.139
13043WAT     H239372   2.010   9.268   9.070
13044WAT      O39373   4.141   7.077   1.381
13044WAT     H139374   4.131   7.160   1.435
13044WAT     H239375   4.117   6.998   1.438
13045WAT      O39376   5.808   2.336   4.127
13045WAT     H139377   5.855   2.415   4.087
13045WAT     H239378   5.773   2.277   4.055
13046WAT      O39379   1.189   3.652   2.665
13046WAT     H139380   1.113   3.713   2.641
13046WAT     H239381   1.152   3.566   2.701
13047WAT      O39382   2.657   4.561   9.568
13047WAT     H139383   2.560   4.560   9.589
13047WAT     H239384   2.700   4.639   9.614
13048WAT      O39385   0.100   9.623   0.546
13048WAT     H139386   0.147   9.692   0.491
13048WAT     H239387   0.164   9.550   0.570
13049WAT      O39388   7.289   3.361   0.214
13049WAT     H139389   7.282   3.409   0.127
13049WAT     H239390   7.252   3.419   0.287
13050WAT      O39391   4.452   9.257   8.710
13050WAT     H139392   4.506   9.252   8.626
13050WAT     H239393   4.355   9.257   8.687
13051WAT      O39394   4.958   7.057   9.717
13051WAT     H139395   4.982   7.154   9.709
13051WAT     H239396   4.908   7.028   9.635
13052WAT      O39397   9.521   0.831   1.968
13052WAT     H139398   9.472   0.744   1.974
13052WAT     H239399   9.550   0.859   2.059
13053WAT      O39400   6.418   2.838   6.473
13053WAT     H139401   6.452   2.746   6.493
13053WAT     H239402   6.318   2.839   6.482
13054WAT      O39403   9.297   3.883   0.102
13054WAT     H139404   9.356   3.963   0.097
13054WAT     H239405   9.287   3.854   0.197
13055WAT      O39406   8.766   3.376   6.588
13055WAT     H139407   8.679   3.335   6.614
13055WAT     H239408   8.749   3.453   6.526
13056WAT      O39409   6.273   1.196   2.325
13056WAT     H139410   6.320   1.232   2.244
13056WAT     H239411   6.276   1.264   2.398
13057WAT      O39412   2.488   5.101   6.611
13057WAT     H139413   2.421   5.027   6.615
13057WAT     H239414   2.472   5.157   6.530
13058WAT      O39415   4.292   1.261   9.578
13058WAT     H139416   4.261   1.319   9.504
13058WAT     H239417   4.308   1.168   9.544
13059WAT      O39418   5.817   1.640   7.084
13059WAT     H139419   5.795   1.666   7.178
13059WAT     H239420   5.819   1.540   7.077
13060WAT      O39421   4.404   4.593   1.841
13060WAT     H139422   4.413   4.583   1.742
13060WAT     H239423   4.359   4.679   1.863
13061WAT      O39424   2.374   7.224   1.403
13061WAT     H139425   2.377   7.304   1.344
13061WAT     H239426   2.452   7.165   1.382
13062WAT      O39427   4.012   2.961   2.002
13062WAT     H139428   3.953   2.928   2.076
13062WAT     H239429   4.039   3.055   2.020
13063WAT      O39430   8.936   1.791   7.045
13063WAT     H139431   8.907   1.715   6.987
13063WAT     H239432   9.020   1.765   7.093
13064WAT      O39433   3.842   7.590   8.379
13064WAT     H139434   3.790   7.660   8.429
13064WAT     H239435   3.785   7.554   8.305
13065WAT      O39436   6.863   8.529   5.026
13065WAT     H139437   6.810   8.605   5.063
13065WAT     H239438   6.915   8.485   5.099
13066WAT      O39439   9.036   7.912   9.657
13066WAT     H139440   8.986   7.833   9.694
13066WAT     H239441   9.125   7.881   9.623
13067WAT      O39442   7.948   7.558   0.196
13067WAT     H139443   8.015   7.483   0.197
13067WAT     H239444   7.966   7.618   0.118
13068WAT      O39445   5.023   2.794   0.536
13068WAT     H139446   4.977   2.763   0.619
13068WAT     H239447   5.003   2.890   0.519
13069WAT      O39448   7.869   6.814   6.088
13069WAT     H139449   7.880   6.913   6.081
13069WAT     H239450   7.957   6.772   6.109
13070WAT      O39451   0.288   4.334   7.863
13070WAT     H139452   0.380   4.343   7.826
13070WAT     H239453   0.290   4.274   7.943
13071WAT      O39454   3.573   2.458   2.641
13071WAT     H139455   3.476   2.452   2.618
13071WAT     H239456   3.595   2.390   2.711
13072WAT      O39457   3.510   4.623   6.654
13072WAT     H139458   3.541   4.564   6.729
13072WAT     H239459   3.413   4.642   6.665
13073WAT      O39460   2.639   7.563   3.129
13073WAT     H139461   2.681   7.641   3.176
13073WAT     H239462   2.541   7.564   3.146
13074WAT      O39463   5.118   2.729   0.879
13074WAT     H139464   5.151   2.823   0.894
13074WAT     H239465   5.025   2.732   0.842
13075WAT      O39466   1.168   6.294   3.414
13075WAT     H139467   1.158   6.234   3.493
13075WAT     H239468   1.156   6.389   3.443
13076WAT      O39469   2.830   8.022   7.868
13076WAT     H139470   2.788   8.037   7.779
13076WAT     H239471   2.917   7.974   7.856
13077WAT      O39472   0.784   3.583   9.503
13077WAT     H139473   0.704   3.642   9.518
13077WAT     H239474   0.754   3.489   9.492
13078WAT      O39475   7.663   7.415   7.485
13078WAT     H139476   7.590   7.474   7.453
13078WAT     H239477   7.726   7.467   7.543
13079WAT      O39478   0.296   0.809   4.836
13079WAT     H139479   0.389   0.820   4.869
13079WAT     H239480   0.285   0.860   4.750
13080WAT      O39481   5.803   4.975   2.135
13080WAT     H139482   5.874   4.923   2.182
13080WAT     H239483   5.808   5.071   2.162
13081WAT      O39484   3.557   4.536   5.542
13081WAT     H139485   3.489   4.527   5.469
13081WAT     H239486   3.594   4.629   5.543
13082WAT      O39487   2.761   2.312   0.630
13082WAT     H139488   2.714   2.381   0.686
13082WAT     H239489   2.724   2.221   0.652
13083WAT      O39490   5.843   4.479   5.547
13083WAT     H139491   5.759   4.499   5.498
13083WAT     H239492   5.821   4.428   5.631
13084WAT      O39493   0.141   7.409   5.730
13084WAT     H139494   0.201   7.389   5.652
13084WAT     H239495   0.184   7.478   5.788
13085WAT      O39496   4.777   4.295   6.312
13085WAT     H139497   4.745   4.204   6.335
13085WAT     H239498   4.869   4.310   6.349
13086WAT      O39499   9.229   7.069   1.034
13086WAT     H139500   9.156   7.126   0.995
13086WAT     H239501   9.262   7.006   0.964
13087WAT      O39502   7.000   9.159   8.750
13087WAT     H139503   7.014   9.158   8.651
13087WAT     H239504   6.992   9.254   8.782
13088WAT      O39505   9.503   5.976   7.452
13088WAT     H139506   9.520   6.056   7.510
13088WAT     H239507   9.481   5.897   7.510
13089WAT      O39508   0.252   4.360   1.346
13089WAT     H139509   0.296   4.444   1.379
13089WAT     H239510   0.309   4.281   1.369
13090WAT      O39511   9.362   7.891   7.929
13090WAT     H139512   9.274   7.849   7.952
13090WAT     H239513   9.348   7.958   7.856
13091WAT      O39514   9.808   3.829   6.682
13091WAT     H139515   9.803   3.736   6.718
13091WAT     H239516   9.861   3.829   6.597
13092WAT      O39517   0.687   4.191   0.542
13092WAT     H139518   0.598   4.178   0.585
13092WAT     H239519   0.735   4.103   0.540
13093WAT      O39520   9.149   9.809   4.361
13093WAT     H139521   9.109   9.873   4.295
13093WAT     H239522   9.215   9.858   4.418
13094WAT      O39523   8.203   9.278   7.578
13094WAT     H139524   8.216   9.345   7.651
13094WAT     H239525   8.108   9.248   7.577
13095WAT      O39526   3.806   2.508   4.215
13095WAT     H139527   3.707   2.502   4.227
13095WAT     H239528   3.841   2.585   4.267
13096WAT      O39529   4.740   1.165   0.267
13096WAT     H139530   4.722   1.174   0.169
13096WAT     H239531   4.670   1.107   0.308
13097WAT      O39532   1.222   3.312   3.164
13097WAT     H139533   1.305   3.337   3.215
13097WAT     H239534   1.142   3.352   3.209
13098WAT      O39535   7.388   8.478   5.947
13098WAT     H139536   7.415   8.533   5.868
13098WAT     H239537   7.330   8.403   5.917
13099WAT      O39538   4.178   9.092   6.856
13099WAT     H139539   4.211   9.175   6.900
13099WAT     H239540   4.171   9.106   6.758
13100WAT      O39541   9.618   0.437   4.576
13100WAT     H139542   9.551   0.410   4.646
13100WAT     H239543   9.617   0.537   4.567
13101WAT      O39544   2.417   5.064   3.414
13101WAT     H139545   2.347   5.132   3.394
13101WAT     H239546   2.446   5.020   3.329
13102WAT      O39547   2.435   6.295   3.102
13102WAT     H139548   2.355   6.339   3.062
13102WAT     H239549   2.460   6.342   3.186
13103WAT      O39550   4.875   9.432   5.652
13103WAT     H139551   4.942   9.485   5.703
13103WAT     H239552   4.920   9.389   5.574
13104WAT      O39553   6.137   0.923   8.837
13104WAT     H139554   6.123   1.017   8.806
13104WAT     H239555   6.149   0.922   8.936
13105WAT      O39556   2.977   0.742   1.840
13105WAT     H139557   3.043   0.667   1.827
13105WAT     H239558   2.904   0.733   1.773
13106WAT      O39559   5.309   9.422   0.109
13106WAT     H139560   5.403   9.454   0.100
13106WAT     H239561   5.248   9.501   0.119
13107WAT      O39562   9.031   3.921   0.796
13107WAT     H139563   8.963   3.856   0.760
13107WAT     H239564   9.120   3.876   0.800
13108WAT      O39565   4.366   0.064   2.820
13108WAT     H139566   4.411   0.039   2.734
13108WAT     H239567   4.436   0.089   2.887
13109WAT      O39568   9.656   3.740   0.490
13109WAT     H139569   9.570   3.766   0.534
13109WAT     H239570   9.639   3.723   0.393
13110WAT      O39571   1.229   1.369   6.285
13110WAT     H139572   1.178   1.454   6.286
13110WAT     H239573   1.166   1.292   6.299
13111WAT      O39574   3.530   4.638   1.498
13111WAT     H139575   3.594   4.579   1.548
13111WAT     H239576   3.463   4.581   1.449
13112WAT      O39577   9.705   0.169   3.267
13112WAT     H139578   9.629   0.188   3.205
13112WAT     H239579   9.701   0.073   3.296
13113WAT      O39580   3.496   4.855   1.676
13113WAT     H139581   3.524   4.791   1.604
13113WAT     H239582   3.528   4.947   1.653
13114WAT      O39583   7.046   7.751   5.482
13114WAT     H139584   6.977   7.708   5.424
13114WAT     H239585   7.001   7.810   5.549
13115WAT      O39586   3.141   1.561   5.177
13115WAT     H139587   3.213   1.608   5.228
13115WAT     H239588   3.158   1.462   5.180
13116WAT      O39589   1.526   5.459   8.314
13116WAT     H139590   1.435   5.423   8.292
13116WAT     H239591   1.575   5.480   8.230
13117WAT      O39592   1.653   3.880   8.599
13117WAT     H139593   1.628   3.806   8.537
13117WAT     H239594   1.695   3.955   8.548
13118WAT      O39595   8.198   8.489   7.717
13118WAT     H139596   8.297   8.478   7.726
13118WAT     H239597   8.173   8.582   7.742
13119WAT      O39598   3.208   1.311   6.534
13119WAT     H139599   3.210   1.216   6.504
13119WAT     H239600   3.135   1.323   6.602
13120WAT      O39601   2.131   1.076   2.621
13120WAT     H139602   2.199   1.147   2.642
13120WAT     H239603   2.160   0.989   2.661
13121WAT      O39604   5.771   6.662   3.456
13121WAT     H139605   5.795   6.712   3.373
13121WAT     H239606   5.704   6.590   3.433
13122WAT      O39607   3.616   8.900   5.902
13122WAT     H139608   3.561   8.828   5.859
13122WAT     H239609   3.683   8.935   5.836
13123WAT      O39610   0.622   5.084   6.948
13123WAT     H139611   0.572   5.055   6.866
13123WAT     H239612   0.720   5.084   6.928
13124WAT      O39613   5.133   8.789   1.497
13124WAT     H139614   5.232   8.801   1.488
13124WAT     H239615   5.086   8.860   1.445
13125WAT      O39616   4.857   1.254   6.296
13125WAT     H139617   4.768   1.286   6.325
13125WAT     H239618   4.859   1.246   6.196
13126WAT      O39619   8.359   6.998   5.471
13126WAT     H139620   8.290   7.015   5.542
13126WAT     H239621   8.374   7.083   5.419
13127WAT      O39622   7.191   6.073   4.946
13127WAT     H139623   7.254   6.061   4.869
13127WAT     H239624   7.151   5.984   4.970
13128WAT      O39625   5.139   7.830   3.896
13128WAT     H139626   5.225   7.865   3.860
13128WAT     H239627   5.107   7.755   3.838
13129WAT      O39628   4.448   3.054   8.080
13129WAT     H139629   4.488   3.144   8.098
13129WAT     H239630   4.510   3.001   8.023
13130WAT      O39631   4.778   0.510   8.864
13130WAT     H139632   4.681   0.490   8.848
13130WAT     H239633   4.827   0.508   8.777
13131WAT      O39634   5.475   6.664   8.172
13131WAT     H139635   5.505   6.641   8.079
13131WAT     H239636   5.550   6.709   8.221
13132WAT      O39637   1.255   3.618   7.232
13132WAT     H139638   1.262   3.572   7.321
13132WAT     H239639   1.291   3.711   7.240
13133WAT      O39640   8.830   6.962   9.251
13133WAT     H139641   8.876   7.031   9.195
13133WAT     H239642   8.816   6.998   9.344
13134WAT      O39643   5.240   9.631   4.930
13134WAT     H139644   5.219   9.673   4.842
13134WAT     H239645   5.328   9.583   4.924
13135WAT      O39646   5.058   4.025   6.278
13135WAT     H139647   5.048   4.075   6.363
13135WAT     H239648   5.023   3.932   6.289
13136WAT      O39649   5.389   5.351   2.759
13136WAT     H139650   5.472   5.368   2.707
13136WAT     H239651   5.404   5.273   2.821
13137WAT      O39652   6.371   6.974   4.430
13137WAT     H139653   6.461   7.009   4.404
13137WAT     H239654   6.362   6.880   4.397
13138WAT      O39655   6.227   5.969   3.043
13138WAT     H139656   6.298   6.039   3.031
13138WAT     H239657   6.148   5.993   2.987
13139WAT      O39658   8.122   1.142   3.306
13139WAT     H139659   8.094   1.225   3.256
13139WAT     H239660   8.186   1.167   3.379
13140WAT      O39661   1.535   9.541   1.187
13140WAT     H139662   1.556   9.627   1.233
13140WAT     H239663   1.603   9.472   1.214
13141WAT      O39664   3.062   5.110   3.292
13141WAT     H139665   3.092   5.132   3.199
13141WAT     H239666   2.992   5.038   3.288
13142WAT      O39667   0.719   1.395   1.106
13142WAT     H139668   0.689   1.458   1.034
13142WAT     H239669   0.819   1.395   1.111
13143WAT      O39670   8.362   1.507   0.781
13143WAT     H139671   8.452   1.511   0.738
13143WAT     H239672   8.347   1.417   0.821
13144WAT      O39673   1.824   3.581   3.689
13144WAT     H139674   1.760   3.548   3.758
13144WAT     H239675   1.833   3.512   3.617
13145WAT      O39676   4.410   3.682   2.102
13145WAT     H139677   4.331   3.740   2.085
13145WAT     H239678   4.380   3.598   2.148
13146WAT      O39679   0.844   0.461   1.072
13146WAT     H139680   0.757   0.443   1.024
13146WAT     H239681   0.868   0.382   1.128
13147WAT      O39682   7.274   2.346   4.415
13147WAT     H139683   7.315   2.256   4.400
13147WAT     H239684   7.189   2.336   4.468
13148WAT      O39685   3.727   9.610   6.305
13148WAT     H139686   3.801   9.547   6.329
13148WAT     H239687   3.639   9.566   6.321
13149WAT      O39688   8.615   6.719   6.669
13149WAT     H139689   8.634   6.623   6.648
13149WAT     H239690   8.630   6.774   6.587
13150WAT      O39691   4.145   5.935   8.231
13150WAT     H139692   4.140   6.015   8.170
13150WAT     H239693   4.095   5.859   8.191
13151WAT      O39694   6.237   7.739   2.167
13151WAT     H139695   6.149   7.695   2.183
13151WAT     H239696   6.301   7.714   2.239
13152WAT      O39697   3.160   8.851   9.432
13152WAT     H139698   3.235   8.848   9.498
13152WAT     H239699   3.168   8.774   9.369
13153WAT      O39700   8.353   9.708   6.360
13153WAT     H139701   8.423   9.755   6.414
13153WAT     H239702   8.393   9.627   6.317
13154WAT      O39703   6.074   2.031   7.470
13154WAT     H139704   6.091   1.933   7.479
13154WAT     H239705   5.978   2.046   7.447
13155WAT      O39706   2.516   3.442   6.995
13155WAT     H139707   2.548   3.420   7.087
13155WAT     H239708   2.430   3.393   6.978
13156WAT      O39709   8.119   5.399   4.418
13156WAT     H139710   8.205   5.410   4.369
13156WAT     H239711   8.060   5.478   4.400
13157WAT      O39712   1.588   3.832   5.993
13157WAT     H139713   1.615   3.861   5.902
13157WAT     H239714   1.537   3.905   6.038
13158WAT      O39715   2.918   1.050   9.844
13158WAT     H139716   2.953   1.126   9.900
13158WAT     H239717   2.920   0.966   9.898
13159WAT      O39718   4.779   7.494   8.207
13159WAT     H139719   4.865   7.445   8.224
13159WAT     H239720   4.707   7.429   8.184
13160WAT      O39721   6.901   2.535   9.492
13160WAT     H139722   6.890   2.438   9.515
13160WAT     H239723   6.814   2.571   9.459
13161WAT      O39724   8.074   0.452   3.534
13161WAT     H139725   8.102   0.368   3.487
13161WAT     H239726   8.110   0.531   3.485
13162WAT      O39727   5.811   3.992   7.821
13162WAT     H139728   5.788   3.895   7.823
13162WAT     H239729   5.775   4.033   7.737
13163WAT      O39730   0.608   1.401   8.177
13163WAT     H139731   0.638   1.493   8.200
13163WAT     H239732   0.540   1.370   8.244
13164WAT      O39733   9.884   9.646   9.617
13164WAT     H139734   9.813   9.638   9.687
13164WAT     H239735   9.915   9.554   9.591
13165WAT      O39736   5.181   6.106   5.583
13165WAT     H139737   5.165   6.125   5.680
13165WAT     H239738   5.278   6.089   5.568
13166WAT      O39739   1.468   7.736   0.609
13166WAT     H139740   1.390   7.674   0.611
13166WAT     H239741   1.485   7.765   0.515
13167WAT      O39742   6.308   5.863   9.433
13167WAT     H139743   6.244   5.835   9.362
13167WAT     H239744   6.276   5.830   9.522
13168WAT      O39745   1.714   4.824   9.205
13168WAT     H139746   1.694   4.728   9.224
13168WAT     H239747   1.775   4.860   9.276
13169WAT      O39748   1.678   7.241   4.004
13169WAT     H139749   1.615   7.242   4.082
13169WAT     H239750   1.715   7.149   3.992
13170WAT      O39751   7.320   0.844   5.283
13170WAT     H139752   7.234   0.895   5.283
13170WAT     H239753   7.383   0.885   5.349
13171WAT      O39754   2.538   6.843   3.354
13171WAT     H139755   2.552   6.874   3.448
13171WAT     H239756   2.620   6.795   3.322
13172WAT      O39757   5.365   5.011   6.917
13172WAT     H139758   5.333   4.926   6.875
13172WAT     H239759   5.300   5.085   6.896
13173WAT      O39760   2.379   2.162   5.773
13173WAT     H139761   2.438   2.145   5.851
13173WAT     H239762   2.322   2.242   5.791
13174WAT      O39763   7.375   7.592   8.514
13174WAT     H139764   7.318   7.609   8.594
13174WAT     H239765   7.444   7.665   8.505
13175WAT      O39766   1.822   6.352   2.251
13175WAT     H139767   1.874   6.314   2.175
13175WAT     H239768   1.879   6.418   2.301
13176WAT      O39769   9.820   4.792   5.518
13176WAT     H139770   9.826   4.752   5.609
13176WAT     H239771   9.896   4.855   5.504
13177WAT      O39772   0.933   4.268   4.347
13177WAT     H139773   1.003   4.197   4.349
13177WAT     H239774   0.950   4.329   4.270
13178WAT      O39775   4.598   5.114   1.243
13178WAT     H139776   4.634   5.206   1.255
13178WAT     H239777   4.524   5.099   1.310
13179WAT      O39778   7.340   7.123   8.813
13179WAT     H139779   7.269   7.081   8.756
13179WAT     H239780   7.361   7.215   8.779
13180WAT      O39781   3.804   4.716   7.834
13180WAT     H139782   3.744   4.793   7.856
13180WAT     H239783   3.806   4.703   7.734
13181WAT      O39784   3.180   2.087   2.261
13181WAT     H139785   3.272   2.073   2.226
13181WAT     H239786   3.134   1.999   2.271
13182WAT      O39787   0.477   4.830   5.807
13182WAT     H139788   0.417   4.901   5.845
13182WAT     H239789   0.447   4.806   5.715
13183WAT      O39790   5.111   9.191   2.043
13183WAT     H139791   5.063   9.207   1.957
13183WAT     H239792   5.210   9.194   2.027
13184WAT      O39793   6.762   9.830   8.144
13184WAT     H139794   6.813   9.754   8.183
13184WAT     H239795   6.680   9.848   8.199
13185WAT      O39796   3.523   5.409   2.777
13185WAT     H139797   3.587   5.461   2.833
13185WAT     H239798   3.448   5.375   2.834
13186WAT      O39799   5.797   5.657   8.455
13186WAT     H139800   5.875   5.596   8.470
13186WAT     H239801   5.725   5.606   8.407
13187WAT      O39802   1.433   2.354   9.089
13187WAT     H139803   1.396   2.267   9.055
13187WAT     H239804   1.459   2.411   9.011
13188WAT      O39805   9.659   3.217   2.612
13188WAT     H139806   9.644   3.314   2.627
13188WAT     H239807   9.750   3.192   2.643
13189WAT      O39808   3.634   6.453   7.620
13189WAT     H139809   3.582   6.488   7.542
13189WAT     H239810   3.578   6.387   7.670
13190WAT      O39811   6.661   1.899   9.391
13190WAT     H139812   6.710   1.816   9.417
13190WAT     H239813   6.661   1.963   9.468
13191WAT      O39814   6.824   7.471   0.752
13191WAT     H139815   6.850   7.398   0.814
13191WAT     H239816   6.741   7.516   0.785
13192WAT      O39817   1.399   6.073   2.591
13192WAT     H139818   1.401   5.985   2.543
13192WAT     H239819   1.485   6.121   2.575
13193WAT      O39820   1.161   9.165   0.104
13193WAT     H139821   1.167   9.089   0.039
13193WAT     H239822   1.099   9.234   0.068
13194WAT      O39823   0.388   9.373   5.467
13194WAT     H139824   0.386   9.376   5.367
13194WAT     H239825   0.352   9.285   5.499
13195WAT      O39826   8.608   4.193   1.068
13195WAT     H139827   8.643   4.135   0.994
13195WAT     H239828   8.528   4.150   1.109
13196WAT      O39829   6.547   8.954   3.695
13196WAT     H139830   6.544   8.946   3.795
13196WAT     H239831   6.642   8.969   3.667
13197WAT      O39832   9.431   4.963   0.477
13197WAT     H139833   9.528   4.954   0.496
13197WAT     H239834   9.410   4.921   0.388
13198WAT      O39835   7.987   7.583   7.444
13198WAT     H139836   7.957   7.621   7.356
13198WAT     H239837   7.908   7.573   7.504
13199WAT      O39838   1.670   5.896   6.472
13199WAT     H139839   1.692   5.802   6.447
13199WAT     H239840   1.724   5.922   6.552
13200WAT      O39841   4.641   9.784   1.908
13200WAT     H139842   4.628   9.826   1.998
13200WAT     H239843   4.553   9.775   1.862
13201WAT      O39844   1.955   6.264   2.008
13201WAT     H139845   2.049   6.299   2.005
13201WAT     H239846   1.892   6.334   1.975
13202WAT      O39847   0.871   5.868   2.380
13202WAT     H139848   0.923   5.946   2.416
13202WAT     H239849   0.777   5.874   2.412
13203WAT      O39850   0.131   5.121   1.524
13203WAT     H139851   0.123   5.157   1.432
13203WAT     H239852   0.111   5.193   1.590
13204WAT      O39853   0.451   8.406   6.974
13204WAT     H139854   0.507   8.323   6.971
13204WAT     H239855   0.450   8.449   6.884
13205WAT      O39856   0.352   6.570   8.575
13205WAT     H139857   0.431   6.550   8.517
13205WAT     H239858   0.270   6.531   8.535
13206WAT      O39859   0.665   8.891   4.150
13206WAT     H139860   0.589   8.885   4.214
13206WAT     H239861   0.734   8.822   4.173
13207WAT      O39862   0.351   6.491   0.704
13207WAT     H139863   0.366   6.442   0.790
13207WAT     H239864   0.411   6.570   0.700
13208WAT      O39865   7.386   3.241   3.860
13208WAT     H139866   7.416   3.146   3.852
13208WAT     H239867   7.305   3.255   3.804
13209WAT      O39868   7.502   9.272   9.089
13209WAT     H139869   7.554   9.207   9.145
13209WAT     H239870   7.429   9.312   9.145
13210WAT      O39871   8.545   1.263   2.289
13210WAT     H139872   8.454   1.222   2.283
13210WAT     H239873   8.559   1.324   2.211
13211WAT      O39874   4.845   4.981   7.521
13211WAT     H139875   4.789   5.061   7.544
13211WAT     H239876   4.851   4.972   7.422
13212WAT      O39877   5.422   4.621   0.026
13212WAT     H139878   5.450   4.625  -0.070
13212WAT     H239879   5.337   4.671   0.039
13213WAT      O39880   7.178   4.858   3.191
13213WAT     H139881   7.278   4.866   3.201
13213WAT     H239882   7.134   4.877   3.279
13214WAT      O39883   4.488   1.063   5.599
13214WAT     H139884   4.445   0.984   5.643
13214WAT     H239885   4.576   1.081   5.642
13215WAT      O39886   7.432   3.765   4.913
13215WAT     H139887   7.531   3.780   4.904
13215WAT     H239888   7.386   3.797   4.831
13216WAT      O39889   8.413   6.389   0.988
13216WAT     H139890   8.457   6.375   1.077
13216WAT     H239891   8.314   6.385   0.999
13217WAT      O39892   6.022   3.283   1.879
13217WAT     H139893   6.039   3.316   1.786
13217WAT     H239894   6.109   3.267   1.925
13218WAT      O39895   5.687   1.719   5.730
13218WAT     H139896   5.771   1.734   5.782
13218WAT     H239897   5.610   1.709   5.793
13219WAT      O39898   5.526   4.140   5.435
13219WAT     H139899   5.524   4.077   5.357
13219WAT     H239900   5.611   4.193   5.432
13220WAT      O39901   7.925   7.019   4.754
13220WAT     H139902   7.951   7.056   4.665
13220WAT     H239903   8.000   6.964   4.791
13221WAT      O39904   0.353   1.562   1.592
13221WAT     H139905   0.320   1.530   1.681
13221WAT     H239906   0.320   1.501   1.521
13222WAT      O39907   5.264   3.242   0.485
13222WAT     H139908   5.216   3.329   0.491
13222WAT     H239909   5.307   3.234   0.395
13223WAT      O39910   8.615   2.765   7.437
13223WAT     H139911   8.588   2.687   7.494
13223WAT     H239912   8.625   2.846   7.495
13224WAT      O39913   1.815   5.447   3.557
13224WAT     H139914   1.798   5.476   3.463
13224WAT     H239915   1.748   5.378   3.584
13225WAT      O39916   8.498   9.139   6.955
13225WAT     H139917   8.405   9.115   6.984
13225WAT     H239918   8.495   9.222   6.900
13226WAT      O39919   7.615   6.052   5.578
13226WAT     H139920   7.615   6.097   5.667
13226WAT     H239921   7.677   5.973   5.581
13227WAT      O39922   5.040   8.680   4.108
13227WAT     H139923   4.988   8.707   4.027
13227WAT     H239924   4.996   8.600   4.151
13228WAT      O39925   7.556   5.500   8.807
13228WAT     H139926   7.596   5.531   8.893
13228WAT     H239927   7.488   5.429   8.825
13229WAT      O39928   6.621   1.860   8.313
13229WAT     H139929   6.658   1.805   8.387
13229WAT     H239930   6.545   1.916   8.348
13230WAT      O39931   6.484   8.186   1.315
13230WAT     H139932   6.409   8.251   1.327
13230WAT     H239933   6.460   8.120   1.244
13231WAT      O39934   2.370   5.616   7.544
13231WAT     H139935   2.301   5.670   7.593
13231WAT     H239936   2.461   5.654   7.561
13232WAT      O39937   0.590   5.911   5.061
13232WAT     H139938   0.663   5.979   5.059
13232WAT     H239939   0.501   5.957   5.052
13233WAT      O39940   1.365   5.697   5.387
13233WAT     H139941   1.444   5.650   5.424
13233WAT     H239942   1.383   5.796   5.383
13234WAT      O39943   5.758   4.057   3.309
13234WAT     H139944   5.692   4.127   3.282
13234WAT     H239945   5.710   3.984   3.358
13235WAT      O39946   6.063   3.735   8.032
13235WAT     H139947   6.105   3.823   8.053
13235WAT     H239948   6.118   3.688   7.962
13236WAT      O39949   7.245   0.621   4.263
13236WAT     H139950   7.337   0.624   4.224
13236WAT     H239951   7.185   0.682   4.211
13237WAT      O39952   6.319   4.150   9.688
13237WAT     H139953   6.417   4.155   9.674
13237WAT     H239954   6.274   4.225   9.640
13238WAT      O39955   2.707   6.263   4.114
13238WAT     H139956   2.668   6.326   4.046
13238WAT     H239957   2.649   6.263   4.196
13239WAT      O39958   7.505   4.553   7.061
13239WAT     H139959   7.574   4.557   6.989
13239WAT     H239960   7.445   4.475   7.045
13240WAT      O39961   7.697   9.769   0.576
13240WAT     H139962   7.701   9.797   0.480
13240WAT     H239963   7.615   9.807   0.618
13241WAT      O39964   3.406   5.714   3.779
13241WAT     H139965   3.361   5.787   3.728
13241WAT     H239966   3.405   5.736   3.876
13242WAT      O39967   3.890   5.458   1.909
13242WAT     H139968   3.836   5.506   1.978
13242WAT     H239969   3.925   5.372   1.948
13243WAT      O39970   2.107   7.240   5.522
13243WAT     H139971   2.136   7.289   5.604
13243WAT     H239972   2.012   7.262   5.502
13244WAT      O39973   2.212   3.074   9.003
13244WAT     H139974   2.249   3.077   9.096
13244WAT     H239975   2.284   3.045   8.939
13245WAT      O39976   1.170   0.878   8.053
13245WAT     H139977   1.193   0.920   7.965
13245WAT     H239978   1.089   0.924   8.091
13246WAT      O39979   6.766   5.199   0.739
13246WAT     H139980   6.728   5.186   0.830
13246WAT     H239981   6.773   5.110   0.693
13247WAT      O39982   6.906   0.766   2.098
13247WAT     H139983   6.848   0.807   2.169
13247WAT     H239984   6.990   0.730   2.141
13248WAT      O39985   0.097   8.176   7.199
13248WAT     H139986   0.035   8.203   7.125
13248WAT     H239987   0.181   8.229   7.193
13249WAT      O39988   6.611   7.407   7.883
13249WAT     H139989   6.610   7.488   7.942
13249WAT     H239990   6.598   7.325   7.939
13250WAT      O39991   0.025   0.706   1.283
13250WAT     H139992  -0.043   0.719   1.355
13250WAT     H239993   0.025   0.787   1.224
13251WAT      O39994   5.143   2.759   3.163
13251WAT     H139995   5.205   2.715   3.098
13251WAT     H239996   5.174   2.742   3.256
13252WAT      O39997   4.005   8.350   9.489
13252WAT     H139998   3.979   8.312   9.578
13252WAT     H239999   4.101   8.376   9.491
13253WAT      O40000   8.015   5.877   8.811
13253WAT     H140001   7.969   5.851   8.896
13253WAT     H240002   8.047   5.972   8.818
13254WAT      O40003   0.296   3.210   2.938
13254WAT     H140004   0.383   3.241   2.900
13254WAT     H240005   0.285   3.112   2.923
13255WAT      O40006   8.565   9.466   5.153
13255WAT     H140007   8.515   9.533   5.207
13255WAT     H240008   8.606   9.398   5.214
13256WAT      O40009   0.185   2.288   3.834
13256WAT     H140010   0.110   2.259   3.773
13256WAT     H240011   0.198   2.220   3.905
13257WAT      O40012   1.811   9.441   7.445
13257WAT     H140013   1.743   9.466   7.514
13257WAT     H240014   1.880   9.381   7.486
13258WAT      O40015   0.042   9.472   6.260
13258WAT     H140016  -0.056   9.478   6.241
13258WAT     H240017   0.066   9.539   6.330
13259WAT      O40018   8.146   1.186   4.223
13259WAT     H140019   8.236   1.146   4.212
13259WAT     H240020   8.139   1.228   4.314
13260WAT      O40021   3.253   2.539   8.852
13260WAT     H140022   3.335   2.510   8.803
13260WAT     H240023   3.171   2.509   8.803
13261WAT      O40024   8.208   0.487   9.470
13261WAT     H140025   8.121   0.494   9.421
13261WAT     H240026   8.254   0.576   9.470
13262WAT      O40027   0.530   5.181   1.456
13262WAT     H140028   0.586   5.189   1.373
13262WAT     H240029   0.488   5.091   1.459
13263WAT      O40030   3.188   9.083   1.604
13263WAT     H140031   3.269   9.043   1.646
13263WAT     H240032   3.142   9.142   1.671
13264WAT      O40033   1.023   3.314   8.134
13264WAT     H140034   1.073   3.399   8.147
13264WAT     H240035   1.060   3.266   8.054
13265WAT      O40036   6.471   0.463   8.806
13265WAT     H140037   6.403   0.530   8.775
13265WAT     H240038   6.460   0.377   8.756
13266WAT      O40039   3.469   7.451   2.395
13266WAT     H140040   3.497   7.488   2.307
13266WAT     H240041   3.371   7.467   2.409
13267WAT      O40042   6.720   2.014   7.331
13267WAT     H140043   6.760   2.104   7.346
13267WAT     H240044   6.778   1.962   7.268
13268WAT      O40045   4.084   0.129   2.514
13268WAT     H140046   4.108   0.060   2.445
13268WAT     H240047   4.129   0.215   2.492
13269WAT      O40048   6.428   0.419   4.202
13269WAT     H140049   6.477   0.397   4.286
13269WAT     H240050   6.373   0.340   4.175
13270WAT      O40051   2.847   3.248   8.240
13270WAT     H140052   2.804   3.334   8.270
13270WAT     H240053   2.933   3.269   8.193
13271WAT      O40054   1.474   5.214   9.732
13271WAT     H140055   1.436   5.140   9.788
13271WAT     H240056   1.420   5.224   9.648
13272WAT      O40057   9.349   2.101   1.396
13272WAT     H140058   9.347   2.197   1.424
13272WAT     H240059   9.348   2.043   1.477
13273WAT      O40060   4.093   2.365   1.321
13273WAT     H140061   4.177   2.366   1.267
13273WAT     H240062   4.086   2.450   1.373
13274WAT      O40063   5.425   5.819   4.313
13274WAT     H140064   5.494   5.888   4.336
13274WAT     H240065   5.400   5.827   4.217
13275WAT      O40066   3.361   7.577   1.560
13275WAT     H140067   3.339   7.511   1.488
13275WAT     H240068   3.339   7.669   1.529
13276WAT      O40069   4.258   2.434   6.091
13276WAT     H140070   4.174   2.448   6.039
13276WAT     H240071   4.329   2.399   6.030
13277WAT      O40072   1.508   7.897   2.128
13277WAT     H140073   1.548   7.836   2.059
13277WAT     H240074   1.581   7.945   2.177
13278WAT      O40075   2.219   0.174   5.491
13278WAT     H140076   2.307   0.187   5.445
13278WAT     H240077   2.233   0.166   5.589
13279WAT      O40078   0.775   3.842   0.271
13279WAT     H140079   0.687   3.796   0.273
13279WAT     H240080   0.846   3.776   0.246
13280WAT      O40081   3.951   7.948   3.235
13280WAT     H140082   4.032   7.933   3.179
13280WAT     H240083   3.977   7.985   3.323
13281WAT      O40084   4.985   2.380   3.834
13281WAT     H140085   4.957   2.372   3.930
13281WAT     H240086   5.056   2.312   3.814
13282WAT      O40087   6.588   2.157   2.749
13282WAT     H140088   6.536   2.156   2.663
13282WAT     H240089   6.532   2.199   2.820
13283WAT      O40090   9.793   8.698   6.850
13283WAT     H140091   9.807   8.609   6.807
13283WAT     H240092   9.752   8.761   6.784
13284WAT      O40093   0.570   1.181   0.365
13284WAT     H140094   0.480   1.217   0.389
13284WAT     H240095   0.585   1.093   0.411
13285WAT      O40096   6.750   8.859   8.310
13285WAT     H140097   6.725   8.805   8.230
13285WAT     H240098   6.840   8.899   8.296
13286WAT      O40099   4.046   1.718   9.215
13286WAT     H140100   4.057   1.763   9.303
13286WAT     H240101   3.953   1.682   9.207
13287WAT      O40102   2.270   8.420   2.027
13287WAT     H140103   2.308   8.339   2.073
13287WAT     H240104   2.217   8.390   1.947
13288WAT      O40105   6.281   9.364   0.470
13288WAT     H140106   6.358   9.418   0.436
13288WAT     H240107   6.199   9.422   0.474
13289WAT      O40108   4.742   0.002   1.298
13289WAT     H140109   4.650   0.033   1.278
13289WAT     H240110   4.761   0.013   1.395
13290WAT      O40111   2.342   9.172   9.277
13290WAT     H140112   2.340   9.097   9.343
13290WAT     H240113   2.320   9.258   9.323
13291WAT      O40114   9.512   4.897   2.999
13291WAT     H140115   9.420   4.931   2.982
13291WAT     H240116   9.562   4.964   3.055
13292WAT      O40117   6.784   7.220   7.403
13292WAT     H140118   6.840   7.301   7.381
13292WAT     H240119   6.777   7.210   7.502
13293WAT      O40120   5.798   1.935   1.638
13293WAT     H140121   5.859   2.009   1.664
13293WAT     H240122   5.808   1.915   1.541
13294WAT      O40123   8.436   2.145   3.588
13294WAT     H140124   8.448   2.076   3.659
13294WAT     H240125   8.401   2.229   3.629
13295WAT      O40126   2.498   6.085   0.502
13295WAT     H140127   2.499   6.170   0.555
13295WAT     H240128   2.592   6.055   0.485
13296WAT      O40129   0.420   0.555   7.450
13296WAT     H140130   0.486   0.629   7.436
13296WAT     H240131   0.344   0.566   7.386
13297WAT      O40132   8.745   9.642   6.880
13297WAT     H140133   8.720   9.723   6.826
13297WAT     H240134   8.821   9.594   6.836
13298WAT      O40135   3.658   9.614   8.452
13298WAT     H140136   3.590   9.657   8.512
13298WAT     H240137   3.644   9.515   8.452
13299WAT      O40138   0.513   3.773   6.448
13299WAT     H140139   0.598   3.825   6.433
13299WAT     H240140   0.515   3.690   6.391
13300WAT      O40141   5.655   9.075   0.657
13300WAT     H140142   5.666   9.053   0.560
13300WAT     H240143   5.563   9.110   0.673
13301WAT      O40144   7.748   8.520   3.641
13301WAT     H140145   7.828   8.475   3.601
13301WAT     H240146   7.676   8.452   3.656
13302WAT      O40147   9.695   4.548   3.563
13302WAT     H140148   9.739   4.499   3.487
13302WAT     H240149   9.602   4.514   3.575
13303WAT      O40150   0.909   6.594   4.815
13303WAT     H140151   0.955   6.546   4.740
13303WAT     H240152   0.948   6.564   4.902
13304WAT      O40153   6.814   0.298   8.675
13304WAT     H140154   6.841   0.391   8.701
13304WAT     H240155   6.780   0.250   8.757
13305WAT      O40156   8.641   5.603   4.303
13305WAT     H140157   8.688   5.630   4.387
13305WAT     H240158   8.707   5.562   4.240
13306WAT      O40159   6.846   1.918   8.500
13306WAT     H140160   6.915   1.919   8.428
13306WAT     H240161   6.807   1.826   8.507
13307WAT      O40162   3.910   5.916   3.858
13307WAT     H140163   3.855   5.936   3.939
13307WAT     H240164   3.874   5.967   3.780
13308WAT      O40165   3.967   1.538   3.657
13308WAT     H140166   3.962   1.444   3.690
13308WAT     H240167   4.048   1.549   3.600
13309WAT      O40168   3.452   5.318   6.773
13309WAT     H140169   3.363   5.363   6.776
13309WAT     H240170   3.522   5.381   6.808
13310WAT      O40171   2.955   7.410   1.505
13310WAT     H140172   2.928   7.495   1.459
13310WAT     H240173   2.936   7.418   1.603
13311WAT      O40174   1.925   7.828   2.108
13311WAT     H140175   1.961   7.736   2.123
13311WAT     H240176   1.945   7.885   2.188
13312WAT      O40177   9.818   8.429   1.545
13312WAT     H140178   9.870   8.393   1.622
13312WAT     H240179   9.746   8.490   1.578
13313WAT      O40180   7.239   1.311   6.251
13313WAT     H140181   7.255   1.331   6.154
13313WAT     H240182   7.306   1.245   6.283
13314WAT      O40183   9.342   3.316   4.510
13314WAT     H140184   9.381   3.407   4.501
13314WAT     H240185   9.409   3.255   4.552
13315WAT      O40186   8.151   8.191   8.327
13315WAT     H140187   8.207   8.257   8.377
13315WAT     H240188   8.161   8.100   8.368
13316WAT      O40189   2.283   9.709   5.039
13316WAT     H140190   2.336   9.791   5.061
13316WAT     H240191   2.296   9.641   5.111
13317WAT      O40192   7.630   2.666   0.689
13317WAT     H140193   7.560   2.713   0.636
13317WAT     H240194   7.706   2.728   0.708
13318WAT      O40195   3.543   6.550   4.806
13318WAT     H140196   3.451   6.528   4.775
13318WAT     H240197   3.574   6.634   4.761
13319WAT      O40198   2.843   3.928   1.374
13319WAT     H140199   2.905   4.004   1.356
13319WAT     H240200   2.856   3.895   1.467
13320WAT      O40201   1.393   6.671   7.208
13320WAT     H140202   1.427   6.741   7.145
13320WAT     H240203   1.366   6.715   7.294
13321WAT      O40204   7.461   0.171   5.745
13321WAT     H140205   7.489   0.094   5.688
13321WAT     H240206   7.450   0.252   5.688
13322WAT      O40207   3.841   3.042   8.796
13322WAT     H140208   3.772   3.073   8.731
13322WAT     H240209   3.801   2.975   8.859
13323WAT      O40210   7.707   4.424   5.543
13323WAT     H140211   7.659   4.447   5.628
13323WAT     H240212   7.649   4.448   5.465
13324WAT      O40213   1.196   3.733   1.898
13324WAT     H140214   1.208   3.814   1.840
13324WAT     H240215   1.120   3.678   1.863
13325WAT      O40216   4.629   2.361   1.251
13325WAT     H140217   4.572   2.431   1.210
13325WAT     H240218   4.655   2.389   1.344
13326WAT      O40219   8.231   0.047   9.599
13326WAT     H140220   8.245   0.083   9.691
13326WAT     H240221   8.138   0.010   9.592
13327WAT      O40222   3.660   9.205   9.526
13327WAT     H140223   3.702   9.136   9.586
13327WAT     H240224   3.732   9.253   9.476
13328WAT      O40225   2.959   2.581   1.508
13328WAT     H140226   2.926   2.666   1.467
13328WAT     H240227   2.947   2.506   1.444
13329WAT      O40228   0.341   2.611   0.105
13329WAT     H140229   0.431   2.623   0.146
13329WAT     H240230   0.272   2.660   0.159
13330WAT      O40231   6.495   7.449   1.923
13330WAT     H140232   6.401   7.479   1.909
13330WAT     H240233   6.555   7.529   1.926
13331WAT      O40234   9.453   2.118   9.318
13331WAT     H140235   9.520   2.165   9.261
13331WAT     H240236   9.393   2.185   9.361
13332WAT      O40237   8.056   9.268   3.089
13332WAT     H140238   8.057   9.241   3.185
13332WAT     H240239   7.981   9.222   3.042
13333WAT      O40240   5.435   1.166   3.009
13333WAT     H140241   5.470   1.165   3.102
13333WAT     H240242   5.424   1.072   2.977
13334WAT      O40243   3.848   8.594   2.113
13334WAT     H140244   3.878   8.632   2.200
13334WAT     H240245   3.765   8.640   2.082
13335WAT      O40246   6.437   9.467   4.096
13335WAT     H140247   6.422   9.555   4.143
13335WAT     H240248   6.456   9.484   4.000
13336WAT      O40249   3.405   3.340   1.297
13336WAT     H140250   3.490   3.392   1.290
13336WAT     H240251   3.401   3.294   1.386
13337WAT      O40252   9.186   4.294   6.436
13337WAT     H140253   9.179   4.220   6.370
13337WAT     H240254   9.186   4.382   6.388
13338WAT      O40255   1.063   3.659   3.361
13338WAT     H140256   1.107   3.647   3.271
13338WAT     H240257   1.124   3.712   3.420
13339WAT      O40258   9.698   6.247   6.527
13339WAT     H140259   9.755   6.207   6.455
13339WAT     H240260   9.623   6.184   6.548
13340WAT      O40261   0.328   2.335   8.321
13340WAT     H140262   0.256   2.395   8.358
13340WAT     H240263   0.401   2.325   8.389
13341WAT      O40264   6.267   1.762   5.413
13341WAT     H140265   6.346   1.734   5.359
13341WAT     H240266   6.268   1.715   5.501
13342WAT      O40267   1.211   2.983   2.513
13342WAT     H140268   1.256   2.927   2.583
13342WAT     H240269   1.134   2.931   2.475
13343WAT      O40270   4.283   7.709   4.175
13343WAT     H140271   4.330   7.674   4.256
13343WAT     H240272   4.207   7.768   4.202
13344WAT      O40273   4.570   3.500   8.302
13344WAT     H140274   4.647   3.522   8.362
13344WAT     H240275   4.516   3.583   8.285
13345WAT      O40276   2.345   8.060   2.853
13345WAT     H140277   2.418   8.113   2.810
13345WAT     H240278   2.347   8.074   2.952
13346WAT      O40279   0.458   8.965   5.886
13346WAT     H140280   0.528   8.926   5.946
13346WAT     H240281   0.393   8.894   5.861
13347WAT      O40282   2.001   5.408   9.072
13347WAT     H140283   2.014   5.355   9.156
13347WAT     H240284   1.915   5.383   9.029
13348WAT      O40285   8.099   2.937   1.769
13348WAT     H140286   8.151   2.861   1.731
13348WAT     H240287   8.091   2.925   1.868
13349WAT      O40288   8.113   8.669   9.798
13349WAT     H140289   8.118   8.604   9.723
13349WAT     H240290   8.036   8.645   9.858
13350WAT      O40291   7.296   8.228   3.534
13350WAT     H140292   7.236   8.263   3.462
13350WAT     H240293   7.254   8.147   3.576
13351WAT      O40294   6.622   5.434   6.617
13351WAT     H140295   6.562   5.512   6.600
13351WAT     H240296   6.691   5.430   6.545
13352WAT      O40297   6.093   3.530   4.020
13352WAT     H140298   5.997   3.513   4.042
13352WAT     H240299   6.151   3.474   4.080
13353WAT      O40300   5.108   4.493   1.653
13353WAT     H140301   5.060   4.418   1.609
13353WAT     H240302   5.200   4.502   1.615
13354WAT      O40303   4.258   9.101   5.622
13354WAT     H140304   4.337   9.072   5.569
13354WAT     H240305   4.242   9.035   5.696
13355WAT      O40306   5.109   9.037   1.654
13355WAT     H140307   5.159   8.952   1.669
13355WAT     H240308   5.165   9.100   1.600
13356WAT      O40309   7.071   0.984   3.486
13356WAT     H140310   7.125   1.055   3.442
13356WAT     H240311   7.015   1.024   3.559
13357WAT      O40312   4.881   2.850   4.242
13357WAT     H140313   4.822   2.824   4.166
13357WAT     H240314   4.966   2.798   4.238
13358WAT      O40315   1.307   5.699   6.981
13358WAT     H140316   1.290   5.735   6.889
13358WAT     H240317   1.220   5.683   7.027
13359WAT      O40318   6.393   7.050   3.120
13359WAT     H140319   6.447   6.971   3.090
13359WAT     H240320   6.406   7.064   3.218
13360WAT      O40321   5.866   5.868   6.053
13360WAT     H140322   5.769   5.852   6.030
13360WAT     H240323   5.922   5.798   6.009
13361WAT      O40324   4.044   1.760   6.383
13361WAT     H140325   3.961   1.787   6.432
13361WAT     H240326   4.037   1.787   6.287
13362WAT      O40327   6.207   4.025   7.695
13362WAT     H140328   6.183   3.928   7.696
13362WAT     H240329   6.141   4.076   7.750
13363WAT      O40330   7.480   4.677   2.275
13363WAT     H140331   7.573   4.671   2.310
13363WAT     H240332   7.460   4.771   2.248
13364WAT      O40333   7.904   3.821   9.222
13364WAT     H140334   8.003   3.825   9.208
13364WAT     H240335   7.874   3.902   9.273
13365WAT      O40336   0.766   7.348   4.416
13365WAT     H140337   0.826   7.279   4.376
13365WAT     H240338   0.764   7.429   4.357
13366WAT      O40339   1.070   4.940   8.314
13366WAT     H140340   0.973   4.925   8.297
13366WAT     H240341   1.092   4.916   8.409
13367WAT      O40342   9.344   3.506   8.476
13367WAT     H140343   9.277   3.456   8.530
13367WAT     H240344   9.402   3.441   8.426
13368WAT      O40345   2.085   0.131   3.087
13368WAT     H140346   2.050   0.038   3.084
13368WAT     H240347   2.148   0.146   3.011
13369WAT      O40348   2.197   0.831   2.699
13369WAT     H140349   2.263   0.786   2.639
13369WAT     H240350   2.133   0.764   2.736
13370WAT      O40351   0.681   2.850   2.539
13370WAT     H140352   0.720   2.760   2.561
13370WAT     H240353   0.752   2.919   2.541
13371WAT      O40354   4.191   5.285   6.924
13371WAT     H140355   4.139   5.200   6.938
13371WAT     H240356   4.289   5.263   6.920
13372WAT      O40357   7.400   2.099   0.297
13372WAT     H140358   7.302   2.100   0.281
13372WAT     H240359   7.448   2.137   0.218
13373WAT      O40360   2.424   7.735   4.875
13373WAT     H140361   2.433   7.638   4.900
13373WAT     H240362   2.397   7.787   4.955
13374WAT      O40363   9.477   0.174   4.245
13374WAT     H140364   9.474   0.156   4.344
13374WAT     H240365   9.469   0.273   4.230
13375WAT      O40366   3.752   9.085   6.929
13375WAT     H140367   3.759   8.987   6.908
13375WAT     H240368   3.657   9.109   6.944
13376WAT      O40369   5.742   8.281   3.081
13376WAT     H140370   5.804   8.333   3.140
13376WAT     H240371   5.653   8.273   3.126
13377WAT      O40372   8.868   9.591   1.700
13377WAT     H140373   8.930   9.548   1.766
13377WAT     H240374   8.778   9.549   1.707
13378WAT      O40375   0.338   8.506   8.659
13378WAT     H140376   0.347   8.450   8.742
13378WAT     H240377   0.424   8.503   8.609
13379WAT      O40378   1.169   6.730   0.373
13379WAT     H140379   1.213   6.664   0.312
13379WAT     H240380   1.239   6.779   0.425
13380WAT      O40381   8.608   9.404   4.508
13380WAT     H140382   8.543   9.458   4.455
13380WAT     H240383   8.697   9.449   4.508
13381WAT      O40384   0.949   8.160   7.167
13381WAT     H140385   0.934   8.256   7.191
13381WAT     H240386   0.892   8.103   7.226
13382WAT      O40387   6.123   1.876   2.288
13382WAT     H140388   6.122   1.868   2.189
13382WAT     H240389   6.030   1.871   2.323
13383WAT      O40390   7.449   8.510   8.355
13383WAT     H140391   7.514   8.474   8.421
13383WAT     H240392   7.360   8.521   8.399
13384WAT      O40393   8.026   0.794   3.884
13384WAT     H140394   7.934   0.761   3.866
13384WAT     H240395   8.025   0.861   3.958
13385WAT      O40396   1.979   7.087   3.263
13385WAT     H140397   2.073   7.116   3.279
13385WAT     H240398   1.921   7.167   3.249
13386WAT      O40399   9.315   6.820   4.816
13386WAT     H140400   9.286   6.755   4.747
13386WAT     H240401   9.362   6.897   4.772
13387WAT      O40402   6.801   9.696   5.765
13387WAT     H140403   6.836   9.619   5.713
13387WAT     H240404   6.801   9.778   5.708
13388WAT      O40405   4.302   3.600   8.522
13388WAT     H140406   4.353   3.514   8.516
13388WAT     H240407   4.365   3.677   8.515
13389WAT      O40408   3.799   1.579   9.151
13389WAT     H140409   3.816   1.581   9.052
13389WAT     H240410   3.700   1.581   9.168
13390WAT      O40411   0.269   2.271   3.145
13390WAT     H140412   0.340   2.340   3.131
13390WAT     H240413   0.217   2.258   3.060
13391WAT      O40414   0.136   6.465   3.698
13391WAT     H140415   0.111   6.562   3.697
13391WAT     H240416   0.090   6.420   3.775
13392WAT      O40417   2.676   7.668   9.604
13392WAT     H140418   2.600   7.607   9.582
13392WAT     H240419   2.649   7.763   9.586
13393WAT      O40420   8.081   9.838   5.134
13393WAT     H140421   8.110   9.768   5.069
13393WAT     H240422   8.132   9.922   5.118
13394WAT      O40423   6.176   6.804   7.721
13394WAT     H140424   6.187   6.877   7.789
13394WAT     H240425   6.210   6.836   7.633
13395WAT      O40426   0.356   9.185   0.480
13395WAT     H140427   0.356   9.188   0.380
13395WAT     H240428   0.428   9.124   0.512
13396WAT      O40429   5.748   7.429   1.860
13396WAT     H140430   5.718   7.334   1.874
13396WAT     H240431   5.845   7.431   1.837
13397WAT      O40432   4.102   4.779   8.221
13397WAT     H140433   4.063   4.734   8.302
13397WAT     H240434   4.199   4.754   8.214
13398WAT      O40435   1.916   1.710   3.570
13398WAT     H140436   1.944   1.669   3.657
13398WAT     H240437   1.933   1.645   3.495
13399WAT      O40438   7.883   9.205   7.166
13399WAT     H140439   7.955   9.262   7.205
13399WAT     H240440   7.858   9.133   7.231
13400WAT      O40441   8.869   9.260   6.388
13400WAT     H140442   8.856   9.321   6.466
13400WAT     H240443   8.780   9.231   6.352
13401WAT      O40444   5.685   7.005   5.843
13401WAT     H140445   5.771   7.045   5.810
13401WAT     H240446   5.627   6.982   5.766
13402WAT      O40447   8.221   0.143   6.771
13402WAT     H140448   8.240   0.224   6.715
13402WAT     H240449   8.145   0.092   6.732
13403WAT      O40450   5.714   4.462   6.046
13403WAT     H140451   5.764   4.382   6.077
13403WAT     H240452   5.685   4.517   6.125
13404WAT      O40453   0.501   9.582   2.642
13404WAT     H140454   0.471   9.541   2.556
13404WAT     H240455   0.535   9.509   2.703
13405WAT      O40456   5.452   4.309   4.453
13405WAT     H140457   5.545   4.308   4.489
13405WAT     H240458   5.452   4.341   4.359
13406WAT      O40459   8.624   0.403   2.917
13406WAT     H140460   8.652   0.496   2.942
13406WAT     H240461   8.612   0.349   3.000
13407WAT      O40462   6.157   0.834   0.951
13407WAT     H140463   6.081   0.878   0.999
13407WAT     H240464   6.205   0.902   0.895
13408WAT      O40465   6.597   1.496   0.911
13408WAT     H140466   6.561   1.405   0.931
13408WAT     H240467   6.606   1.508   0.812
13409WAT      O40468   4.280   8.309   5.675
13409WAT     H140469   4.326   8.390   5.637
13409WAT     H240470   4.181   8.325   5.678
13410WAT      O40471   3.627   3.341   9.636
13410WAT     H140472   3.594   3.252   9.665
13410WAT     H240473   3.699   3.329   9.567
13411WAT      O40474   9.480   2.738   3.802
13411WAT     H140475   9.510   2.642   3.797
13411WAT     H240476   9.559   2.796   3.824
13412WAT      O40477   2.343   7.587   3.705
13412WAT     H140478   2.394   7.509   3.670
13412WAT     H240479   2.246   7.574   3.687
13413WAT      O40480   8.804   8.810   7.247
13413WAT     H140481   8.782   8.904   7.272
13413WAT     H240482   8.890   8.808   7.196
13414WAT      O40483   7.539   5.371   0.916
13414WAT     H140484   7.509   5.285   0.957
13414WAT     H240485   7.530   5.365   0.816
13415WAT      O40486   4.419   5.826   1.792
13415WAT     H140487   4.395   5.923   1.782
13415WAT     H240488   4.337   5.774   1.814
13416WAT      O40489   7.781   8.231   8.924
13416WAT     H140490   7.764   8.317   8.972
13416WAT     H240491   7.809   8.161   8.989
13417WAT      O40492   4.443   8.114   2.930
13417WAT     H140493   4.404   8.101   3.022
13417WAT     H240494   4.542   8.105   2.934
13418WAT      O40495   8.636   7.202   2.532
13418WAT     H140496   8.641   7.105   2.506
13418WAT     H240497   8.561   7.245   2.482
13419WAT      O40498   3.813   2.724   6.397
13419WAT     H140499   3.863   2.806   6.368
13419WAT     H240500   3.837   2.701   6.491
13420WAT      O40501   9.312   4.199   3.497
13420WAT     H140502   9.224   4.207   3.450
13420WAT     H240503   9.297   4.200   3.596
13421WAT      O40504   4.679   6.305   4.472
13421WAT     H140505   4.599   6.322   4.530
13421WAT     H240506   4.705   6.390   4.426
13422WAT      O40507   6.555   0.645   8.574
13422WAT     H140508   6.479   0.679   8.630
13422WAT     H240509   6.640   0.689   8.603
13423WAT      O40510   4.031   2.028   4.125
13423WAT     H140511   4.090   2.078   4.062
13423WAT     H240512   4.067   1.937   4.140
13424WAT      O40513   8.718   2.082   3.857
13424WAT     H140514   8.769   2.024   3.794
13424WAT     H240515   8.620   2.074   3.838
13425WAT      O40516   6.851   4.081   9.447
13425WAT     H140517   6.847   3.996   9.498
13425WAT     H240518   6.773   4.086   9.384
13426WAT      O40519   9.324   0.254   7.497
13426WAT     H140520   9.301   0.252   7.399
13426WAT     H240521   9.418   0.286   7.508
13427WAT      O40522   8.671   1.488   1.373
13427WAT     H140523   8.684   1.585   1.396
13427WAT     H240524   8.595   1.480   1.308
13428WAT      O40525   2.950   9.363   7.506
13428WAT     H140526   2.925   9.295   7.575
13428WAT     H240527   3.042   9.344   7.472
13429WAT      O40528   3.907   2.571   9.013
13429WAT     H140529   3.886   2.477   8.987
13429WAT     H240530   4.004   2.588   9.001
13430WAT      O40531   5.699   7.237   4.335
13430WAT     H140532   5.760   7.291   4.277
13430WAT     H240533   5.608   7.233   4.293
13431WAT      O40534   2.202   4.031   5.252
13431WAT     H140535   2.273   3.983   5.201
13431WAT     H240536   2.234   4.122   5.277
13432WAT      O40537   3.365   7.023   8.818
13432WAT     H140538   3.413   7.046   8.903
13432WAT     H240539   3.408   6.944   8.775
13433WAT      O40540   3.693   6.035   3.298
13433WAT     H140541   3.710   5.938   3.278
13433WAT     H240542   3.599   6.058   3.273
13434WAT      O40543   5.802   7.095   1.694
13434WAT     H140544   5.749   7.036   1.755
13434WAT     H240545   5.891   7.053   1.677
13435WAT      O40546   3.925   6.228   1.997
13435WAT     H140547   3.931   6.172   1.913
13435WAT     H240548   3.926   6.167   2.077
13436WAT      O40549   6.212   2.379   8.484
13436WAT     H140550   6.266   2.302   8.519
13436WAT     H240551   6.221   2.382   8.384
13437WAT      O40552   9.181   6.913   9.848
13437WAT     H140553   9.264   6.889   9.798
13437WAT     H240554   9.179   6.864   9.935
13438WAT      O40555   3.595   5.671   1.198
13438WAT     H140556   3.568   5.715   1.112
13438WAT     H240557   3.573   5.573   1.194
13439WAT      O40558   8.142   3.634   9.606
13439WAT     H140559   8.176   3.689   9.529
13439WAT     H240560   8.095   3.554   9.572
13440WAT      O40561   2.329   1.514   2.761
13440WAT     H140562   2.259   1.565   2.811
13440WAT     H240563   2.418   1.556   2.777
13441WAT      O40564   3.034   5.007   6.436
13441WAT     H140565   2.979   5.090   6.435
13441WAT     H240566   3.109   5.018   6.501
13442WAT      O40567   6.064   8.881   6.869
13442WAT     H140568   6.023   8.935   6.795
13442WAT     H240569   6.162   8.869   6.850
13443WAT      O40570   6.748   9.377   4.108
13443WAT     H140571   6.825   9.315   4.125
13443WAT     H240572   6.664   9.335   4.143
13444WAT      O40573   0.865   5.766   2.140
13444WAT     H140574   0.868   5.801   2.234
13444WAT     H240575   0.779   5.796   2.097
13445WAT      O40576   3.829   6.371   8.945
13445WAT     H140577   3.848   6.379   8.847
13445WAT     H240578   3.883   6.296   8.983
13446WAT      O40579   2.244   1.238   5.011
13446WAT     H140580   2.151   1.258   4.981
13446WAT     H240581   2.246   1.233   5.111
13447WAT      O40582   9.069   5.792   7.224
13447WAT     H140583   9.162   5.825   7.211
13447WAT     H240584   9.029   5.835   7.305
13448WAT      O40585   8.792   9.325   3.820
13448WAT     H140586   8.771   9.284   3.731
13448WAT     H240587   8.887   9.305   3.844
13449WAT      O40588   3.338   6.675   5.337
13449WAT     H140589   3.386   6.597   5.298
13449WAT     H240590   3.376   6.760   5.300
13450WAT      O40591   0.449   0.220   2.436
13450WAT     H140592   0.502   0.292   2.390
13450WAT     H240593   0.401   0.165   2.367
13451WAT      O40594   9.360   8.936   0.713
13451WAT     H140595   9.260   8.940   0.714
13451WAT     H240596   9.396   9.004   0.777
13452WAT      O40597   4.877   3.644   2.684
13452WAT     H140598   4.895   3.555   2.726
13452WAT     H240599   4.779   3.665   2.691
13453WAT      O40600   2.192   8.158   6.727
13453WAT     H140601   2.165   8.149   6.630
13453WAT     H240602   2.173   8.072   6.774
13454WAT      O40603   9.864   5.340   9.751
13454WAT     H140604   9.875   5.327   9.849
13454WAT     H240605   9.767   5.356   9.731
13455WAT      O40606   2.460   4.627   7.051
13455WAT     H140607   2.491   4.662   6.962
13455WAT     H240608   2.471   4.698   7.120
13456WAT      O40609   9.451   5.368   0.219
13456WAT     H140610   9.539   5.329   0.194
13456WAT     H240611   9.447   5.384   0.317
13457WAT      O40612   0.371   9.370   9.332
13457WAT     H140613   0.383   9.329   9.423
13457WAT     H240614   0.382   9.299   9.262
13458WAT      O40615   1.419   6.740   2.596
13458WAT     H140616   1.512   6.763   2.567
13458WAT     H240617   1.374   6.690   2.522
13459WAT      O40618   1.977   1.905   2.843
13459WAT     H140619   2.034   1.986   2.839
13459WAT     H240620   1.881   1.932   2.849
13460WAT      O40621   5.779   7.961   0.264
13460WAT     H140622   5.781   8.038   0.200
13460WAT     H240623   5.845   7.978   0.338
13461WAT      O40624   2.158   3.479   6.931
13461WAT     H140625   2.092   3.554   6.935
13461WAT     H240626   2.193   3.472   6.838
13462WAT      O40627   3.089   7.387   4.552
13462WAT     H140628   3.168   7.331   4.577
13462WAT     H240629   3.026   7.393   4.629
13463WAT      O40630   9.369   8.551   3.773
13463WAT     H140631   9.277   8.587   3.759
13463WAT     H240632   9.410   8.530   3.684
13464WAT      O40633   8.087   3.564   6.508
13464WAT     H140634   8.122   3.519   6.425
13464WAT     H240635   8.040   3.648   6.482
13465WAT      O40636   3.525   5.935   8.375
13465WAT     H140637   3.582   5.855   8.356
13465WAT     H240638   3.433   5.920   8.338
13466WAT      O40639   0.562   2.661   1.632
13466WAT     H140640   0.615   2.669   1.717
13466WAT     H240641   0.593   2.582   1.580
13467WAT      O40642   4.281   8.789   8.998
13467WAT     H140643   4.225   8.872   8.990
13467WAT     H240644   4.342   8.783   8.919
13468WAT      O40645   4.703   5.986   6.958
13468WAT     H140646   4.631   6.021   6.899
13468WAT     H240647   4.784   5.966   6.903
13469WAT      O40648   9.440   7.996   3.306
13469WAT     H140649   9.350   7.963   3.279
13469WAT     H240650   9.508   7.925   3.286
13470WAT      O40651   5.294   6.290   1.262
13470WAT     H140652   5.287   6.390   1.253
13470WAT     H240653   5.205   6.252   1.284
13471WAT      O40654   6.913   8.534   0.223
13471WAT     H140655   6.939   8.455   0.279
13471WAT     H240656   6.995   8.586   0.199
13472WAT      O40657   4.481   5.904   4.586
13472WAT     H140658   4.405   5.843   4.609
13472WAT     H240659   4.481   5.983   4.648
13473WAT      O40660   9.643   4.310   8.850
13473WAT     H140661   9.695   4.225   8.858
13473WAT     H240662   9.705   4.388   8.859
13474WAT      O40663   0.077   3.322   1.978
13474WAT     H140664   0.042   3.345   2.069
13474WAT     H240665   0.002   3.295   1.918
13475WAT      O40666   3.643   7.755   9.484
13475WAT     H140667   3.585   7.828   9.448
13475WAT     H240668   3.612   7.729   9.575
13476WAT      O40669   8.866   8.003   5.951
13476WAT     H140670   8.823   7.915   5.932
13476WAT     H240671   8.962   7.989   5.975
13477WAT      O40672   6.968   5.903   3.957
13477WAT     H140673   6.902   5.971   3.987
13477WAT     H240674   6.920   5.819   3.931
13478WAT      O40675   1.615   3.127   4.723
13478WAT     H140676   1.587   3.045   4.673
13478WAT     H240677   1.578   3.208   4.677
13479WAT      O40678   7.596   3.736   8.092
13479WAT     H140679   7.660   3.796   8.140
13479WAT     H240680   7.602   3.753   7.994
13480WAT      O40681   1.123   6.661   1.117
13480WAT     H140682   1.208   6.699   1.081
13480WAT     H240683   1.047   6.722   1.095
13481WAT      O40684   7.883   8.220   7.227
13481WAT     H140685   7.795   8.211   7.274
13481WAT     H240686   7.938   8.138   7.244
13482WAT      O40687   0.814   6.004   0.764
13482WAT     H140688   0.811   5.979   0.861
13482WAT     H240689   0.848   6.098   0.755
13483WAT      O40690   4.984   7.906   0.171
13483WAT     H140691   4.945   7.891   0.080
13483WAT     H240692   5.007   8.002   0.182
13484WAT      O40693   4.245   7.238   7.286
13484WAT     H140694   4.263   7.142   7.266
13484WAT     H240695   4.163   7.246   7.344
13485WAT      O40696   5.773   9.247   2.125
13485WAT     H140697   5.815   9.177   2.182
13485WAT     H240698   5.818   9.248   2.035
13486WAT      O40699   9.044   0.785   3.285
13486WAT     H140700   9.113   0.848   3.249
13486WAT     H240701   8.955   0.830   3.285
13487WAT      O40702   5.702   0.542   2.489
13487WAT     H140703   5.652   0.504   2.411
13487WAT     H240704   5.651   0.619   2.527
13488WAT      O40705   8.229   7.940   7.750
13488WAT     H140706   8.218   7.866   7.684
13488WAT     H240707   8.321   7.938   7.787
13489WAT      O40708   8.559   9.117   8.580
13489WAT     H140709   8.618   9.184   8.625
13489WAT     H240710   8.560   9.132   8.481
13490WAT      O40711   2.914   9.715   8.603
13490WAT     H140712   2.926   9.726   8.504
13490WAT     H240713   2.911   9.618   8.626
13491WAT      O40714   3.744   6.287   0.321
13491WAT     H140715   3.748   6.212   0.255
13491WAT     H240716   3.747   6.375   0.273
13492WAT      O40717   9.398   4.459   4.241
13492WAT     H140718   9.475   4.479   4.302
13492WAT     H240719   9.322   4.421   4.294
13493WAT      O40720   7.458   0.649   2.718
13493WAT     H140721   7.485   0.558   2.748
13493WAT     H240722   7.490   0.664   2.625
13494WAT      O40723   8.249   7.791   1.243
13494WAT     H140724   8.218   7.697   1.260
13494WAT     H240725   8.287   7.797   1.151
13495WAT      O40726   4.051   8.065   1.037
13495WAT     H140727   4.095   8.111   0.960
13495WAT     H240728   4.054   7.966   1.024
13496WAT      O40729   3.996   8.648   7.477
13496WAT     H140730   4.045   8.711   7.416
13496WAT     H240731   3.936   8.590   7.423
13497WAT      O40732   4.265   2.250   1.096
13497WAT     H140733   4.178   2.270   1.049
13497WAT     H240734   4.341   2.261   1.031
13498WAT      O40735   7.675   7.192   2.115
13498WAT     H140736   7.576   7.194   2.129
13498WAT     H240737   7.699   7.111   2.062
13499WAT      O40738   1.219   6.111   3.908
13499WAT     H140739   1.194   6.103   4.004
13499WAT     H240740   1.318   6.109   3.899
13500WAT      O40741   6.022   5.457   2.611
13500WAT     H140742   6.122   5.457   2.601
13500WAT     H240743   5.981   5.497   2.529
13501WAT      O40744   1.145   3.148   4.837
13501WAT     H140745   1.099   3.185   4.918
13501WAT     H240746   1.234   3.192   4.826
13502WAT      O40747   6.770   9.711   7.211
13502WAT     H140748   6.844   9.756   7.261
13502WAT     H240749   6.682   9.734   7.252
13503WAT      O40750   5.825   9.613   5.043
13503WAT     H140751   5.781   9.664   4.969
13503WAT     H240752   5.773   9.626   5.128
13504WAT      O40753   2.468   9.608   6.151
13504WAT     H140754   2.421   9.520   6.143
13504WAT     H240755   2.434   9.656   6.232
13505WAT      O40756   5.043   5.615   0.796
13505WAT     H140757   5.114   5.592   0.862
13505WAT     H240758   4.990   5.693   0.829
13506WAT      O40759   0.829   9.414   7.752
13506WAT     H140760   0.900   9.433   7.684
13506WAT     H240761   0.800   9.500   7.795
13507WAT      O40762   3.311   4.829   4.099
13507WAT     H140763   3.399   4.864   4.133
13507WAT     H240764   3.298   4.735   4.132
13508WAT      O40765   3.375   5.038   8.681
13508WAT     H140766   3.352   5.049   8.584
13508WAT     H240767   3.310   5.090   8.737
13509WAT      O40768   5.814   8.225   8.437
13509WAT     H140769   5.852   8.316   8.454
13509WAT     H240770   5.784   8.219   8.342
13510WAT      O40771   0.461   6.698   3.522
13510WAT     H140772   0.455   6.604   3.555
13510WAT     H240773   0.377   6.747   3.548
13511WAT      O40774   9.041   2.463   6.899
13511WAT     H140775   8.994   2.549   6.879
13511WAT     H240776   9.079   2.425   6.815
13512WAT      O40777   5.599   4.443   7.628
13512WAT     H140778   5.679   4.395   7.664
13512WAT     H240779   5.573   4.402   7.540
13513WAT      O40780   1.298   2.455   4.333
13513WAT     H140781   1.374   2.519   4.338
13513WAT     H240782   1.270   2.428   4.425
13514WAT      O40783   7.391   0.364   1.707
13514WAT     H140784   7.490   0.355   1.716
13514WAT     H240785   7.371   0.427   1.632
13515WAT      O40786   8.768   2.025   1.632
13515WAT     H140787   8.798   2.114   1.666
13515WAT     H240788   8.837   1.956   1.655
13516WAT      O40789   5.561   0.393   3.668
13516WAT     H140790   5.554   0.389   3.568
13516WAT     H240791   5.628   0.462   3.695
13517WAT      O40792   0.833   9.721   1.047
13517WAT     H140793   0.749   9.772   1.029
13517WAT     H240794   0.884   9.710   0.961
13518WAT      O40795   1.100   1.568   5.565
13518WAT     H140796   1.022   1.575   5.628
13518WAT     H240797   1.142   1.658   5.553
13519WAT      O40798   2.240   4.167   4.569
13519WAT     H140799   2.221   4.209   4.658
13519WAT     H240800   2.319   4.211   4.527
13520WAT      O40801   1.309   4.027   9.167
13520WAT     H140802   1.211   4.039   9.181
13520WAT     H240803   1.354   4.116   9.162
13521WAT      O40804   4.306   2.005   7.001
13521WAT     H140805   4.385   1.977   6.947
13521WAT     H240806   4.230   1.944   6.983
13522WAT      O40807   9.883   5.678   1.275
13522WAT     H140808   9.849   5.590   1.306
13522WAT     H240809   9.826   5.751   1.311
13523WAT      O40810   0.906   9.506   2.805
13523WAT     H140811   0.947   9.549   2.725
13523WAT     H240812   0.978   9.465   2.861
13524WAT      O40813   0.621   6.983   6.287
13524WAT     H140814   0.521   6.985   6.286
13524WAT     H240815   0.653   6.898   6.243
13525WAT      O40816   7.654   8.296   5.319
13525WAT     H140817   7.564   8.330   5.347
13525WAT     H240818   7.642   8.214   5.263
13526WAT      O40819   5.955   9.033   6.256
13526WAT     H140820   5.887   9.011   6.327
13526WAT     H240821   6.007   8.951   6.234
13527WAT      O40822   1.027   9.785   4.309
13527WAT     H140823   1.057   9.863   4.363
13527WAT     H240824   1.004   9.815   4.217
13528WAT      O40825   3.427   4.581   7.739
13528WAT     H140826   3.456   4.562   7.833
13528WAT     H240827   3.493   4.642   7.695
13529WAT      O40828   4.552   2.428   5.481
13529WAT     H140829   4.503   2.341   5.479
13529WAT     H240830   4.499   2.495   5.533
13530WAT      O40831   7.845   1.766   0.821
13530WAT     H140832   7.883   1.783   0.730
13530WAT     H240833   7.747   1.784   0.820
13531WAT      O40834   0.024   0.852   8.842
13531WAT     H140835   0.018   0.935   8.787
13531WAT     H240836   0.007   0.772   8.785
13532WAT      O40837   8.643   3.943   7.285
13532WAT     H140838   8.610   4.018   7.342
13532WAT     H240839   8.606   3.856   7.317
13533WAT      O40840   7.981   2.061   7.763
13533WAT     H140841   7.900   2.119   7.748
13533WAT     H240842   8.063   2.116   7.751
13534WAT      O40843   7.214   6.791   9.007
13534WAT     H140844   7.160   6.847   8.944
13534WAT     H240845   7.159   6.713   9.037
13535WAT      O40846   9.028   7.134   1.795
13535WAT     H140847   8.962   7.153   1.722
13535WAT     H240848   9.041   7.217   1.850
13536WAT      O40849   8.491   2.362   9.408
13536WAT     H140850   8.451   2.348   9.498
13536WAT     H240851   8.463   2.288   9.347
13537WAT      O40852   9.115   6.224   4.808
13537WAT     H140853   9.192   6.248   4.749
13537WAT     H240854   9.088   6.129   4.792
13538WAT      O40855   5.363   4.872   9.414
13538WAT     H140856   5.339   4.781   9.447
13538WAT     H240857   5.334   4.941   9.480
13539WAT      O40858   4.696   3.721   8.735
13539WAT     H140859   4.636   3.748   8.660
13539WAT     H240860   4.649   3.736   8.822
13540WAT      O40861   9.429   5.415   9.091
13540WAT     H140862   9.478   5.374   9.014
13540WAT     H240863   9.425   5.350   9.167
13541WAT      O40864   3.461   2.186   6.649
13541WAT     H140865   3.474   2.249   6.573
13541WAT     H240866   3.500   2.227   6.732
13542WAT      O40867   4.914   6.047   8.693
13542WAT     H140868   4.846   6.118   8.675
13542WAT     H240869   4.910   6.020   8.789
13543WAT      O40870   5.913   8.217   1.098
13543WAT     H140871   5.911   8.254   1.191
13543WAT     H240872   5.967   8.278   1.040
13544WAT      O40873   7.536   7.246   3.912
13544WAT     H140874   7.594   7.204   3.982
13544WAT     H240875   7.470   7.307   3.955
13545WAT      O40876   6.810   3.270   2.452
13545WAT     H140877   6.744   3.215   2.401
13545WAT     H240878   6.902   3.233   2.439
13546WAT      O40879   2.446   2.790   7.356
13546WAT     H140880   2.444   2.852   7.278
13546WAT     H240881   2.357   2.791   7.402
13547WAT      O40882   8.577   6.810   3.079
13547WAT     H140883   8.529   6.761   3.007
13547WAT     H240884   8.668   6.837   3.046
13548WAT      O40885   9.313   5.647   2.481
13548WAT     H140886   9.360   5.607   2.560
13548WAT     H240887   9.267   5.731   2.508
13549WAT      O40888   4.418   4.960   3.636
13549WAT     H140889   4.449   4.867   3.617
13549WAT     H240890   4.491   5.012   3.681
13550WAT      O40891   3.646   9.031   3.532
13550WAT     H140892   3.671   8.985   3.447
13550WAT     H240893   3.705   8.997   3.606
13551WAT      O40894   3.983   6.444   3.938
13551WAT     H140895   3.975   6.385   3.858
13551WAT     H240896   3.983   6.540   3.908
13552WAT      O40897   2.822   4.044   8.285
13552WAT     H140898   2.829   3.975   8.213
13552WAT     H240899   2.729   4.043   8.323
13553WAT      O40900   8.948   3.000   0.709
13553WAT     H140901   8.963   3.099   0.701
13553WAT     H240902   8.914   2.965   0.621
13554WAT      O40903   6.139   4.684   8.886
13554WAT     H140904   6.042   4.659   8.890
13554WAT     H240905   6.180   4.644   8.804
13555WAT      O40906   0.974   7.082   3.820
13555WAT     H140907   0.991   7.003   3.879
13555WAT     H240908   1.011   7.064   3.729
13556WAT      O40909   6.744   9.089   6.252
13556WAT     H140910   6.752   9.149   6.172
13556WAT     H240911   6.703   9.002   6.224
13557WAT      O40912   2.177   5.345   0.671
13557WAT     H140913   2.209   5.437   0.649
13557WAT     H240914   2.254   5.282   0.671
13558WAT      O40915   3.106   8.511   1.111
13558WAT     H140916   3.104   8.609   1.131
13558WAT     H240917   3.201   8.481   1.101
13559WAT      O40918   1.253   2.496   1.539
13559WAT     H140919   1.279   2.585   1.503
13559WAT     H240920   1.176   2.506   1.603
13560WAT      O40921   0.755   2.630   2.914
13560WAT     H140922   0.682   2.570   2.948
13560WAT     H240923   0.745   2.721   2.955
13561WAT      O40924   2.728   1.146   2.510
13561WAT     H140925   2.639   1.100   2.519
13561WAT     H240926   2.746   1.165   2.413
13562WAT      O40927   0.444   2.458   4.603
13562WAT     H140928   0.488   2.465   4.514
13562WAT     H240929   0.513   2.439   4.673
13563WAT      O40930   9.529   1.864   9.693
13563WAT     H140931   9.610   1.806   9.690
13563WAT     H240932   9.455   1.816   9.741
13564WAT      O40933   1.630   6.851   2.809
13564WAT     H140934   1.623   6.866   2.710
13564WAT     H240935   1.589   6.763   2.832
13565WAT      O40936   5.194   6.155   6.825
13565WAT     H140937   5.185   6.144   6.924
13565WAT     H240938   5.261   6.226   6.805
13566WAT      O40939   1.189   4.760   8.143
13566WAT     H140940   1.163   4.763   8.046
13566WAT     H240941   1.149   4.838   8.191
13567WAT      O40942   2.286   9.020   3.330
13567WAT     H140943   2.257   8.985   3.419
13567WAT     H240944   2.207   9.058   3.282
13568WAT      O40945   9.143   6.348   0.606
13568WAT     H140946   9.079   6.299   0.547
13568WAT     H240947   9.230   6.360   0.560
13569WAT      O40948   6.694   5.653   4.283
13569WAT     H140949   6.740   5.741   4.276
13569WAT     H240950   6.745   5.584   4.230
13570WAT      O40951   3.108   7.936   1.186
13570WAT     H140952   3.172   8.008   1.213
13570WAT     H240953   3.160   7.853   1.164
13571WAT      O40954   7.223   8.477   7.767
13571WAT     H140955   7.312   8.523   7.765
13571WAT     H240956   7.223   8.411   7.843
13572WAT      O40957   1.978   8.265   3.241
13572WAT     H140958   1.924   8.200   3.294
13572WAT     H240959   1.932   8.354   3.240
13573WAT      O40960   2.020   3.188   7.431
13573WAT     H140961   1.940   3.240   7.400
13573WAT     H240962   2.001   3.150   7.522
13574WAT      O40963   8.168   9.542   1.051
13574WAT     H140964   8.112   9.471   1.007
13574WAT     H240965   8.220   9.502   1.126
13575WAT      O40966   3.406   1.009   4.599
13575WAT     H140967   3.362   0.924   4.570
13575WAT     H240968   3.501   0.991   4.626
13576WAT      O40969   9.546   3.192   5.795
13576WAT     H140970   9.462   3.177   5.743
13576WAT     H240971   9.530   3.168   5.891
13577WAT      O40972   8.025   0.787   3.118
13577WAT     H140973   8.096   0.757   3.055
13577WAT     H240974   7.993   0.878   3.092
13578WAT      O40975   4.693   6.197   1.495
13578WAT     H140976   4.725   6.108   1.462
13578WAT     H240977   4.697   6.200   1.594
13579WAT      O40978   0.677   3.095   4.636
13579WAT     H140979   0.607   3.037   4.677
13579WAT     H240980   0.711   3.159   4.705
13580WAT      O40981   2.406   9.828   0.247
13580WAT     H140982   2.329   9.779   0.207
13580WAT     H240983   2.487   9.815   0.189
13581WAT      O40984   1.591   3.977   2.022
13581WAT     H140985   1.582   3.989   1.923
13581WAT     H240986   1.680   4.010   2.051
13582WAT      O40987   6.284   0.974   6.060
13582WAT     H140988   6.331   1.019   5.985
13582WAT     H240989   6.351   0.945   6.129
13583WAT      O40990   6.765   2.118   0.031
13583WAT     H140991   6.840   2.173  -0.003
13583WAT     H240992   6.688   2.177   0.055
13584WAT      O40993   8.719   5.942   6.000
13584WAT     H140994   8.674   6.029   6.023
13584WAT     H240995   8.730   5.936   5.901
13585WAT      O40996   9.101   3.871   9.783
13585WAT     H140997   9.155   3.903   9.860
13585WAT     H240998   9.159   3.814   9.723
13586WAT      O40999   4.033   5.398   8.593
13586WAT     H141000   4.098   5.473   8.603
13586WAT     H241001   4.063   5.338   8.518
13587WAT      O41002   4.546   9.548   6.397
13587WAT     H141003   4.495   9.522   6.315
13587WAT     H241004   4.485   9.596   6.460
13588WAT      O41005   3.910   0.300   7.304
13588WAT     H141006   3.859   0.383   7.283
13588WAT     H241007   3.993   0.297   7.248
13589WAT      O41008   7.252   4.330   1.096
13589WAT     H141009   7.216   4.411   1.143
13589WAT     H241010   7.346   4.314   1.126
13590WAT      O41011   9.643   7.388   2.987
13590WAT     H141012   9.706   7.323   2.944
13590WAT     H241013   9.558   7.342   3.011
13591WAT      O41014   2.314   0.900   3.423
13591WAT     H141015   2.398   0.890   3.370
13591WAT     H241016   2.237   0.868   3.369
13592WAT      O41017   9.730   8.985   9.726
13592WAT     H141018   9.666   9.003   9.651
13592WAT     H241019   9.679   8.959   9.808
13593WAT      O41020   5.067   2.584   6.674
13593WAT     H141021   5.142   2.618   6.617
13593WAT     H241022   5.074   2.623   6.765
13594WAT      O41023   8.826   5.081   5.906
13594WAT     H141024   8.843   5.174   5.874
13594WAT     H241025   8.882   5.017   5.853
13595WAT      O41026   0.593   5.657   6.982
13595WAT     H141027   0.526   5.600   7.028
13595WAT     H241028   0.654   5.699   7.050
13596WAT      O41029   8.272   0.255   0.190
13596WAT     H141030   8.334   0.187   0.231
13596WAT     H241031   8.324   0.335   0.162
13597WAT      O41032   8.285   3.881   5.510
13597WAT     H141033   8.264   3.902   5.605
13597WAT     H241034   8.264   3.785   5.492
13598WAT      O41035   4.658   3.712   1.482
13598WAT     H141036   4.563   3.691   1.505
13598WAT     H241037   4.709   3.727   1.566
13599WAT      O41038   0.875   1.370   8.985
13599WAT     H141039   0.920   1.428   8.917
13599WAT     H241040   0.935   1.293   9.008
13600WAT      O41041   2.431   5.304   4.495
13600WAT     H141042   2.337   5.293   4.530
13600WAT     H241043   2.430   5.302   4.395
13601WAT      O41044   7.864   4.465   8.791
13601WAT     H141045   7.860   4.486   8.693
13601WAT     H241046   7.889   4.547   8.842
13602WAT      O41047   0.658   7.456   5.335
13602WAT     H141048   0.661   7.459   5.236
13602WAT     H241049   0.749   7.475   5.372
13603WAT      O41050   3.193   9.796   5.479
13603WAT     H141051   3.229   9.793   5.386
13603WAT     H241052   3.144   9.710   5.498
13604WAT      O41053   3.203   1.157   7.958
13604WAT     H141054   3.261   1.226   7.915
13604WAT     H241055   3.258   1.096   8.015
13605WAT      O41056   7.551   2.541   7.950
13605WAT     H141057   7.647   2.562   7.929
13605WAT     H241058   7.498   2.626   7.948
13606WAT      O41059   3.598   5.407   5.357
13606WAT     H141060   3.520   5.404   5.419
13606WAT     H241061   3.644   5.319   5.355
13607WAT      O41062   5.430   6.837   3.355
13607WAT     H141063   5.423   6.903   3.429
13607WAT     H241064   5.399   6.747   3.386
13608WAT      O41065   3.927   8.254   3.547
13608WAT     H141066   3.864   8.330   3.565
13608WAT     H241067   3.987   8.278   3.471
13609WAT      O41068   4.721   3.821   1.245
13609WAT     H141069   4.728   3.783   1.337
13609WAT     H241070   4.663   3.902   1.247
13610WAT      O41071   3.111   1.527   6.054
13610WAT     H141072   3.164   1.443   6.046
13610WAT     H241073   3.068   1.549   5.966
13611WAT      O41074   0.174   5.750   6.942
13611WAT     H141075   0.171   5.790   6.850
13611WAT     H241076   0.097   5.688   6.954
13612WAT      O41077   3.752   9.023   8.183
13612WAT     H141078   3.820   9.072   8.238
13612WAT     H241079   3.676   9.085   8.161
13613WAT      O41080   3.841   3.202   3.013
13613WAT     H141081   3.906   3.143   3.061
13613WAT     H241082   3.760   3.215   3.070
13614WAT      O41083   0.859   0.422   5.046
13614WAT     H141084   0.913   0.471   4.978
13614WAT     H241085   0.819   0.487   5.110
13615WAT      O41086   9.062   9.162   9.044
13615WAT     H141087   9.154   9.191   9.016
13615WAT     H241088   8.999   9.170   8.967
13616WAT      O41089   3.031   0.598   5.446
13616WAT     H141090   2.941   0.596   5.491
13616WAT     H241091   3.027   0.545   5.362
13617WAT      O41092   5.836   8.462   8.265
13617WAT     H141093   5.889   8.403   8.205
13617WAT     H241094   5.753   8.494   8.217
13618WAT      O41095   6.522   5.336   2.290
13618WAT     H141096   6.438   5.324   2.237
13618WAT     H241097   6.539   5.255   2.345
13619WAT      O41098   6.145   4.270   7.525
13619WAT     H141099   6.197   4.350   7.553
13619WAT     H241100   6.172   4.191   7.580
13620WAT      O41101   0.688   2.433   0.260
13620WAT     H141102   0.663   2.423   0.164
13620WAT     H241103   0.786   2.452   0.267
13621WAT      O41104   5.603   2.556   5.649
13621WAT     H141105   5.560   2.510   5.727
13621WAT     H241106   5.531   2.587   5.586
13622WAT      O41107   2.356   0.695   2.954
13622WAT     H141108   2.310   0.742   3.029
13622WAT     H241109   2.436   0.645   2.990
13623WAT      O41110   8.559   0.859   6.242
13623WAT     H141111   8.532   0.763   6.232
13623WAT     H241112   8.643   0.876   6.191
13624WAT      O41113   7.729   2.020   0.165
13624WAT     H141114   7.690   1.962   0.238
13624WAT     H241115   7.674   2.010   0.082
13625WAT      O41116   3.110   8.590   1.606
13625WAT     H141117   3.195   8.620   1.563
13625WAT     H241118   3.110   8.491   1.615
13626WAT      O41119   5.276   9.323   7.289
13626WAT     H141120   5.314   9.409   7.253
13626WAT     H241121   5.201   9.344   7.351
13627WAT      O41122   1.597   3.058   6.212
13627WAT     H141123   1.661   3.032   6.139
13627WAT     H241124   1.515   3.001   6.206
13628WAT      O41125   0.606   3.363   6.430
13628WAT     H141126   0.521   3.413   6.412
13628WAT     H241127   0.681   3.427   6.444
13629WAT      O41128   2.598   7.254   5.052
13629WAT     H141129   2.655   7.173   5.035
13629WAT     H241130   2.535   7.234   5.128
13630WAT      O41131   5.665   6.824   7.298
13630WAT     H141132   5.595   6.795   7.363
13630WAT     H241133   5.696   6.745   7.246
13631WAT      O41134   2.223   9.450   7.482
13631WAT     H141135   2.139   9.396   7.490
13631WAT     H241136   2.202   9.547   7.497
13632WAT      O41137   0.852   4.219   8.526
13632WAT     H141138   0.852   4.163   8.609
13632WAT     H241139   0.880   4.312   8.549
13633WAT      O41140   9.733   5.819   1.742
13633WAT     H141141   9.787   5.901   1.728
13633WAT     H241142   9.656   5.818   1.678
13634WAT      O41143   6.373   7.425   2.240
13634WAT     H141144   6.388   7.402   2.144
13634WAT     H241145   6.420   7.511   2.261
13635WAT      O41146   2.597   4.100   3.162
13635WAT     H141147   2.626   4.195   3.160
13635WAT     H241148   2.551   4.081   3.249
13636WAT      O41149   5.657   1.245   0.407
13636WAT     H141150   5.744   1.286   0.433
13636WAT     H241151   5.671   1.149   0.381
13637WAT      O41152   6.855   3.423   1.191
13637WAT     H141153   6.809   3.392   1.275
13637WAT     H241154   6.953   3.427   1.207
13638WAT      O41155   5.591   4.176   3.003
13638WAT     H141156   5.587   4.174   3.103
13638WAT     H241157   5.513   4.126   2.965
13639WAT      O41158   7.030   6.448   8.657
13639WAT     H141159   7.030   6.439   8.558
13639WAT     H241160   7.082   6.530   8.683
13640WAT      O41161   2.494   6.084   7.129
13640WAT     H141162   2.395   6.069   7.134
13640WAT     H241163   2.524   6.138   7.207
13641WAT      O41164   3.479   5.930   1.475
13641WAT     H141165   3.571   5.969   1.483
13641WAT     H241166   3.413   6.003   1.458
13642WAT      O41167   4.333   1.593   6.723
13642WAT     H141168   4.369   1.610   6.815
13642WAT     H241169   4.390   1.640   6.655
13643WAT      O41170   8.622   6.464   2.944
13643WAT     H141171   8.670   6.379   2.963
13643WAT     H241172   8.525   6.445   2.927
13644WAT      O41173   3.374   4.805   6.171
13644WAT     H141174   3.472   4.814   6.188
13644WAT     H241175   3.350   4.857   6.089
13645WAT      O41176   5.478   5.571   8.707
13645WAT     H141177   5.573   5.544   8.688
13645WAT     H241178   5.476   5.635   8.784
13646WAT      O41179   8.661   3.347   7.677
13646WAT     H141180   8.589   3.388   7.622
13646WAT     H241181   8.712   3.418   7.725
13647WAT      O41182   3.885   0.620   3.689
13647WAT     H141183   3.829   0.632   3.607
13647WAT     H241184   3.917   0.709   3.721
13648WAT      O41185   1.671   6.467   5.157
13648WAT     H141186   1.688   6.412   5.076
13648WAT     H241187   1.733   6.438   5.231
13649WAT      O41188   3.782   0.678   9.745
13649WAT     H141189   3.828   0.623   9.676
13649WAT     H241190   3.827   0.666   9.834
13650WAT      O41191   1.774   7.544   0.700
13650WAT     H141192   1.761   7.628   0.648
13650WAT     H241193   1.687   7.518   0.743
13651WAT      O41194   8.885   3.599   2.795
13651WAT     H141195   8.830   3.628   2.873
13651WAT     H241196   8.942   3.521   2.821
13652WAT      O41197   2.406   2.849   8.120
13652WAT     H141198   2.354   2.767   8.143
13652WAT     H241199   2.421   2.904   8.202
13653WAT      O41200   5.130   9.114   0.441
13653WAT     H141201   5.092   9.181   0.376
13653WAT     H241202   5.148   9.160   0.528
13654WAT      O41203   2.239   9.360   8.822
13654WAT     H141204   2.309   9.432   8.818
13654WAT     H241205   2.204   9.353   8.916
13655WAT      O41206   4.267   7.232   7.808
13655WAT     H141207   4.359   7.268   7.822
13655WAT     H241208   4.209   7.304   7.769
13656WAT      O41209   8.721   9.317   8.695
13656WAT     H141210   8.770   9.392   8.741
13656WAT     H241211   8.762   9.300   8.606
13657WAT      O41212   8.634   9.214   3.597
13657WAT     H141213   8.681   9.127   3.612
13657WAT     H241214   8.548   9.197   3.549
13658WAT      O41215   5.691   3.843   8.531
13658WAT     H141216   5.684   3.760   8.587
13658WAT     H241217   5.744   3.822   8.449
13659WAT      O41218   1.273   2.413   2.452
13659WAT     H141219   1.234   2.381   2.365
13659WAT     H241220   1.358   2.463   2.434
13660WAT      O41221   9.333   8.041   9.736
13660WAT     H141222   9.259   8.029   9.803
13660WAT     H241223   9.373   8.132   9.747
13661WAT      O41224   8.046   7.605   5.873
13661WAT     H141225   8.093   7.692   5.859
13661WAT     H241226   8.006   7.602   5.965
13662WAT      O41227   4.846   8.445   0.195
13662WAT     H141228   4.811   8.352   0.199
13662WAT     H241229   4.788   8.500   0.135
13663WAT      O41230   1.104   5.271   1.826
13663WAT     H141231   1.190   5.227   1.798
13663WAT     H241232   1.068   5.324   1.750
13664WAT      O41233   6.707   6.068   2.645
13664WAT     H141234   6.707   5.987   2.586
13664WAT     H241235   6.780   6.130   2.617
13665WAT      O41236   0.856   9.642   4.758
13665WAT     H141237   0.857   9.696   4.674
13665WAT     H241238   0.805   9.690   4.829
13666WAT      O41239   4.358   2.400   7.730
13666WAT     H141240   4.294   2.346   7.784
13666WAT     H241241   4.328   2.496   7.730
13667WAT      O41242   5.588   9.159   6.474
13667WAT     H141243   5.567   9.192   6.566
13667WAT     H241244   5.525   9.200   6.409
13668WAT      O41245   2.974   8.321   5.490
13668WAT     H141246   3.024   8.330   5.576
13668WAT     H241247   3.002   8.237   5.444
13669WAT      O41248   7.656   7.667   3.684
13669WAT     H141249   7.681   7.599   3.616
13669WAT     H241250   7.575   7.717   3.654
13670WAT      O41251   0.075   0.745   9.080
13670WAT     H141252   0.163   0.787   9.103
13670WAT     H241253   0.047   0.773   8.989
13671WAT      O41254   8.761   3.862   8.722
13671WAT     H141255   8.771   3.959   8.743
13671WAT     H241256   8.696   3.850   8.647
13672WAT      O41257   7.334   6.708   1.740
13672WAT     H141258   7.277   6.760   1.803
13672WAT     H241259   7.277   6.643   1.689
13673WAT      O41260   6.344   8.230   1.849
13673WAT     H141261   6.388   8.152   1.805
13673WAT     H241262   6.331   8.210   1.946
13674WAT      O41263   6.305   1.673   4.812
13674WAT     H141264   6.401   1.688   4.835
13674WAT     H241265   6.259   1.761   4.799
13675WAT      O41266   7.417   6.454   7.995
13675WAT     H141267   7.374   6.418   8.077
13675WAT     H241268   7.501   6.502   8.019
13676WAT      O41269   1.990   2.794   4.044
13676WAT     H141270   1.992   2.806   3.945
13676WAT     H241271   2.083   2.789   4.080
13677WAT      O41272   4.820   9.713   3.015
13677WAT     H141273   4.812   9.758   3.104
13677WAT     H241274   4.915   9.689   2.998
13678WAT      O41275   5.443   2.793   0.663
13678WAT     H141276   5.421   2.871   0.605
13678WAT     H241277   5.408   2.809   0.756
13679WAT      O41278   5.650   2.773   4.874
13679WAT     H141279   5.670   2.842   4.805
13679WAT     H241280   5.722   2.774   4.944
13680WAT      O41281   5.490   0.884   3.428
13680WAT     H141282   5.462   0.822   3.354
13680WAT     H241283   5.498   0.977   3.393
13681WAT      O41284   3.755   0.545   8.271
13681WAT     H141285   3.750   0.485   8.191
13681WAT     H241286   3.663   0.574   8.297
13682WAT      O41287   8.095   1.998   8.332
13682WAT     H141288   8.021   1.968   8.393
13682WAT     H241289   8.103   1.935   8.255
13683WAT      O41290   4.624   2.089   0.391
13683WAT     H141291   4.608   2.166   0.330
13683WAT     H241292   4.559   2.092   0.466
13684WAT      O41293   0.009   4.740   7.325
13684WAT     H141294  -0.068   4.741   7.260
13684WAT     H241295   0.062   4.657   7.312
13685WAT      O41296   7.837   5.961   0.528
13685WAT     H141297   7.800   6.041   0.481
13685WAT     H241298   7.778   5.937   0.605
13686WAT      O41299   0.358   4.558   2.814
13686WAT     H141300   0.332   4.511   2.898
13686WAT     H241301   0.455   4.546   2.797
13687WAT      O41302   0.767   8.228   4.594
13687WAT     H141303   0.862   8.258   4.597
13687WAT     H241304   0.747   8.174   4.676
13688WAT      O41305   0.086   3.125   4.528
13688WAT     H141306   0.013   3.081   4.475
13688WAT     H241307   0.163   3.062   4.537
13689WAT      O41308   4.885   2.747   5.053
13689WAT     H141309   4.817   2.684   5.090
13689WAT     H241310   4.941   2.700   4.986
13690WAT      O41311   8.405   8.890   3.449
13690WAT     H141312   8.478   8.839   3.403
13690WAT     H241313   8.359   8.831   3.514
13691WAT      O41314   8.066   0.454   1.971
13691WAT     H141315   7.977   0.494   1.993
13691WAT     H241316   8.117   0.516   1.911
13692WAT      O41317   2.566   3.958   1.373
13692WAT     H141318   2.548   3.979   1.469
13692WAT     H241319   2.665   3.951   1.358
13693WAT      O41320   7.324   5.057   7.817
13693WAT     H141321   7.413   5.015   7.833
13693WAT     H241322   7.336   5.141   7.764
13694WAT      O41323   1.804   6.140   4.913
13694WAT     H141324   1.807   6.082   4.831
13694WAT     H241325   1.754   6.225   4.892
13695WAT      O41326   6.891   7.288   1.346
13695WAT     H141327   6.973   7.278   1.289
13695WAT     H241328   6.813   7.311   1.289
13696WAT      O41329   5.849   7.808   0.980
13696WAT     H141330   5.759   7.784   1.017
13696WAT     H241331   5.843   7.813   0.880
13697WAT      O41332   1.464   5.008   2.305
13697WAT     H141333   1.381   5.014   2.249
13697WAT     H241334   1.487   5.099   2.340
13698WAT      O41335   7.737   4.407   2.799
13698WAT     H141336   7.702   4.429   2.708
13698WAT     H241337   7.771   4.313   2.800
13699WAT      O41338   1.353   5.161   1.772
13699WAT     H141339   1.409   5.198   1.846
13699WAT     H241340   1.402   5.171   1.685
13700WAT      O41341   0.327   3.174   5.363
13700WAT     H141342   0.243   3.152   5.412
13700WAT     H241343   0.306   3.232   5.285
13701WAT      O41344   1.093   9.823   8.504
13701WAT     H141345   1.049   9.779   8.583
13701WAT     H241346   1.189   9.796   8.500
13702WAT      O41347   8.495   9.266   0.966
13702WAT     H141348   8.543   9.205   0.903
13702WAT     H241349   8.537   9.261   1.056
13703WAT      O41350   0.431   3.966   9.389
13703WAT     H141351   0.399   4.051   9.429
13703WAT     H241352   0.469   3.908   9.461
13704WAT      O41353   8.653   9.358   4.785
13704WAT     H141354   8.625   9.383   4.692
13704WAT     H241355   8.651   9.439   4.843
13705WAT      O41356   6.589   4.656   0.449
13705WAT     H141357   6.632   4.681   0.362
13705WAT     H241358   6.570   4.558   0.451
13706WAT      O41359   7.313   9.697   4.022
13706WAT     H141360   7.403   9.731   4.051
13706WAT     H241361   7.318   9.667   3.926
13707WAT      O41362   3.875   7.228   4.733
13707WAT     H141363   3.946   7.294   4.758
13707WAT     H241364   3.787   7.275   4.723
13708WAT      O41365   8.253   4.644   1.983
13708WAT     H141366   8.208   4.558   2.005
13708WAT     H241367   8.339   4.651   2.033
13709WAT      O41368   8.863   4.522   2.687
13709WAT     H141369   8.871   4.619   2.711
13709WAT     H241370   8.770   4.491   2.706
13710WAT      O41371   4.971   8.036   8.399
13710WAT     H141372   5.000   8.127   8.370
13710WAT     H241373   5.047   7.971   8.388
13711WAT      O41374   9.625   5.406   3.216
13711WAT     H141375   9.600   5.422   3.120
13711WAT     H241376   9.557   5.346   3.258
13712WAT      O41377   9.412   6.606   9.603
13712WAT     H141378   9.387   6.529   9.663
13712WAT     H241379   9.509   6.600   9.580
13713WAT      O41380   0.350   3.556   3.824
13713WAT     H141381   0.384   3.650   3.816
13713WAT     H241382   0.250   3.557   3.825
13714WAT      O41383   6.804   0.997   7.706
13714WAT     H141384   6.829   1.085   7.746
13714WAT     H241385   6.761   0.940   7.776
13715WAT      O41386   7.513   5.244   2.403
13715WAT     H141387   7.467   5.249   2.314
13715WAT     H241388   7.578   5.168   2.401
13716WAT      O41389   9.075   0.302   3.600
13716WAT     H141390   9.087   0.393   3.640
13716WAT     H241391   8.995   0.258   3.640
13717WAT      O41392   3.876   0.967   0.918
13717WAT     H141393   3.921   1.036   0.861
13717WAT     H241394   3.818   0.909   0.862
13718WAT      O41395   2.980   8.507   8.774
13718WAT     H141396   2.905   8.448   8.805
13718WAT     H241397   3.010   8.477   8.683
13719WAT      O41398   1.606   1.167   1.890
13719WAT     H141399   1.563   1.256   1.902
13719WAT     H241400   1.601   1.115   1.975
13720WAT      O41401   0.307   5.395   7.942
13720WAT     H141402   0.216   5.359   7.959
13720WAT     H241403   0.305   5.454   7.861
13721WAT      O41404   6.364   0.998   3.822
13721WAT     H141405   6.384   1.095   3.810
13721WAT     H241406   6.434   0.943   3.776
13722WAT      O41407   3.671   4.511   9.565
13722WAT     H141408   3.748   4.527   9.504
13722WAT     H241409   3.621   4.430   9.536
13723WAT      O41410   7.553   4.024   5.391
13723WAT     H141411   7.586   4.082   5.465
13723WAT     H241412   7.619   4.023   5.316
13724WAT      O41413   9.641   5.944   7.016
13724WAT     H141414   9.616   5.884   6.939
13724WAT     H241415   9.652   5.888   7.098
13725WAT      O41416   9.686   0.390   7.743
13725WAT     H141417   9.644   0.342   7.665
13725WAT     H241418   9.655   0.347   7.828
13726WAT      O41419   7.296   4.868   9.088
13726WAT     H141420   7.358   4.884   9.165
13726WAT     H241421   7.329   4.789   9.035
13727WAT      O41422   3.367   2.714   0.302
13727WAT     H141423   3.404   2.805   0.286
13727WAT     H241424   3.271   2.711   0.273
13728WAT      O41425   1.092   6.861   8.777
13728WAT     H141426   1.030   6.783   8.763
13728WAT     H241427   1.183   6.837   8.744
13729WAT      O41428   5.254   5.194   6.206
13729WAT     H141429   5.326   5.249   6.247
13729WAT     H241430   5.231   5.231   6.116
13730WAT      O41431   6.115   1.303   5.594
13730WAT     H141432   6.199   1.329   5.641
13730WAT     H241433   6.036   1.337   5.645
13731WAT      O41434   1.512   8.967   3.149
13731WAT     H141435   1.421   8.943   3.117
13731WAT     H241436   1.548   9.043   3.095
13732WAT      O41437   5.822   6.681   4.553
13732WAT     H141438   5.890   6.630   4.605
13732WAT     H241439   5.764   6.734   4.615
13733WAT      O41440   5.242   7.791   5.916
13733WAT     H141441   5.285   7.702   5.928
13733WAT     H241442   5.311   7.858   5.887
13734WAT      O41443   9.547   2.161   4.252
13734WAT     H141444   9.475   2.140   4.318
13734WAT     H241445   9.506   2.175   4.162
13735WAT      O41446   4.176   1.706   0.669
13735WAT     H141447   4.232   1.752   0.600
13735WAT     H241448   4.104   1.767   0.700
13736WAT      O41449   2.785   6.726   6.313
13736WAT     H141450   2.709   6.712   6.251
13736WAT     H241451   2.752   6.725   6.407
13737WAT      O41452   3.738   9.373   5.898
13737WAT     H141453   3.662   9.415   5.948
13737WAT     H241454   3.702   9.318   5.824
13738WAT      O41455   5.506   9.164   8.379
13738WAT     H141456   5.523   9.143   8.283
13738WAT     H241457   5.430   9.108   8.413
13739WAT      O41458   0.868   0.556   7.408
13739WAT     H141459   0.837   0.582   7.499
13739WAT     H241460   0.810   0.600   7.339
13740WAT      O41461   2.833   3.498   5.605
13740WAT     H141462   2.772   3.573   5.580
13740WAT     H241463   2.920   3.508   5.556
13741WAT      O41464   1.720   6.987   8.391
13741WAT     H141465   1.734   7.063   8.328
13741WAT     H241466   1.681   7.020   8.476
13742WAT      O41467   2.803   8.329   9.068
13742WAT     H141468   2.863   8.251   9.080
13742WAT     H241469   2.737   8.333   9.143
13743WAT      O41470   2.503   3.307   6.391
13743WAT     H141471   2.588   3.355   6.371
13743WAT     H241472   2.426   3.370   6.381
13744WAT      O41473   5.502   1.409   2.522
13744WAT     H141474   5.602   1.407   2.526
13744WAT     H241475   5.464   1.360   2.599
13745WAT      O41476   3.839   5.102   2.244
13745WAT     H141477   3.865   5.160   2.167
13745WAT     H241478   3.808   5.160   2.319
13746WAT      O41479   2.817   5.822   3.036
13746WAT     H141480   2.811   5.904   2.978
13746WAT     H241481   2.737   5.765   3.022
13747WAT      O41482   8.207   8.839   4.551
13747WAT     H141483   8.226   8.741   4.545
13747WAT     H241484   8.152   8.858   4.632
13748WAT      O41485   2.705   5.624   0.567
13748WAT     H141486   2.690   5.635   0.665
13748WAT     H241487   2.782   5.680   0.538
13749WAT      O41488   6.723   5.887   5.633
13749WAT     H141489   6.734   5.944   5.715
13749WAT     H241490   6.805   5.893   5.577
13750WAT      O41491   8.822   5.294   0.587
13750WAT     H141492   8.799   5.368   0.524
13750WAT     H241493   8.894   5.325   0.649
13751WAT      O41494   9.366   2.282   2.058
13751WAT     H141495   9.402   2.360   2.007
13751WAT     H241496   9.360   2.306   2.155
13752WAT      O41497   8.889   2.444   4.589
13752WAT     H141498   8.951   2.434   4.667
13752WAT     H241499   8.912   2.527   4.538
13753WAT      O41500   2.789   5.064   8.427
13753WAT     H141501   2.801   5.074   8.328
13753WAT     H241502   2.765   4.970   8.448
13754WAT      O41503   6.261   6.302   3.691
13754WAT     H141504   6.184   6.270   3.746
13754WAT     H241505   6.321   6.225   3.669
13755WAT      O41506   1.781   2.553   8.418
13755WAT     H141507   1.712   2.609   8.373
13755WAT     H241508   1.737   2.473   8.459
13756WAT      O41509   7.463   4.175   8.017
13756WAT     H141510   7.556   4.156   8.048
13756WAT     H241511   7.422   4.245   8.075
13757WAT      O41512   8.915   0.482   8.312
13757WAT     H141513   8.994   0.543   8.322
13757WAT     H241514   8.947   0.388   8.306
13758WAT      O41515   0.240   7.509   4.680
13758WAT     H141516   0.290   7.540   4.599
13758WAT     H241517   0.204   7.417   4.664
13759WAT      O41518   5.842   4.258   2.644
13759WAT     H141519   5.771   4.312   2.689
13759WAT     H241520   5.853   4.288   2.550
13760WAT      O41521   4.945   2.379   6.764
13760WAT     H141522   4.900   2.388   6.853
13760WAT     H241523   4.971   2.469   6.730
13761WAT      O41524   7.587   9.210   0.206
13761WAT     H141525   7.590   9.308   0.188
13761WAT     H241526   7.516   9.168   0.150
13762WAT      O41527   9.188   8.259   3.481
13762WAT     H141528   9.215   8.301   3.394
13762WAT     H241529   9.257   8.281   3.550
13763WAT      O41530   4.705   8.392   8.756
13763WAT     H141531   4.691   8.482   8.797
13763WAT     H241532   4.633   8.330   8.787
13764WAT      O41533   7.972   9.489   9.629
13764WAT     H141534   8.031   9.474   9.550
13764WAT     H241535   8.023   9.470   9.713
13765WAT      O41536   9.755   4.735   2.158
13765WAT     H141537   9.774   4.736   2.060
13765WAT     H241538   9.822   4.678   2.205
13766WAT      O41539   6.180   9.831   2.000
13766WAT     H141540   6.231   9.808   1.917
13766WAT     H241541   6.094   9.780   2.001
13767WAT      O41542   7.428   6.096   3.343
13767WAT     H141543   7.449   6.034   3.419
13767WAT     H241544   7.471   6.061   3.259
13768WAT      O41545   8.735   0.814   5.226
13768WAT     H141546   8.705   0.908   5.240
13768WAT     H241547   8.666   0.750   5.261
13769WAT      O41548   8.285   2.105   2.456
13769WAT     H141549   8.361   2.074   2.398
13769WAT     H241550   8.280   2.205   2.453
13770WAT      O41551   1.058   0.791   3.228
13770WAT     H141552   0.996   0.767   3.303
13770WAT     H241553   1.151   0.802   3.263
13771WAT      O41554   7.785   5.028   5.206
13771WAT     H141555   7.690   5.004   5.226
13771WAT     H241556   7.838   5.026   5.291
13772WAT      O41557   0.767   6.636   7.190
13772WAT     H141558   0.801   6.546   7.165
13772WAT     H241559   0.787   6.654   7.286
13773WAT      O41560   8.122   7.671   3.043
13773WAT     H141561   8.159   7.729   3.115
13773WAT     H241562   8.087   7.586   3.083
13774WAT      O41563   7.357   6.277   1.995
13774WAT     H141564   7.376   6.333   2.075
13774WAT     H241565   7.389   6.325   1.913
13775WAT      O41566   4.947   9.181   3.721
13775WAT     H141567   4.864   9.235   3.736
13775WAT     H241568   5.021   9.216   3.779
13776WAT      O41569   5.015   0.901   7.789
13776WAT     H141570   4.978   0.813   7.760
13776WAT     H241571   4.960   0.938   7.863
13777WAT      O41572   7.153   8.487   5.649
13777WAT     H141573   7.179   8.516   5.557
13777WAT     H241574   7.086   8.551   5.687
13778WAT      O41575   1.879   5.934   0.824
13778WAT     H141576   1.794   5.894   0.789
13778WAT     H241577   1.953   5.868   0.814
13779WAT      O41578   0.999   5.043   8.948
13779WAT     H141579   1.021   5.118   8.886
13779WAT     H241580   1.002   5.076   9.042
13780WAT      O41581   9.638   3.736   1.278
13780WAT     H141582   9.588   3.819   1.251
13780WAT     H241583   9.626   3.720   1.376
13781WAT      O41584   8.075   0.529   6.552
13781WAT     H141585   8.040   0.604   6.609
13781WAT     H241586   8.165   0.502   6.585
13782WAT      O41587   8.795   8.649   8.582
13782WAT     H141588   8.803   8.720   8.652
13782WAT     H241589   8.843   8.566   8.614
13783WAT      O41590   5.235   6.593   5.198
13783WAT     H141591   5.199   6.538   5.123
13783WAT     H241592   5.258   6.684   5.166
13784WAT      O41593   8.959   9.037   8.280
13784WAT     H141594   8.945   8.998   8.189
13784WAT     H241595   8.984   8.965   8.344
13785WAT      O41596   3.630   3.072   5.908
13785WAT     H141597   3.686   3.071   5.825
13785WAT     H241598   3.615   3.166   5.937
13786WAT      O41599   0.909   8.512   3.200
13786WAT     H141600   0.964   8.430   3.184
13786WAT     H241601   0.816   8.496   3.167
13787WAT      O41602   5.013   9.075   6.187
13787WAT     H141603   5.002   9.166   6.227
13787WAT     H241604   4.965   9.008   6.243
13788WAT      O41605   5.167   6.100   6.292
13788WAT     H141606   5.201   6.049   6.213
13788WAT     H241607   5.076   6.067   6.317
13789WAT      O41608   7.570   2.949   4.922
13789WAT     H141609   7.532   2.881   4.860
13789WAT     H241610   7.580   2.909   5.013
13790WAT      O41611   8.787   2.627   7.931
13790WAT     H141612   8.791   2.561   7.856
13790WAT     H241613   8.872   2.680   7.932
13791WAT      O41614   1.090   0.771   9.424
13791WAT     H141615   0.998   0.751   9.390
13791WAT     H241616   1.112   0.708   9.498
13792WAT      O41617   6.533   4.815   8.795
13792WAT     H141618   6.587   4.889   8.835
13792WAT     H241619   6.483   4.767   8.868
13793WAT      O41620   9.710   2.898   6.459
13793WAT     H141621   9.772   2.905   6.537
13793WAT     H241622   9.722   2.977   6.400
13794WAT      O41623   1.752   4.154   1.032
13794WAT     H141624   1.690   4.194   0.964
13794WAT     H241625   1.841   4.138   0.990
13795WAT      O41626   8.223   5.276   4.080
13795WAT     H141627   8.218   5.194   4.023
13795WAT     H241628   8.132   5.299   4.113
13796WAT      O41629   2.571   7.808   1.702
13796WAT     H141630   2.583   7.712   1.728
13796WAT     H241631   2.644   7.834   1.639
13797WAT      O41632   1.345   0.723   9.783
13797WAT     H141633   1.442   0.703   9.770
13797WAT     H241634   1.326   0.818   9.759
13798WAT      O41635   7.908   9.698   5.277
13798WAT     H141636   7.973   9.745   5.217
13798WAT     H241637   7.937   9.708   5.372
13799WAT      O41638   6.486   5.564   5.450
13799WAT     H141639   6.410   5.515   5.492
13799WAT     H241640   6.479   5.559   5.350
13800WAT      O41641   9.048   4.607   0.234
13800WAT     H141642   8.951   4.586   0.230
13800WAT     H241643   9.061   4.706   0.230
13801WAT      O41644   7.215   3.633   2.814
13801WAT     H141645   7.171   3.586   2.737
13801WAT     H241646   7.205   3.731   2.803
13802WAT      O41647   5.271   4.595   8.577
13802WAT     H141648   5.351   4.654   8.570
13802WAT     H241649   5.244   4.565   8.485
13803WAT      O41650   0.792   5.033   3.496
13803WAT     H141651   0.879   4.983   3.488
13803WAT     H241652   0.717   4.967   3.502
13804WAT      O41653   3.303   6.857   6.880
13804WAT     H141654   3.308   6.783   6.813
13804WAT     H241655   3.247   6.827   6.958
13805WAT      O41656   1.488   0.990   5.371
13805WAT     H141657   1.567   1.032   5.327
13805WAT     H241658   1.509   0.972   5.468
13806WAT      O41659   4.902   1.074   3.784
13806WAT     H141660   4.876   1.163   3.821
13806WAT     H241661   4.981   1.085   3.723
13807WAT      O41662   6.681   0.051   0.693
13807WAT     H141663   6.624  -0.030   0.679
13807WAT     H241664   6.719   0.080   0.605
13808WAT      O41665   5.600   9.434   5.770
13808WAT     H141666   5.685   9.479   5.797
13808WAT     H241667   5.607   9.336   5.788
13809WAT      O41668   1.073   7.075   6.870
13809WAT     H141669   0.979   7.095   6.840
13809WAT     H241670   1.134   7.147   6.838
13810WAT      O41671   0.606   4.898   7.159
13810WAT     H141672   0.620   4.956   7.079
13810WAT     H241673   0.511   4.867   7.162
13811WAT      O41674   6.134   8.031   3.269
13811WAT     H141675   6.120   8.117   3.221
13811WAT     H241676   6.078   7.960   3.227
13812WAT      O41677   4.991   8.601   5.758
13812WAT     H141678   4.980   8.696   5.789
13812WAT     H241679   4.947   8.590   5.669
13813WAT      O41680   3.663   1.890   3.419
13813WAT     H141681   3.687   1.930   3.507
13813WAT     H241682   3.607   1.808   3.434
13814WAT      O41683   2.641   5.371   4.978
13814WAT     H141684   2.580   5.439   4.938
13814WAT     H241685   2.686   5.409   5.058
13815WAT      O41686   7.190   0.789   3.866
13815WAT     H141687   7.119   0.777   3.935
13815WAT     H241688   7.272   0.739   3.894
13816WAT      O41689   8.281   5.713   8.778
13816WAT     H141690   8.339   5.781   8.824
13816WAT     H241691   8.194   5.755   8.754
13817WAT      O41692   4.069   3.091   7.552
13817WAT     H141693   4.028   3.065   7.465
13817WAT     H241694   4.009   3.065   7.627
13818WAT      O41695   2.106   4.143   0.223
13818WAT     H141696   2.012   4.129   0.253
13818WAT     H241697   2.106   4.179   0.130
13819WAT      O41698   1.517   4.681   3.761
13819WAT     H141699   1.422   4.655   3.742
13819WAT     H241700   1.536   4.668   3.858
13820WAT      O41701   0.206   7.193   2.106
13820WAT     H141702   0.178   7.270   2.049
13820WAT     H241703   0.288   7.217   2.157
13821WAT      O41704   4.017   0.818   1.101
13821WAT     H141705   3.970   0.747   1.153
13821WAT     H241706   3.953   0.862   1.038
13822WAT      O41707   2.495   7.164   0.822
13822WAT     H141708   2.594   7.178   0.831
13822WAT     H241709   2.475   7.119   0.735
13823WAT      O41710   0.483   1.476   0.086
13823WAT     H141711   0.509   1.556   0.140
13823WAT     H241712   0.529   1.395   0.121
13824WAT      O41713   9.309   4.774   0.625
13824WAT     H141714   9.344   4.834   0.553
13824WAT     H241715   9.378   4.705   0.648
13825WAT      O41716   4.713   7.939   0.810
13825WAT     H141717   4.734   8.035   0.825
13825WAT     H241718   4.767   7.882   0.873
13826WAT      O41719   8.247   2.689   0.905
13826WAT     H141720   8.168   2.712   0.961
13826WAT     H241721   8.264   2.762   0.839
13827WAT      O41722   2.816   5.425   3.122
13827WAT     H141723   2.817   5.389   3.215
13827WAT     H241724   2.883   5.498   3.113
13828WAT      O41725   9.570   3.106   4.553
13828WAT     H141726   9.548   3.082   4.458
13828WAT     H241727   9.611   3.027   4.599
13829WAT      O41728   8.688   5.917   8.579
13829WAT     H141729   8.712   5.914   8.676
13829WAT     H241730   8.634   5.999   8.561
13830WAT      O41731   1.215   4.579   6.785
13830WAT     H141732   1.206   4.627   6.698
13830WAT     H241733   1.136   4.598   6.842
13831WAT      O41734   6.446   5.854   2.542
13831WAT     H141735   6.404   5.914   2.610
13831WAT     H241736   6.437   5.759   2.571
13832WAT      O41737   0.250   1.115   6.624
13832WAT     H141738   0.162   1.067   6.621
13832WAT     H241739   0.255   1.180   6.548
13833WAT      O41740   7.705   9.278   1.518
13833WAT     H141741   7.724   9.333   1.600
13833WAT     H241742   7.650   9.332   1.455
13834WAT      O41743   4.756   0.976   3.579
13834WAT     H141744   4.683   1.040   3.555
13834WAT     H241745   4.812   1.015   3.652
13835WAT      O41746   2.398   1.707   4.520
13835WAT     H141747   2.409   1.753   4.432
13835WAT     H241748   2.354   1.618   4.505
13836WAT      O41749   5.777   8.008   4.602
13836WAT     H141750   5.705   7.951   4.562
13836WAT     H241751   5.840   7.951   4.654
13837WAT      O41752   9.426   7.091   7.457
13837WAT     H141753   9.450   7.125   7.548
13837WAT     H241754   9.333   7.120   7.434
13838WAT      O41755   5.869   6.960   0.041
13838WAT     H141756   5.913   6.894   0.102
13838WAT     H241757   5.891   7.053   0.071
13839WAT      O41758   1.009   2.015   7.476
13839WAT     H141759   1.095   2.059   7.451
13839WAT     H241760   0.987   2.035   7.571
13840WAT      O41761   7.419   3.048   2.126
13840WAT     H141762   7.508   3.037   2.081
13840WAT     H241763   7.409   3.142   2.158
13841WAT      O41764   9.432   2.452   1.063
13841WAT     H141765   9.516   2.496   1.031
13841WAT     H241766   9.381   2.417   0.984
13842WAT      O41767   0.448   2.106   6.406
13842WAT     H141768   0.540   2.145   6.403
13842WAT     H241769   0.381   2.179   6.396
13843WAT      O41770   1.928   3.565   7.283
13843WAT     H141771   1.909   3.574   7.380
13843WAT     H241772   1.853   3.606   7.231
13844WAT      O41773   1.704   1.409   7.480
13844WAT     H141774   1.676   1.484   7.420
13844WAT     H241775   1.675   1.428   7.574
13845WAT      O41776   5.531   7.112   3.011
13845WAT     H141777   5.518   7.210   2.999
13845WAT     H241778   5.456   7.063   2.966
13846WAT      O41779   1.610   1.591   1.040
13846WAT     H141780   1.555   1.526   1.093
13846WAT     H241781   1.698   1.548   1.017
13847WAT      O41782   9.887   3.632   9.313
13847WAT     H141783   9.971   3.620   9.261
13847WAT     H241784   9.831   3.550   9.305
13848WAT      O41785   0.186   1.099   2.648
13848WAT     H141786   0.115   1.036   2.616
13848WAT     H241787   0.146   1.167   2.708
13849WAT      O41788   7.103   1.768   7.992
13849WAT     H141789   7.016   1.816   7.982
13849WAT     H241790   7.134   1.734   7.904
13850WAT      O41791   2.992   1.226   5.918
13850WAT     H141792   3.090   1.238   5.932
13850WAT     H241793   2.969   1.251   5.824
13851WAT      O41794   1.460   5.649   8.759
13851WAT     H141795   1.526   5.613   8.693
13851WAT     H241796   1.448   5.583   8.833
13852WAT      O41797   3.850   7.034   9.553
13852WAT     H141798   3.840   7.008   9.649
13852WAT     H241799   3.921   6.976   9.511
13853WAT      O41800   0.345   1.947   7.908
13853WAT     H141801   0.294   1.938   7.993
13853WAT     H241802   0.288   1.917   7.832
13854WAT      O41803   4.102   3.401   0.869
13854WAT     H141804   4.027   3.456   0.833
13854WAT     H241805   4.173   3.461   0.907
13855WAT      O41806   6.795   7.564   8.892
13855WAT     H141807   6.723   7.523   8.948
13855WAT     H241808   6.763   7.572   8.797
13856WAT      O41809   2.558   0.651   0.975
13856WAT     H141810   2.474   0.631   0.925
13856WAT     H241811   2.633   0.665   0.910
13857WAT      O41812   1.083   9.678   9.000
13857WAT     H141813   1.148   9.606   9.024
13857WAT     H241814   0.990   9.644   9.013
13858WAT      O41815   1.958   9.327   6.746
13858WAT     H141816   2.012   9.368   6.819
13858WAT     H241817   1.878   9.383   6.728
13859WAT      O41818   5.247   6.404   8.649
13859WAT     H141819   5.288   6.440   8.565
13859WAT     H241820   5.257   6.304   8.650
13860WAT      O41821   5.947   5.617   1.505
13860WAT     H141822   5.911   5.626   1.597
13860WAT     H241823   5.873   5.591   1.442
13861WAT      O41824   1.341   7.589   6.329
13861WAT     H141825   1.421   7.645   6.350
13861WAT     H241826   1.295   7.563   6.415
13862WAT      O41827   4.280   6.769   6.707
13862WAT     H141828   4.364   6.766   6.761
13862WAT     H241829   4.262   6.863   6.678
13863WAT      O41830   9.868   5.154   9.551
13863WAT     H141831   9.870   5.202   9.638
13863WAT     H241832   9.954   5.168   9.502
13864WAT      O41833   5.491   8.853   1.743
13864WAT     H141834   5.505   8.952   1.740
13864WAT     H241835   5.499   8.816   1.650
13865WAT      O41836   6.728   6.668   8.372
13865WAT     H141837   6.663   6.610   8.422
13865WAT     H241838   6.815   6.619   8.363
13866WAT      O41839   3.550   5.720   5.139
13866WAT     H141840   3.628   5.711   5.201
13866WAT     H241841   3.516   5.814   5.141
13867WAT      O41842   5.701   6.862   3.625
13867WAT     H141843   5.729   6.817   3.710
13867WAT     H241844   5.712   6.799   3.548
13868WAT      O41845   0.595   2.102   9.067
13868WAT     H141846   0.692   2.092   9.044
13868WAT     H241847   0.574   2.198   9.083
13869WAT      O41848   1.250   5.276   6.492
13869WAT     H141849   1.288   5.296   6.582
13869WAT     H241850   1.280   5.345   6.427
13870WAT      O41851   5.021   2.675   6.064
13870WAT     H141852   4.944   2.739   6.072
13870WAT     H241853   5.102   2.716   6.106
13871WAT      O41854   2.499   4.461   0.199
13871WAT     H141855   2.559   4.477   0.277
13871WAT     H241856   2.406   4.489   0.223
13872WAT      O41857   3.276   6.484   7.629
13872WAT     H141858   3.191   6.445   7.593
13872WAT     H241859   3.338   6.505   7.553
13873WAT      O41860   9.626   4.996   5.980
13873WAT     H141861   9.611   4.990   6.078
13873WAT     H241862   9.698   5.064   5.962
13874WAT      O41863   5.825   0.148   3.566
13874WAT     H141864   5.783   0.076   3.621
13874WAT     H241865   5.897   0.108   3.509
13875WAT      O41866   6.126   9.438   3.383
13875WAT     H141867   6.133   9.356   3.438
13875WAT     H241868   6.180   9.428   3.300
13876WAT      O41869   4.110   8.822   7.298
13876WAT     H141870   4.066   8.858   7.216
13876WAT     H241871   4.162   8.895   7.342
13877WAT      O41872   1.684   4.759   4.566
13877WAT     H141873   1.757   4.704   4.524
13877WAT     H241874   1.719   4.802   4.649
13878WAT      O41875   5.211   1.189   5.868
13878WAT     H141876   5.201   1.147   5.778
13878WAT     H241877   5.264   1.128   5.927
13879WAT      O41878   0.282   7.072   7.163
13879WAT     H141879   0.275   7.154   7.106
13879WAT     H241880   0.377   7.060   7.192
13880WAT      O41881   1.195   6.164   1.258
13880WAT     H141882   1.217   6.261   1.261
13880WAT     H241883   1.165   6.139   1.166
13881WAT      O41884   7.306   7.820   4.910
13881WAT     H141885   7.322   7.845   4.814
13881WAT     H241886   7.260   7.896   4.957
13882WAT      O41887   3.498   3.321   4.651
13882WAT     H141888   3.427   3.388   4.671
13882WAT     H241889   3.574   3.366   4.604
13883WAT      O41890   1.880   7.738   2.419
13883WAT     H141891   1.965   7.685   2.416
13883WAT     H241892   1.802   7.675   2.422
13884WAT      O41893   3.826   2.571   4.756
13884WAT     H141894   3.727   2.587   4.759
13884WAT     H241895   3.860   2.555   4.849
13885WAT      O41896   5.000   2.495   6.262
13885WAT     H141897   5.036   2.511   6.170
13885WAT     H241898   5.065   2.440   6.315
13886WAT      O41899   2.163   1.554   4.122
13886WAT     H141900   2.113   1.469   4.106
13886WAT     H241901   2.109   1.614   4.182
13887WAT      O41902   1.697   8.210   0.649
13887WAT     H141903   1.754   8.176   0.724
13887WAT     H241904   1.696   8.310   0.650
13888WAT      O41905   5.210   2.061   0.711
13888WAT     H141906   5.116   2.088   0.690
13888WAT     H241907   5.264   2.061   0.627
13889WAT      O41908   8.448   5.974   0.294
13889WAT     H141909   8.464   5.995   0.391
13889WAT     H241910   8.354   5.998   0.270
13890WAT      O41911   6.500   4.303   7.431
13890WAT     H141912   6.544   4.336   7.347
13890WAT     H241913   6.417   4.355   7.448
13891WAT      O41914   6.231   8.269   6.070
13891WAT     H141915   6.207   8.286   6.165
13891WAT     H241916   6.231   8.355   6.019
13892WAT      O41917   7.193   4.309   2.246
13892WAT     H141918   7.282   4.267   2.227
13892WAT     H241919   7.206   4.406   2.267
13893WAT      O41920   0.380   4.607   6.183
13893WAT     H141921   0.293   4.630   6.139
13893WAT     H241922   0.453   4.608   6.114
13894WAT      O41923   2.359   3.594   1.610
13894WAT     H141924   2.376   3.658   1.535
13894WAT     H241925   2.416   3.618   1.688
13895WAT      O41926   4.313   7.624   0.806
13895WAT     H141927   4.382   7.690   0.777
13895WAT     H241928   4.248   7.609   0.732
13896WAT      O41929   1.227   7.928   6.107
13896WAT     H141930   1.322   7.934   6.076
13896WAT     H241931   1.174   8.000   6.063
13897WAT      O41932   8.362   0.724   4.108
13897WAT     H141933   8.327   0.684   4.023
13897WAT     H241934   8.333   0.667   4.185
13898WAT      O41935   9.323   1.947   5.444
13898WAT     H141936   9.408   1.905   5.413
13898WAT     H241937   9.246   1.907   5.394
13899WAT      O41938   4.697   3.183   7.417
13899WAT     H141939   4.642   3.155   7.496
13899WAT     H241940   4.641   3.237   7.355
13900WAT      O41941   2.675   8.992   1.216
13900WAT     H141942   2.740   8.919   1.196
13900WAT     H241943   2.609   8.960   1.285
13901WAT      O41944   1.371   8.639   2.343
13901WAT     H141945   1.294   8.646   2.280
13901WAT     H241946   1.452   8.609   2.293
13902WAT      O41947   0.170   6.408   6.193
13902WAT     H141948   0.173   6.505   6.170
13902WAT     H241949   0.256   6.365   6.167
13903WAT      O41950   2.268   3.164   5.572
13903WAT     H141951   2.178   3.158   5.527
13903WAT     H241952   2.318   3.243   5.536
13904WAT      O41953   2.360   0.089   7.164
13904WAT     H141954   2.314   0.149   7.098
13904WAT     H241955   2.422   0.027   7.116
13905WAT      O41956   5.865   9.334   8.573
13905WAT     H141957   5.886   9.390   8.493
13905WAT     H241958   5.929   9.357   8.647
13906WAT      O41959   3.319   2.661   3.956
13906WAT     H141960   3.287   2.660   3.862
13906WAT     H241961   3.305   2.571   3.997
13907WAT      O41962   7.030   9.123   1.937
13907WAT     H141963   6.944   9.084   1.970
13907WAT     H241964   7.031   9.221   1.955
13908WAT      O41965   7.647   6.946   1.978
13908WAT     H141966   7.683   6.857   1.951
13908WAT     H241967   7.595   6.985   1.903
13909WAT      O41968   8.623   4.281   8.448
13909WAT     H141969   8.604   4.304   8.352
13909WAT     H241970   8.560   4.331   8.507
13910WAT      O41971   2.505   5.596   8.345
13910WAT     H141972   2.538   5.586   8.439
13910WAT     H241973   2.581   5.621   8.285
13911WAT      O41974   0.579   3.889   3.331
13911WAT     H141975   0.652   3.925   3.389
13911WAT     H241976   0.504   3.856   3.389
13912WAT      O41977   9.664   5.574   1.118
13912WAT     H141978   9.616   5.651   1.159
13912WAT     H241979   9.761   5.594   1.113
13913WAT      O41980   4.624   5.563   2.083
13913WAT     H141981   4.696   5.539   2.018
13913WAT     H241982   4.664   5.607   2.163
13914WAT      O41983   7.917   2.939   1.563
13914WAT     H141984   7.968   2.926   1.648
13914WAT     H241985   7.911   3.037   1.543
13915WAT      O41986   2.643   9.036   8.832
13915WAT     H141987   2.681   9.074   8.917
13915WAT     H241988   2.545   9.051   8.830
13916WAT      O41989   7.710   3.052   2.460
13916WAT     H141990   7.713   3.125   2.391
13916WAT     H241991   7.765   2.975   2.429
13917WAT      O41992   3.008   8.762   1.193
13917WAT     H141993   2.914   8.739   1.165
13917WAT     H241994   3.009   8.781   1.291
13918WAT      O41995   7.387   3.197   4.863
13918WAT     H141996   7.452   3.121   4.860
13918WAT     H241997   7.306   3.173   4.810
13919WAT      O41998   2.312   0.185   5.760
13919WAT     H141999   2.223   0.198   5.804
13919WAT     H242000   2.375   0.141   5.824
13920WAT      O42001   6.861   4.640   6.034
13920WAT     H142002   6.897   4.558   5.989
13920WAT     H242003   6.797   4.686   5.972
13921WAT      O42004   2.082   0.991   7.855
13921WAT     H142005   2.165   1.020   7.808
13921WAT     H242006   2.035   0.921   7.801
13922WAT      O42007   9.769   5.038   4.053
13922WAT     H142008   9.837   5.008   4.120
13922WAT     H242009   9.796   5.126   4.015
13923WAT      O42010   7.856   2.547   5.277
13923WAT     H142011   7.817   2.459   5.305
13923WAT     H242012   7.786   2.617   5.279
13924WAT      O42013   9.071   0.126   2.564
13924WAT     H142014   9.097   0.143   2.659
13924WAT     H242015   9.021   0.205   2.529
13925WAT      O42016   3.095   0.032   6.530
13925WAT     H142017   3.134  -0.010   6.612
13925WAT     H242018   3.143  -0.003   6.449
13926WAT      O42019   8.128   3.295   3.187
13926WAT     H142020   8.071   3.345   3.251
13926WAT     H242021   8.186   3.360   3.137
13927WAT      O42022   6.853   3.723   0.005
13927WAT     H142023   6.884   3.755   0.094
13927WAT     H242024   6.815   3.800  -0.047
13928WAT      O42025   8.580   4.326   1.629
13928WAT     H142026   8.622   4.237   1.648
13928WAT     H242027   8.652   4.393   1.608
13929WAT      O42028   6.570   9.434   4.633
13929WAT     H142029   6.652   9.492   4.637
13929WAT     H242030   6.596   9.343   4.600
13930WAT      O42031   8.922   1.236   7.804
13930WAT     H142032   8.894   1.150   7.847
13930WAT     H242033   8.841   1.284   7.770
13931WAT      O42034   6.856   0.514   8.841
13931WAT     H142035   6.912   0.569   8.778
13931WAT     H242036   6.796   0.575   8.894
13932WAT      O42037   3.456   8.329   7.459
13932WAT     H142038   3.391   8.364   7.527
13932WAT     H242039   3.430   8.361   7.368
13933WAT      O42040   6.486   8.738   9.636
13933WAT     H142041   6.566   8.788   9.603
13933WAT     H242042   6.408   8.800   9.641
13934WAT      O42043   1.558   8.795   5.499
13934WAT     H142044   1.616   8.746   5.564
13934WAT     H242045   1.598   8.885   5.481
13935WAT      O42046   1.888   0.200   9.866
13935WAT     H142047   1.970   0.154   9.900
13935WAT     H242048   1.871   0.173   9.771
13936WAT      O42049   7.009   3.602   3.795
13936WAT     H142050   7.009   3.700   3.813
13936WAT     H242051   6.930   3.560   3.838
13937WAT      O42052   4.378   2.903   8.483
13937WAT     H142053   4.367   2.969   8.557
13937WAT     H242054   4.380   2.810   8.521
13938WAT      O42055   5.551   8.690   9.024
13938WAT     H142056   5.453   8.705   9.012
13938WAT     H242057   5.598   8.778   9.036
13939WAT      O42058   6.473   8.293   8.955
13939WAT     H142059   6.565   8.279   8.990
13939WAT     H242060   6.472   8.373   8.894
13940WAT      O42061   3.490   6.470   5.230
13940WAT     H142062   3.563   6.459   5.162
13940WAT     H242063   3.524   6.442   5.320
13941WAT      O42064   5.274   6.915   8.260
13941WAT     H142065   5.344   6.914   8.189
13941WAT     H242066   5.185   6.938   8.219
13942WAT      O42067   1.233   1.797   2.793
13942WAT     H142068   1.215   1.704   2.762
13942WAT     H242069   1.331   1.812   2.799
13943WAT      O42070   6.901   3.395   9.631
13943WAT     H142071   6.979   3.344   9.592
13943WAT     H242072   6.934   3.453   9.705
13944WAT      O42073   6.161   8.501   2.968
13944WAT     H142074   6.066   8.527   2.984
13944WAT     H242075   6.176   8.486   2.871
13945WAT      O42076   5.624   1.441   0.762
13945WAT     H142077   5.680   1.464   0.841
13945WAT     H242078   5.682   1.425   0.683
13946WAT      O42079   9.776   8.975   0.684
13946WAT     H142080   9.781   8.896   0.624
13946WAT     H242081   9.747   8.947   0.775
13947WAT      O42082   5.765   1.789   7.930
13947WAT     H142083   5.791   1.738   7.848
13947WAT     H242084   5.846   1.810   7.984
13948WAT      O42085   0.972   7.685   0.993
13948WAT     H142086   0.902   7.637   1.046
13948WAT     H242087   1.047   7.621   0.972
13949WAT      O42088   5.310   2.294   5.135
13949WAT     H142089   5.319   2.208   5.185
13949WAT     H242090   5.332   2.278   5.039
13950WAT      O42091   9.230   8.366   5.019
13950WAT     H142092   9.314   8.407   4.984
13950WAT     H242093   9.153   8.393   4.960
13951WAT      O42094   3.880   5.989   0.865
13951WAT     H142095   3.901   6.016   0.959
13951WAT     H242096   3.922   5.900   0.846
13952WAT      O42097   4.808   8.497   1.831
13952WAT     H142098   4.792   8.407   1.871
13952WAT     H242099   4.887   8.492   1.769
13953WAT      O42100   8.633   7.782   1.777
13953WAT     H142101   8.571   7.768   1.700
13953WAT     H242102   8.582   7.821   1.854
13954WAT      O42103   7.903   9.527   3.024
13954WAT     H142104   7.881   9.524   2.926
13954WAT     H242105   7.920   9.434   3.057
13955WAT      O42106   5.034   2.178   2.871
13955WAT     H142107   5.018   2.177   2.970
13955WAT     H242108   4.997   2.263   2.833
13956WAT      O42109   6.572   7.260   0.563
13956WAT     H142110   6.557   7.286   0.658
13956WAT     H242111   6.664   7.290   0.535
13957WAT      O42112   9.117   2.681   8.211
13957WAT     H142113   9.216   2.691   8.214
13957WAT     H242114   9.090   2.645   8.121
13958WAT      O42115   6.399   9.312   1.164
13958WAT     H142116   6.423   9.272   1.075
13958WAT     H242117   6.341   9.392   1.150
13959WAT      O42118   8.038   4.576   0.134
13959WAT     H142119   8.033   4.563   0.233
13959WAT     H242120   8.045   4.674   0.114
13960WAT      O42121   5.806   6.571   5.552
13960WAT     H142122   5.779   6.482   5.513
13960WAT     H242123   5.863   6.556   5.632
13961WAT      O42124   3.376   4.158   1.808
13961WAT     H142125   3.340   4.228   1.869
13961WAT     H242126   3.424   4.201   1.732
13962WAT      O42127   0.453   7.333   8.242
13962WAT     H142128   0.407   7.248   8.269
13962WAT     H242129   0.496   7.374   8.322
13963WAT      O42130   8.737   1.766   6.517
13963WAT     H142131   8.686   1.707   6.455
13963WAT     H242132   8.835   1.760   6.497
13964WAT      O42133   3.968   1.429   2.448
13964WAT     H142134   3.885   1.452   2.498
13964WAT     H242135   4.047   1.473   2.490
13965WAT      O42136   2.607   6.258   4.358
13965WAT     H142137   2.563   6.168   4.366
13965WAT     H242138   2.541   6.329   4.382
13966WAT      O42139   0.847   1.218   1.446
13966WAT     H142140   0.749   1.199   1.439
13966WAT     H242141   0.888   1.153   1.510
13967WAT      O42142   6.473   2.591   9.091
13967WAT     H142143   6.429   2.555   9.173
13967WAT     H242144   6.486   2.516   9.025
13968WAT      O42145   2.582   6.937   2.538
13968WAT     H142146   2.581   7.031   2.574
13968WAT     H242147   2.675   6.913   2.512
13969WAT      O42148   5.796   2.669   0.006
13969WAT     H142149   5.742   2.628   0.080
13969WAT     H242150   5.893   2.658   0.026
13970WAT      O42151   4.215   4.246   0.151
13970WAT     H142152   4.292   4.306   0.134
13970WAT     H242153   4.140   4.268   0.088
13971WAT      O42154   7.056   4.624   3.040
13971WAT     H142155   7.129   4.671   3.089
13971WAT     H242156   6.981   4.688   3.023
13972WAT      O42157   3.251   3.828   2.203
13972WAT     H142158   3.283   3.804   2.295
13972WAT     H242159   3.288   3.918   2.178
13973WAT      O42160   2.115   0.323   7.979
13973WAT     H142161   2.210   0.346   7.955
13973WAT     H242162   2.095   0.230   7.950
13974WAT      O42163   6.713   8.821   8.861
13974WAT     H142164   6.788   8.881   8.887
13974WAT     H242165   6.635   8.876   8.831
13975WAT      O42166   8.925   0.800   8.136
13975WAT     H142167   8.967   0.753   8.213
13975WAT     H242168   8.838   0.841   8.166
13976WAT      O42169   1.816   6.478   9.020
13976WAT     H142170   1.804   6.547   8.949
13976WAT     H242171   1.811   6.387   8.979
13977WAT      O42172   3.636   6.239   2.187
13977WAT     H142173   3.699   6.268   2.259
13977WAT     H242174   3.596   6.320   2.143
13978WAT      O42175   9.353   8.729   1.777
13978WAT     H142176   9.376   8.632   1.780
13978WAT     H242177   9.339   8.763   1.870
13979WAT      O42178   8.960   2.603   3.020
13979WAT     H142179   8.920   2.555   3.098
13979WAT     H242180   8.889   2.651   2.970
13980WAT      O42181   8.276   5.935   2.662
13980WAT     H142182   8.304   5.883   2.581
13980WAT     H242183   8.322   6.024   2.662
13981WAT      O42184   8.233   5.064   9.851
13981WAT     H142185   8.288   5.059   9.935
13981WAT     H242186   8.282   5.018   9.777
13982WAT      O42187   1.658   4.694   7.546
13982WAT     H142188   1.746   4.656   7.517
13982WAT     H242189   1.632   4.768   7.484
13983WAT      O42190   4.496   0.391   5.377
13983WAT     H142191   4.556   0.414   5.300
13983WAT     H242192   4.537   0.318   5.430
13984WAT      O42193   6.372   8.457   0.375
13984WAT     H142194   6.353   8.540   0.427
13984WAT     H242195   6.444   8.404   0.421
13985WAT      O42196   2.724   9.170   8.593
13985WAT     H142197   2.728   9.124   8.682
13985WAT     H242198   2.815   9.206   8.570
13986WAT      O42199   0.096   7.270   2.503
13986WAT     H142200   0.015   7.283   2.445
13986WAT     H242201   0.104   7.345   2.568
13987WAT      O42202   1.117   8.498   3.756
13987WAT     H142203   1.133   8.527   3.662
13987WAT     H242204   1.173   8.552   3.818
13988WAT      O42205   4.068   2.866   0.010
13988WAT     H142206   4.161   2.903   0.009
13988WAT     H242207   4.071   2.772   0.042
13989WAT      O42208   4.349   8.117   0.083
13989WAT     H142209   4.339   8.121   0.182
13989WAT     H242210   4.268   8.075   0.043
13990WAT      O42211   4.348   1.069   0.948
13990WAT     H142212   4.438   1.109   0.959
13990WAT     H242213   4.311   1.094   0.858
13991WAT      O42214   6.214   9.198   2.182
13991WAT     H142215   6.271   9.142   2.243
13991WAT     H242216   6.266   9.220   2.100
13992WAT      O42217   6.977   5.883   2.522
13992WAT     H142218   6.936   5.974   2.520
13992WAT     H242219   6.959   5.836   2.436
13993WAT      O42220   8.449   6.010   4.150
13993WAT     H142221   8.401   6.076   4.208
13993WAT     H242222   8.477   5.932   4.206
13994WAT      O42223   9.454   8.128   4.851
13994WAT     H142224   9.400   8.071   4.913
13994WAT     H242225   9.520   8.070   4.803
13995WAT      O42226   0.698   8.644   1.503
13995WAT     H142227   0.685   8.649   1.404
13995WAT     H242228   0.791   8.615   1.523
13996WAT      O42229   4.031   2.642   8.599
13996WAT     H142230   4.130   2.638   8.586
13996WAT     H242231   3.989   2.561   8.559
13997WAT      O42232   9.765   7.712   7.770
13997WAT     H142233   9.792   7.806   7.748
13997WAT     H242234   9.783   7.694   7.867
13998WAT      O42235   3.021   2.929   8.303
13998WAT     H142236   3.056   2.963   8.216
13998WAT     H242237   3.089   2.948   8.375
13999WAT      O42238   5.412   5.320   8.561
13999WAT     H142239   5.436   5.381   8.637
13999WAT     H242240   5.484   5.252   8.549
14000WAT      O42241   6.355   1.715   8.764
14000WAT     H142242   6.443   1.671   8.782
14000WAT     H242243   6.286   1.645   8.746
14001WAT      O42244   9.753   3.189   3.573
14001WAT     H142245   9.838   3.142   3.547
14001WAT     H242246   9.724   3.248   3.498
14002WAT      O42247   4.337   3.340   9.428
14002WAT     H142248   4.345   3.252   9.381
14002WAT     H242249   4.416   3.397   9.406
14003WAT      O42250   9.745   3.576   8.364
14003WAT     H142251   9.661   3.523   8.378
14003WAT     H242252   9.772   3.572   8.268
14004WAT      O42253   5.043   1.285   4.252
14004WAT     H142254   4.985   1.361   4.224
14004WAT     H242255   5.137   1.303   4.223
14005WAT      O42256   3.050   3.712   8.761
14005WAT     H142257   2.968   3.655   8.769
14005WAT     H242258   3.046   3.786   8.828
14006WAT      O42259   9.391   6.374   7.896
14006WAT     H142260   9.415   6.467   7.869
14006WAT     H242261   9.332   6.377   7.977
14007WAT      O42262   4.168   8.059   7.134
14007WAT     H142263   4.266   8.043   7.128
14007WAT     H242264   4.135   8.102   7.050
14008WAT      O42265   1.632   3.933   7.842
14008WAT     H142266   1.564   3.896   7.779
14008WAT     H242267   1.596   3.930   7.935
14009WAT      O42268   1.977   9.316   5.073
14009WAT     H142269   1.888   9.361   5.063
14009WAT     H242270   1.972   9.225   5.031
14010WAT      O42271   4.995   8.770   0.059
14010WAT     H142272   5.069   8.708   0.082
14010WAT     H242273   4.980   8.834   0.134
14011WAT      O42274   3.642   0.611   2.442
14011WAT     H142275   3.669   0.523   2.401
14011WAT     H242276   3.665   0.610   2.539
14012WAT      O42277   0.148   1.804   4.203
14012WAT     H142278   0.135   1.828   4.107
14012WAT     H242279   0.245   1.788   4.220
14013WAT      O42280   4.767   4.423   8.147
14013WAT     H142281   4.809   4.412   8.057
14013WAT     H242282   4.838   4.433   8.216
14014WAT      O42283   6.942   8.957   8.911
14014WAT     H142284   6.925   8.990   9.003
14014WAT     H242285   6.984   9.029   8.856
14015WAT      O42286   2.444   0.292   9.885
14015WAT     H142287   2.506   0.233   9.936
14015WAT     H242288   2.426   0.375   9.938
14016WAT      O42289   7.492   3.925   9.758
14016WAT     H142290   7.454   3.983   9.830
14016WAT     H242291   7.491   3.975   9.671
14017WAT      O42292   7.222   2.160   2.477
14017WAT     H142293   7.253   2.082   2.532
14017WAT     H242294   7.295   2.229   2.473
14018WAT      O42295   1.968   2.962   2.127
14018WAT     H142296   2.021   2.975   2.043
14018WAT     H242297   1.884   3.016   2.122
14019WAT      O42298   2.991   1.908   4.843
14019WAT     H142299   3.018   1.841   4.773
14019WAT     H242300   3.015   1.873   4.933
14020WAT      O42301   4.647   7.017   0.040
14020WAT     H142302   4.664   6.933  -0.011
14020WAT     H242303   4.607   6.994   0.129
14021WAT      O42304   8.889   7.594   2.353
14021WAT     H142305   8.963   7.588   2.420
14021WAT     H242306   8.813   7.534   2.380
14022WAT      O42307   5.344   0.947   4.810
14022WAT     H142308   5.304   0.891   4.883
14022WAT     H242309   5.426   0.902   4.775
14023WAT      O42310   9.518   8.543   1.036
14023WAT     H142311   9.557   8.567   1.125
14023WAT     H242312   9.528   8.620   0.973
14024WAT      O42313   0.988   4.918   5.436
14024WAT     H142314   1.037   4.868   5.508
14024WAT     H242315   0.978   4.859   5.356
14025WAT      O42316   3.609   1.124   7.370
14025WAT     H142317   3.655   1.211   7.385
14025WAT     H242318   3.520   1.141   7.327
14026WAT      O42319   1.913   1.808   7.747
14026WAT     H142320   1.878   1.859   7.669
14026WAT     H242321   1.865   1.837   7.830
14027WAT      O42322   9.245   1.661   8.255
14027WAT     H142323   9.226   1.702   8.344
14027WAT     H242324   9.216   1.565   8.256
14028WAT      O42325   7.836   5.900   1.978
14028WAT     H142326   7.934   5.922   1.977
14028WAT     H242327   7.795   5.934   2.063
14029WAT      O42328   0.537   4.123   5.860
14029WAT     H142329   0.524   4.073   5.775
14029WAT     H242330   0.556   4.058   5.934
14030WAT      O42331   7.425   6.339   3.458
14030WAT     H142332   7.346   6.399   3.443
14030WAT     H242333   7.410   6.253   3.409
14031WAT      O42334   2.938   6.470   0.791
14031WAT     H142335   2.987   6.511   0.714
14031WAT     H242336   2.977   6.380   0.811
14032WAT      O42337   9.053   8.043   4.238
14032WAT     H142338   9.066   7.945   4.219
14032WAT     H242339   9.134   8.080   4.282
14033WAT      O42340   0.738   4.519   7.583
14033WAT     H142341   0.769   4.546   7.674
14033WAT     H242342   0.644   4.486   7.587
14034WAT      O42343   1.861   3.551   9.869
14034WAT     H142344   1.886   3.569   9.773
14034WAT     H242345   1.768   3.515   9.873
14035WAT      O42346   8.107   1.651   8.279
14035WAT     H142347   8.198   1.667   8.317
14035WAT     H242348   8.089   1.715   8.204
14036WAT      O42349   3.704   8.225   9.460
14036WAT     H142350   3.787   8.171   9.474
14036WAT     H242351   3.695   8.248   9.363
14037WAT      O42352   2.996   8.076   2.554
14037WAT     H142353   2.944   8.118   2.480
14037WAT     H242354   3.094   8.084   2.536
14038WAT      O42355   2.436   4.787   0.551
14038WAT     H142356   2.362   4.722   0.568
14038WAT     H242357   2.507   4.777   0.620
14039WAT      O42358   5.745   8.922   0.064
14039WAT     H142359   5.744   8.875  -0.024
14039WAT     H242360   5.826   8.894   0.115
14040WAT      O42361   3.019   9.816   3.968
14040WAT     H142362   2.933   9.766   3.961
14040WAT     H242363   3.057   9.830   3.876
14041WAT      O42364   0.490   7.323   4.175
14041WAT     H142365   0.567   7.380   4.203
14041WAT     H242366   0.404   7.372   4.193
14042WAT      O42367   3.986   0.526   2.654
14042WAT     H142368   4.022   0.457   2.717
14042WAT     H242369   3.890   0.542   2.673
14043WAT      O42370   8.732   5.296   7.046
14043WAT     H142371   8.717   5.223   7.113
14043WAT     H242372   8.705   5.264   6.955
14044WAT      O42373   3.581   0.672   7.602
14044WAT     H142374   3.618   0.588   7.562
14044WAT     H242375   3.524   0.718   7.534
14045WAT      O42376   9.749   0.696   7.812
14045WAT     H142377   9.769   0.733   7.722
14045WAT     H242378   9.750   0.597   7.809
14046WAT      O42379   0.237   6.914   5.807
14046WAT     H142380   0.218   7.012   5.818
14046WAT     H242381   0.329   6.903   5.769
14047WAT      O42382   1.247   9.471   9.096
14047WAT     H142383   1.209   9.378   9.097
14047WAT     H242384   1.275   9.496   9.189
14048WAT      O42385   4.695   6.882   8.697
14048WAT     H142386   4.623   6.842   8.641
14048WAT     H242387   4.740   6.809   8.750
14049WAT      O42388   1.446   7.547   3.741
14049WAT     H142389   1.494   7.591   3.665
14049WAT     H242390   1.348   7.548   3.722
14050WAT      O42391   9.561   6.219   1.239
14050WAT     H142392   9.624   6.283   1.283
14050WAT     H242393   9.521   6.159   1.308
14051WAT      O42394   2.969   5.514   5.692
14051WAT     H142395   2.909   5.503   5.771
14051WAT     H242396   2.963   5.433   5.634
14052WAT      O42397   0.979   8.530   6.005
14052WAT     H142398   1.077   8.508   6.007
14052WAT     H242399   0.926   8.446   6.013
14053WAT      O42400   3.438   3.868   2.752
14053WAT     H142401   3.345   3.905   2.751
14053WAT     H242402   3.478   3.876   2.661
14054WAT      O42403   2.805   9.244   4.998
14054WAT     H142404   2.736   9.307   4.962
14054WAT     H242405   2.772   9.150   4.988
14055WAT      O42406   5.608   1.905   1.111
14055WAT     H142407   5.584   1.933   1.204
14055WAT     H242408   5.665   1.975   1.069
14056WAT      O42409   3.800   0.153   2.532
14056WAT     H142410   3.738   0.102   2.472
14056WAT     H242411   3.891   0.111   2.530
14057WAT      O42412   6.303   1.333   4.372
14057WAT     H142413   6.249   1.338   4.456
14057WAT     H242414   6.280   1.249   4.322
14058WAT      O42415   5.150   3.885   0.863
14058WAT     H142416   5.237   3.921   0.894
14058WAT     H242417   5.102   3.841   0.940
14059WAT      O42418   1.378   3.008   3.123
14059WAT     H142419   1.402   3.010   3.220
14059WAT     H242420   1.284   3.040   3.112
14060WAT      O42421   9.134   7.793   4.237
14060WAT     H142422   9.230   7.800   4.263
14060WAT     H242423   9.117   7.702   4.198
14061WAT      O42424   3.489   6.001   5.686
14061WAT     H142425   3.585   5.996   5.657
14061WAT     H242426   3.448   5.910   5.677
14062WAT      O42427   0.877   8.149   3.394
14062WAT     H142428   0.940   8.073   3.411
14062WAT     H242429   0.867   8.204   3.476
14063WAT      O42430   4.217   1.886   4.832
14063WAT     H142431   4.213   1.915   4.928
14063WAT     H242432   4.221   1.967   4.773
14064WAT      O42433   3.649   8.709   3.502
14064WAT     H142434   3.669   8.802   3.473
14064WAT     H242435   3.580   8.711   3.574
14065WAT      O42436   4.131   6.236   8.834
14065WAT     H142437   4.051   6.188   8.798
14065WAT     H242438   4.109   6.333   8.845
14066WAT      O42439   8.798   6.925   6.751
14066WAT     H142440   8.888   6.882   6.760
14066WAT     H242441   8.744   6.877   6.681
14067WAT      O42442   6.656   1.272   5.089
14067WAT     H142443   6.660   1.184   5.042
14067WAT     H242444   6.681   1.345   5.026
14068WAT      O42445   2.536   1.058   6.689
14068WAT     H142446   2.623   1.088   6.650
14068WAT     H242447   2.471   1.134   6.687
14069WAT      O42448   4.701   7.283   3.680
14069WAT     H142449   4.690   7.263   3.583
14069WAT     H242450   4.624   7.339   3.711
14070WAT      O42451   4.538   5.349   2.398
14070WAT     H142452   4.530   5.445   2.422
14070WAT     H242453   4.494   5.333   2.310
14071WAT      O42454   9.876   6.029   1.665
14071WAT     H142455   9.899   6.039   1.568
14071WAT     H242456   9.957   6.047   1.721
14072WAT      O42457   8.188   5.330   0.012
14072WAT     H142458   8.098   5.330   0.055
14072WAT     H242459   8.206   5.240  -0.028
14073WAT      O42460   8.182   3.890   8.398
14073WAT     H142461   8.157   3.794   8.401
14073WAT     H242462   8.128   3.941   8.465
14074WAT      O42463   7.770   2.249   7.694
14074WAT     H142464   7.791   2.314   7.621
14074WAT     H242465   7.682   2.205   7.675
14075WAT      O42466   7.951   1.244   5.372
14075WAT     H142467   8.012   1.259   5.450
14075WAT     H242468   7.909   1.331   5.346
14076WAT      O42469   8.422   3.459   9.881
14076WAT     H142470   8.373   3.460   9.969
14076WAT     H242471   8.491   3.531   9.881
14077WAT      O42472   1.543   6.080   9.718
14077WAT     H142473   1.519   6.095   9.622
14077WAT     H242474   1.572   5.985   9.731
14078WAT      O42475   8.402   8.312   3.403
14078WAT     H142476   8.492   8.350   3.421
14078WAT     H242477   8.359   8.363   3.328
14079WAT      O42478   8.273   3.614   8.089
14079WAT     H142479   8.252   3.612   8.187
14079WAT     H242480   8.188   3.600   8.037
14080WAT      O42481   3.469   6.896   5.230
14080WAT     H142482   3.544   6.888   5.295
14080WAT     H242483   3.499   6.948   5.150
14081WAT      O42484   8.276   0.357   6.357
14081WAT     H142485   8.264   0.267   6.316
14081WAT     H242486   8.261   0.428   6.288
14082WAT      O42487   2.632   0.211   3.530
14082WAT     H142488   2.700   0.142   3.503
14082WAT     H242489   2.664   0.302   3.505
14083WAT      O42490   8.608   4.568   7.444
14083WAT     H142491   8.624   4.513   7.362
14083WAT     H242492   8.561   4.652   7.419
14084WAT      O42493   5.914   2.389   7.711
14084WAT     H142494   5.934   2.486   7.712
14084WAT     H242495   5.945   2.347   7.796
14085WAT      O42496   4.098   4.994   3.310
14085WAT     H142497   4.196   5.009   3.302
14085WAT     H242498   4.061   5.053   3.382
14086WAT      O42499   6.079   6.246   6.410
14086WAT     H142500   5.980   6.243   6.420
14086WAT     H242501   6.102   6.288   6.321
14087WAT      O42502   4.914   8.132   7.041
14087WAT     H142503   5.012   8.142   7.055
14087WAT     H242504   4.884   8.192   6.966
14088WAT      O42505   0.526   7.477   5.930
14088WAT     H142506   0.578   7.392   5.942
14088WAT     H242507   0.557   7.545   5.997
14089WAT      O42508   8.598   7.111   0.823
14089WAT     H142509   8.560   7.178   0.888
14089WAT     H242510   8.678   7.067   0.864
14090WAT      O42511   0.250   1.486   9.506
14090WAT     H142512   0.313   1.479   9.584
14090WAT     H242513   0.201   1.400   9.495
14091WAT      O42514   9.105   0.008   3.017
14091WAT     H142515   9.156  -0.038   3.090
14091WAT     H242516   9.168   0.066   2.965
14092WAT      O42517   9.485   9.247   4.207
14092WAT     H142518   9.554   9.235   4.136
14092WAT     H242519   9.473   9.344   4.226
14093WAT      O42520   3.777   3.603   8.535
14093WAT     H142521   3.752   3.539   8.608
14093WAT     H242522   3.707   3.599   8.463
14094WAT      O42523   1.578   3.695   4.319
14094WAT     H142524   1.622   3.640   4.390
14094WAT     H242525   1.484   3.663   4.306
14095WAT      O42526   4.004   8.993   7.082
14095WAT     H142527   3.934   9.061   7.103
14095WAT     H242528   4.074   9.033   7.024
14096WAT      O42529   5.832   3.845   5.032
14096WAT     H142530   5.786   3.857   5.119
14096WAT     H242531   5.922   3.804   5.047
14097WAT      O42532   3.901   1.849   1.357
14097WAT     H142533   3.961   1.806   1.424
14097WAT     H242534   3.807   1.849   1.392
14098WAT      O42535   2.787   6.090   2.940
14098WAT     H142536   2.695   6.071   2.975
14098WAT     H242537   2.792   6.186   2.910
14099WAT      O42538   4.821   9.273   2.768
14099WAT     H142539   4.776   9.350   2.813
14099WAT     H242540   4.768   9.189   2.782
14100WAT      O42541   1.786   9.149   9.675
14100WAT     H142542   1.763   9.245   9.687
14100WAT     H242543   1.871   9.128   9.722
14101WAT      O42544   1.454   9.568   9.750
14101WAT     H142545   1.519   9.644   9.751
14101WAT     H242546   1.362   9.602   9.765
14102WAT      O42547   7.406   8.991   7.101
14102WAT     H142548   7.342   9.003   7.025
14102WAT     H242549   7.500   9.006   7.068
14103WAT      O42550   0.056   4.632   9.388
14103WAT     H142551   0.127   4.682   9.436
14103WAT     H242552  -0.032   4.647   9.432
14104WAT      O42553   9.829   0.109   2.687
14104WAT     H142554   9.927   0.111   2.665
14104WAT     H242555   9.816   0.134   2.783
14105WAT      O42556   8.486   8.036   6.088
14105WAT     H142557   8.574   8.070   6.120
14105WAT     H242558   8.435   8.111   6.045
14106WAT      O42559   4.469   5.367   9.868
14106WAT     H142560   4.430   5.296   9.810
14106WAT     H242561   4.558   5.395   9.831
14107WAT      O42562   7.502   7.021   4.502
14107WAT     H142563   7.566   7.012   4.579
14107WAT     H242564   7.471   7.115   4.495
14108WAT      O42565   0.469   1.224   4.472
14108WAT     H142566   0.473   1.142   4.415
14108WAT     H242567   0.388   1.278   4.447
14109WAT      O42568   6.951   8.718   2.996
14109WAT     H142569   7.042   8.717   3.038
14109WAT     H242570   6.959   8.705   2.897
14110WAT      O42571   8.849   5.965   3.615
14110WAT     H142572   8.751   5.945   3.622
14110WAT     H242573   8.890   5.905   3.546
14111WAT      O42574   3.897   1.406   5.696
14111WAT     H142575   3.995   1.410   5.675
14111WAT     H242576   3.882   1.436   5.790
14112WAT      O42577   5.495   9.441   6.901
14112WAT     H142578   5.430   9.376   6.863
14112WAT     H242579   5.588   9.415   6.874
14113WAT      O42580   7.071   1.406   3.987
14113WAT     H142581   7.151   1.453   3.950
14113WAT     H242582   7.001   1.473   4.011
14114WAT      O42583   0.613   8.117   8.444
14114WAT     H142584   0.524   8.073   8.448
14114WAT     H242585   0.674   8.075   8.511
14115WAT      O42586   2.093   5.362   6.957
14115WAT     H142587   2.164   5.294   6.969
14115WAT     H242588   2.132   5.445   6.917
14116WAT      O42589   4.202   1.099   6.133
14116WAT     H142590   4.116   1.066   6.172
14116WAT     H242591   4.213   1.063   6.040
14117WAT      O42592   3.256   2.664   7.387
14117WAT     H142593   3.344   2.620   7.370
14117WAT     H242594   3.270   2.762   7.401
14118WAT      O42595   8.132   4.113   2.362
14118WAT     H142596   8.205   4.162   2.314
14118WAT     H242597   8.058   4.092   2.298
14119WAT      O42598   4.007   8.277   0.703
14119WAT     H142599   3.930   8.328   0.741
14119WAT     H242600   4.038   8.321   0.619
14120WAT      O42601   0.826   8.488   2.409
14120WAT     H142602   0.734   8.519   2.435
14120WAT     H242603   0.878   8.468   2.492
14121WAT      O42604   7.300   8.193   2.348
14121WAT     H142605   7.295   8.155   2.441
14121WAT     H242606   7.395   8.215   2.326
14122WAT      O42607   9.039   2.321   1.918
14122WAT     H142608   9.052   2.289   2.012
14122WAT     H242609   9.112   2.285   1.861
14123WAT      O42610   8.240   5.880   3.937
14123WAT     H142611   8.298   5.924   4.005
14123WAT     H242612   8.200   5.796   3.975
14124WAT      O42613   7.832   8.768   9.658
14124WAT     H142614   7.931   8.766   9.642
14124WAT     H242615   7.800   8.677   9.684
14125WAT      O42616   0.608   9.037   5.662
14125WAT     H142617   0.575   9.001   5.749
14125WAT     H242618   0.536   9.030   5.594
14126WAT      O42619   1.388   6.175   9.391
14126WAT     H142620   1.339   6.182   9.304
14126WAT     H242621   1.417   6.081   9.406
14127WAT      O42622   3.433   8.983   9.348
14127WAT     H142623   3.431   8.948   9.441
14127WAT     H242624   3.424   9.083   9.350
14128WAT      O42625   2.287   1.823   4.056
14128WAT     H142626   2.250   1.732   4.070
14128WAT     H242627   2.355   1.843   4.127
14129WAT      O42628   9.835   3.526   0.238
14129WAT     H142629   9.816   3.523   0.140
14129WAT     H242630   9.751   3.504   0.289
14130WAT      O42631   8.581   7.319   6.812
14130WAT     H142632   8.483   7.304   6.798
14130WAT     H242633   8.595   7.372   6.896
14131WAT      O42634   5.408   9.447   8.371
14131WAT     H142635   5.477   9.415   8.435
14131WAT     H242636   5.358   9.368   8.334
14132WAT      O42637   4.502   2.467   6.740
14132WAT     H142638   4.517   2.504   6.832
14132WAT     H242639   4.410   2.490   6.709
14133WAT      O42640   7.280   6.509   4.659
14133WAT     H142641   7.324   6.546   4.741
14133WAT     H242642   7.182   6.527   4.662
14134WAT      O42643   6.485   2.845   8.970
14134WAT     H142644   6.414   2.834   8.900
14134WAT     H242645   6.473   2.777   9.042
14135WAT      O42646   1.375   5.281   5.503
14135WAT     H142647   1.307   5.209   5.518
14135WAT     H242648   1.338   5.369   5.531
14136WAT      O42649   1.166   1.948   3.626
14136WAT     H142650   1.214   1.897   3.698
14136WAT     H242651   1.221   1.946   3.542
14137WAT      O42652   8.932   0.171   9.346
14137WAT     H142653   8.933   0.081   9.389
14137WAT     H242654   8.881   0.235   9.404
14138WAT      O42655   4.205   0.558   8.260
14138WAT     H142656   4.128   0.601   8.214
14138WAT     H242657   4.206   0.587   8.356
14139WAT      O42658   6.752   2.332   9.254
14139WAT     H142659   6.813   2.329   9.333
14139WAT     H242660   6.773   2.412   9.199
14140WAT      O42661   2.875   6.013   1.419
14140WAT     H142662   2.846   6.075   1.492
14140WAT     H242663   2.884   5.921   1.455
14141WAT      O42664   6.349   8.234   7.304
14141WAT     H142665   6.433   8.210   7.353
14141WAT     H242666   6.291   8.292   7.362
14142WAT      O42667   0.662   0.018   2.300
14142WAT     H142668   0.566   0.026   2.274
14142WAT     H242669   0.670   0.002   2.398
14143WAT      O42670   8.669   2.422   6.299
14143WAT     H142671   8.672   2.323   6.281
14143WAT     H242672   8.585   2.461   6.261
14144WAT      O42673   1.645   0.801   4.493
14144WAT     H142674   1.572   0.858   4.456
14144WAT     H242675   1.612   0.752   4.573
14145WAT      O42676   2.422   8.510   0.104
14145WAT     H142677   2.500   8.572   0.113
14145WAT     H242678   2.455   8.417   0.088
14146WAT      O42679   1.848   5.700   7.791
14146WAT     H142680   1.749   5.697   7.798
14146WAT     H242681   1.883   5.778   7.842
14147WAT      O42682   4.276   8.383   6.178
14147WAT     H142683   4.342   8.427   6.116
14147WAT     H242684   4.272   8.433   6.264
14148WAT      O42685   8.096   9.012   9.210
14148WAT     H142686   8.194   8.999   9.221
14148WAT     H242687   8.078   9.051   9.120
14149WAT      O42688   6.971   6.595   7.804
14149WAT     H142689   7.013   6.528   7.744
14149WAT     H242690   6.872   6.598   7.786
14150WAT      O42691   8.372   4.233   6.769
14150WAT     H142692   8.463   4.274   6.776
14150WAT     H242693   8.335   4.219   6.861
14151WAT      O42694   1.716   9.099   6.637
14151WAT     H142695   1.814   9.119   6.649
14151WAT     H242696   1.698   9.004   6.665
14152WAT      O42697   0.534   5.968   1.515
14152WAT     H142698   0.505   5.897   1.579
14152WAT     H242699   0.535   6.057   1.561
14153WAT      O42700   3.728   1.907   0.053
14153WAT     H142701   3.631   1.927   0.061
14153WAT     H242702   3.749   1.821   0.101
14154WAT      O42703   0.827   3.881   7.844
14154WAT     H142704   0.788   3.873   7.753
14154WAT     H242705   0.790   3.963   7.889
14155WAT      O42706   6.466   8.805   5.859
14155WAT     H142707   6.453   8.801   5.760
14155WAT     H242708   6.383   8.773   5.905
14156WAT      O42709   3.803   1.880   8.502
14156WAT     H142710   3.817   1.790   8.543
14156WAT     H242711   3.891   1.916   8.470
14157WAT      O42712   7.341   5.815   7.822
14157WAT     H142713   7.281   5.789   7.747
14157WAT     H242714   7.408   5.882   7.790
14158WAT      O42715   5.435   8.446   7.450
14158WAT     H142716   5.448   8.370   7.514
14158WAT     H242717   5.372   8.417   7.377
14159WAT      O42718   8.528   5.105   0.975
14159WAT     H142719   8.546   5.101   0.877
14159WAT     H242720   8.513   5.200   1.003
14160WAT      O42721   1.636   3.960   4.358
14160WAT     H142722   1.718   3.981   4.304
14160WAT     H242723   1.618   3.861   4.354
14161WAT      O42724   2.514   0.535   8.393
14161WAT     H142725   2.599   0.589   8.392
14161WAT     H242726   2.436   0.596   8.384
14162WAT      O42727   1.865   1.541   7.787
14162WAT     H142728   1.796   1.547   7.858
14162WAT     H242729   1.902   1.632   7.769
14163WAT      O42730   2.845   1.189   6.146
14163WAT     H142731   2.798   1.102   6.160
14163WAT     H242732   2.897   1.185   6.060
14164WAT      O42733   3.046   1.826   5.486
14164WAT     H142734   3.006   1.845   5.576
14164WAT     H242735   3.112   1.898   5.463
14165WAT      O42736   6.188   7.705   0.891
14165WAT     H142737   6.156   7.660   0.975
14165WAT     H242738   6.247   7.782   0.916
14166WAT      O42739   0.142   7.525   8.333
14166WAT     H142740   0.049   7.559   8.317
14166WAT     H242741   0.140   7.458   8.408
14167WAT      O42742   3.801   1.054   8.104
14167WAT     H142743   3.755   1.011   8.027
14167WAT     H242744   3.748   1.133   8.135
14168WAT      O42745   8.564   5.761   6.776
14168WAT     H142746   8.610   5.767   6.687
14168WAT     H242747   8.467   5.779   6.765
14169WAT      O42748   0.859   7.217   5.598
14169WAT     H142749   0.851   7.125   5.636
14169WAT     H242750   0.838   7.215   5.500
14170WAT      O42751   1.673   8.639   1.604
14170WAT     H142752   1.654   8.734   1.625
14170WAT     H242753   1.612   8.607   1.531
14171WAT      O42754   5.632   3.842   1.340
14171WAT     H142755   5.640   3.763   1.401
14171WAT     H242756   5.643   3.926   1.393
14172WAT      O42757   8.904   7.908   5.351
14172WAT     H142758   8.972   7.852   5.398
14172WAT     H242759   8.948   7.959   5.278
14173WAT      O42760   3.748   2.249   9.512
14173WAT     H142761   3.657   2.255   9.552
14173WAT     H242762   3.816   2.280   9.579
14174WAT      O42763   7.058   2.924   3.958
14174WAT     H142764   6.998   2.863   4.010
14174WAT     H242765   7.091   2.878   3.876
14175WAT      O42766   6.754   3.804   6.607
14175WAT     H142767   6.682   3.872   6.596
14175WAT     H242768   6.832   3.827   6.548
14176WAT      O42769   4.103   6.627   6.868
14176WAT     H142770   4.065   6.540   6.838
14176WAT     H242771   4.164   6.664   6.797
14177WAT      O42772   0.394   0.075   5.155
14177WAT     H142773   0.409   0.081   5.057
14177WAT     H242774   0.480   0.091   5.203
14178WAT      O42775   3.379   5.564   0.118
14178WAT     H142776   3.412   5.480   0.162
14178WAT     H242777   3.327   5.541   0.036
14179WAT      O42778   2.221   1.717   8.344
14179WAT     H142779   2.299   1.699   8.284
14179WAT     H242780   2.195   1.633   8.391
14180WAT      O42781   1.357   0.332   5.591
14180WAT     H142782   1.309   0.405   5.637
14180WAT     H242783   1.383   0.361   5.499
14181WAT      O42784   7.029   5.573   9.173
14181WAT     H142785   6.986   5.567   9.264
14181WAT     H242786   7.009   5.661   9.132
14182WAT      O42787   8.005   6.993   5.067
14182WAT     H142788   7.905   6.996   5.061
14182WAT     H242789   8.031   6.959   5.158
14183WAT      O42790   4.008   0.463   5.783
14183WAT     H142791   4.014   0.376   5.833
14183WAT     H242792   3.928   0.462   5.723
14184WAT      O42793   6.069   2.615   6.751
14184WAT     H142794   6.160   2.589   6.721
14184WAT     H242795   6.054   2.580   6.844
14185WAT      O42796   2.787   2.935   6.056
14185WAT     H142797   2.839   2.966   5.976
14185WAT     H242798   2.816   2.988   6.136
14186WAT      O42799   3.962   3.662   4.644
14186WAT     H142800   4.000   3.572   4.620
14186WAT     H242801   3.932   3.708   4.561
14187WAT      O42802   8.186   8.526   6.311
14187WAT     H142803   8.170   8.432   6.281
14187WAT     H242804   8.251   8.570   6.248
14188WAT      O42805   4.795   3.410   3.105
14188WAT     H142806   4.855   3.386   3.028
14188WAT     H242807   4.748   3.496   3.085
14189WAT      O42808   7.554   6.099   6.158
14189WAT     H142809   7.467   6.147   6.154
14189WAT     H242810   7.616   6.149   6.219
14190WAT      O42811   1.261   2.015   9.329
14190WAT     H142812   1.314   1.980   9.406
14190WAT     H242813   1.200   1.943   9.295
14191WAT      O42814   2.067   5.412   9.653
14191WAT     H142815   2.037   5.468   9.730
14191WAT     H242816   2.083   5.470   9.573
14192WAT      O42817   0.990   4.818   1.753
14192WAT     H142818   0.994   4.868   1.667
14192WAT     H242819   1.073   4.835   1.806
14193WAT      O42820   0.530   7.019   1.138
14193WAT     H142821   0.617   6.990   1.178
14193WAT     H242822   0.457   7.007   1.205
14194WAT      O42823   9.408   7.143   4.146
14194WAT     H142824   9.500   7.116   4.173
14194WAT     H242825   9.412   7.226   4.090
14195WAT      O42826   4.522   4.207   7.474
14195WAT     H142827   4.426   4.198   7.502
14195WAT     H242828   4.531   4.183   7.378
14196WAT      O42829   3.673   2.962   3.288
14196WAT     H142830   3.691   2.984   3.384
14196WAT     H242831   3.745   2.901   3.255
14197WAT      O42832   1.803   5.526   9.632
14197WAT     H142833   1.856   5.444   9.615
14197WAT     H242834   1.790   5.576   9.546
14198WAT      O42835   0.944   0.771   4.174
14198WAT     H142836   0.946   0.683   4.222
14198WAT     H242837   0.853   0.812   4.181
14199WAT      O42838   4.053   0.927   6.642
14199WAT     H142839   4.079   1.020   6.668
14199WAT     H242840   4.109   0.862   6.693
14200WAT      O42841   6.493   6.734   9.565
14200WAT     H142842   6.554   6.786   9.506
14200WAT     H242843   6.422   6.794   9.602
14201WAT      O42844   4.831   4.241   4.516
14201WAT     H142845   4.743   4.275   4.549
14201WAT     H242846   4.897   4.316   4.514
14202WAT      O42847   4.541   7.337   5.190
14202WAT     H142848   4.593   7.290   5.118
14202WAT     H242849   4.467   7.277   5.222
14203WAT      O42850   4.320   0.077   7.636
14203WAT     H142851   4.366   0.003   7.587
14203WAT     H242852   4.389   0.135   7.679
14204WAT      O42853   1.371   0.375   8.210
14204WAT     H142854   1.286   0.335   8.242
14204WAT     H242855   1.387   0.349   8.115
14205WAT      O42856   4.620   0.756   8.285
14205WAT     H142857   4.554   0.829   8.304
14205WAT     H242858   4.582   0.693   8.217
14206WAT      O42859   2.115   7.736   9.422
14206WAT     H142860   2.203   7.704   9.388
14206WAT     H242861   2.127   7.773   9.514
14207WAT      O42862   8.080   6.899   4.539
14207WAT     H142863   8.163   6.937   4.579
14207WAT     H242864   8.085   6.906   4.439
14208WAT      O42865   4.612   6.016   4.162
14208WAT     H142866   4.565   6.041   4.247
14208WAT     H242867   4.600   5.918   4.146
14209WAT      O42868   9.824   2.523   2.820
14209WAT     H142869   9.725   2.523   2.832
14209WAT     H242870   9.848   2.474   2.736
14210WAT      O42871   6.761   1.733   9.762
14210WAT     H142872   6.842   1.789   9.742
14210WAT     H242873   6.742   1.674   9.684
14211WAT      O42874   5.186   3.244   0.925
14211WAT     H142875   5.089   3.260   0.941
14211WAT     H242876   5.238   3.275   1.005
14212WAT      O42877   1.850   1.247   1.782
14212WAT     H142878   1.825   1.328   1.729
14212WAT     H242879   1.778   1.225   1.847
14213WAT      O42880   5.733   2.373   9.430
14213WAT     H142881   5.639   2.340   9.423
14213WAT     H242882   5.762   2.372   9.526
14214WAT      O42883   1.232   7.328   7.480
14214WAT     H142884   1.160   7.285   7.425
14214WAT     H242885   1.206   7.423   7.499
14215WAT      O42886   7.064   8.120   6.298
14215WAT     H142887   7.008   8.198   6.324
14215WAT     H242888   7.147   8.153   6.253
14216WAT      O42889   6.330   1.450   7.785
14216WAT     H142890   6.322   1.518   7.858
14216WAT     H242891   6.426   1.424   7.774
14217WAT      O42892   0.436   3.372   3.303
14217WAT     H142893   0.491   3.395   3.223
14217WAT     H242894   0.460   3.280   3.335
14218WAT      O42895   6.124   4.491   1.797
14218WAT     H142896   6.146   4.394   1.791
14218WAT     H242897   6.066   4.517   1.719
14219WAT      O42898   0.842   1.348   2.615
14219WAT     H142899   0.752   1.311   2.636
14219WAT     H242900   0.846   1.369   2.517
14220WAT      O42901   1.906   3.308   6.985
14220WAT     H142902   2.005   3.317   6.977
14220WAT     H242903   1.883   3.261   7.070
14221WAT      O42904   9.756   6.268   7.819
14221WAT     H142905   9.736   6.279   7.722
14221WAT     H242906   9.818   6.190   7.832
14222WAT      O42907   1.116   3.630   6.788
14222WAT     H142908   1.151   3.681   6.710
14222WAT     H242909   1.134   3.680   6.872
14223WAT      O42910   2.496   8.570   9.420
14223WAT     H142911   2.580   8.624   9.419
14223WAT     H242912   2.440   8.595   9.498
14224WAT      O42913   4.615   7.210   7.668
14224WAT     H142914   4.689   7.267   7.631
14224WAT     H242915   4.570   7.162   7.593
14225WAT      O42916   2.773   8.440   7.063
14225WAT     H142917   2.845   8.371   7.054
14225WAT     H242918   2.683   8.396   7.053
14226WAT      O42919   8.675   5.452   9.157
14226WAT     H142920   8.613   5.375   9.176
14226WAT     H242921   8.631   5.538   9.182
14227WAT      O42922   4.220   5.617   3.991
14227WAT     H142923   4.140   5.676   4.000
14227WAT     H242924   4.268   5.639   3.906
14228WAT      O42925   7.014   8.123   2.732
14228WAT     H142926   7.014   8.214   2.692
14228WAT     H242927   7.005   8.130   2.832
14229WAT      O42928   3.936   0.528   0.620
14229WAT     H142929   3.989   0.502   0.701
14229WAT     H242930   3.867   0.595   0.646
14230WAT      O42931   7.483   9.047   8.013
14230WAT     H142932   7.417   9.095   7.954
14230WAT     H242933   7.509   9.106   8.089
14231WAT      O42934   3.196   1.529   6.398
14231WAT     H142935   3.176   1.444   6.446
14231WAT     H242936   3.198   1.605   6.464
14232WAT      O42937   1.364   4.710   0.225
14232WAT     H142938   1.388   4.797   0.181
14232WAT     H242939   1.376   4.635   0.160
14233WAT      O42940   8.358   7.839   0.739
14233WAT     H142941   8.293   7.768   0.711
14233WAT     H242942   8.314   7.928   0.735
14234WAT      O42943   5.097   4.306   8.512
14234WAT     H142944   5.017   4.302   8.572
14234WAT     H242945   5.122   4.213   8.485
14235WAT      O42946   1.887   4.315   5.916
14235WAT     H142947   1.912   4.412   5.920
14235WAT     H242948   1.961   4.263   5.873
14236WAT      O42949   9.074   7.489   3.832
14236WAT     H142950   9.026   7.443   3.757
14236WAT     H242951   9.172   7.491   3.813
14237WAT      O42952   4.904   6.738   7.130
14237WAT     H142953   4.966   6.660   7.137
14237WAT     H242954   4.957   6.823   7.138
14238WAT      O42955   0.794   2.799   6.353
14238WAT     H142956   0.843   2.767   6.272
14238WAT     H242957   0.701   2.823   6.328
14239WAT      O42958   6.127   3.817   4.076
14239WAT     H142959   6.035   3.846   4.103
14239WAT     H242960   6.127   3.720   4.054
14240WAT      O42961   5.891   1.734   0.536
14240WAT     H142962   5.987   1.712   0.551
14240WAT     H242963   5.882   1.785   0.450
14241WAT      O42964   6.954   8.005   0.280
14241WAT     H142965   7.054   8.002   0.273
14241WAT     H242966   6.920   8.091   0.242
14242WAT      O42967   8.407   7.442   0.673
14242WAT     H142968   8.463   7.524   0.689
14242WAT     H242969   8.353   7.455   0.589
14243WAT      O42970   9.659   1.084   0.565
14243WAT     H142971   9.712   1.155   0.519
14243WAT     H242972   9.713   1.000   0.572
14244WAT      O42973   5.532   1.886   3.735
14244WAT     H142974   5.517   1.903   3.833
14244WAT     H242975   5.585   1.802   3.724
14245WAT      O42976   8.651   2.845   4.433
14245WAT     H142977   8.596   2.804   4.360
14245WAT     H242978   8.606   2.832   4.521
14246WAT      O42979   0.596   2.668   1.242
14246WAT     H142980   0.672   2.685   1.304
14246WAT     H242981   0.538   2.749   1.238
14247WAT      O42982   4.712   6.427   1.028
14247WAT     H142983   4.661   6.506   0.994
14247WAT     H242984   4.687   6.408   1.122
14248WAT      O42985   5.922   9.826   5.510
14248WAT     H142986   5.856   9.901   5.502
14248WAT     H242987   6.007   9.851   5.464
14249WAT      O42988   4.039   8.782   6.935
14249WAT     H142989   4.018   8.866   6.985
14249WAT     H242990   4.135   8.758   6.948
14250WAT      O42991   5.601   1.334   6.252
14250WAT     H142992   5.518   1.355   6.305
14250WAT     H242993   5.667   1.408   6.265
14251WAT      O42994   6.948   1.313   3.422
14251WAT     H142995   6.894   1.297   3.340
14251WAT     H242996   7.042   1.284   3.406
14252WAT      O42997   0.334   8.847   1.487
14252WAT     H142998   0.422   8.836   1.533
14252WAT     H242999   0.268   8.783   1.526
14253WAT      O43000   3.540   8.375   6.024
14253WAT     H143001   3.501   8.318   6.097
14253WAT     H243002   3.521   8.471   6.044
14254WAT      O43003   6.533   1.296   8.228
14254WAT     H143004   6.456   1.358   8.212
14254WAT     H243005   6.517   1.244   8.312
14255WAT      O43006   1.017   0.728   2.476
14255WAT     H143007   0.991   0.653   2.415
14255WAT     H243008   1.071   0.691   2.552
14256WAT      O43009   6.014   1.765   6.655
14256WAT     H143010   5.953   1.693   6.688
14256WAT     H243011   6.052   1.815   6.733
14257WAT      O43012   1.914   0.663   5.074
14257WAT     H143013   2.003   0.704   5.096
14257WAT     H243014   1.892   0.680   4.978
14258WAT      O43015   0.263   2.833   7.516
14258WAT     H143016   0.306   2.798   7.432
14258WAT     H243017   0.280   2.770   7.591
14259WAT      O43018   7.193   5.975   3.236
14259WAT     H143019   7.247   6.018   3.309
14259WAT     H243020   7.155   5.889   3.270
14260WAT      O43021   8.833   4.288   3.512
14260WAT     H143022   8.755   4.260   3.566
14260WAT     H243023   8.813   4.376   3.467
14261WAT      O43024   1.101   6.148   6.150
14261WAT     H143025   1.147   6.117   6.233
14261WAT     H243026   1.169   6.174   6.081
14262WAT      O43027   6.292   0.278   3.514
14262WAT     H143028   6.360   0.257   3.444
14262WAT     H243029   6.282   0.200   3.577
14263WAT      O43030   9.104   3.245   4.073
14263WAT     H143031   9.084   3.176   4.143
14263WAT     H243032   9.198   3.234   4.041
14264WAT      O43033   3.378   4.776   0.145
14264WAT     H143034   3.452   4.747   0.205
14264WAT     H243035   3.382   4.875   0.132
14265WAT      O43036   5.983   2.888   3.536
14265WAT     H143037   5.915   2.844   3.477
14265WAT     H243038   5.936   2.939   3.609
14266WAT      O43039   8.662   7.580   0.444
14266WAT     H143040   8.709   7.645   0.383
14266WAT     H243041   8.612   7.513   0.389
14267WAT      O43042   3.007   8.522   6.291
14267WAT     H143043   3.066   8.458   6.340
14267WAT     H243044   3.055   8.557   6.210
14268WAT      O43045   6.746   2.334   6.628
14268WAT     H143046   6.781   2.403   6.691
14268WAT     H243047   6.802   2.251   6.635
14269WAT      O43048   3.147   2.720   0.095
14269WAT     H143049   3.111   2.694   0.185
14269WAT     H243050   3.159   2.638   0.039
14270WAT      O43051   9.199   8.464   5.519
14270WAT     H143052   9.159   8.376   5.546
14270WAT     H243053   9.266   8.492   5.588
14271WAT      O43054   6.403   1.046   9.287
14271WAT     H143055   6.413   1.133   9.335
14271WAT     H243056   6.493   1.005   9.272
14272WAT      O43057   1.339   3.220   4.301
14272WAT     H143058   1.306   3.291   4.240
14272WAT     H243059   1.364   3.260   4.389
14273WAT      O43060   6.212   1.557   0.265
14273WAT     H143061   6.287   1.566   0.330
14273WAT     H243062   6.142   1.497   0.303
14274WAT      O43063   7.218   5.530   8.062
14274WAT     H143064   7.306   5.577   8.059
14274WAT     H243065   7.231   5.433   8.044
14275WAT      O43066   1.375   6.957   4.372
14275WAT     H143067   1.390   6.862   4.400
14275WAT     H243068   1.397   6.966   4.274
14276WAT      O43069   4.174   5.536   8.891
14276WAT     H143070   4.189   5.608   8.958
14276WAT     H243071   4.193   5.447   8.933
14277WAT      O43072   0.486   8.433   4.361
14277WAT     H143073   0.387   8.443   4.352
14277WAT     H243074   0.531   8.476   4.282
14278WAT      O43075   7.302   5.629   3.009
14278WAT     H143076   7.261   5.604   2.921
14278WAT     H243077   7.319   5.727   3.011
14279WAT      O43078   1.030   1.901   1.825
14279WAT     H143079   1.032   1.823   1.762
14279WAT     H243080   0.936   1.920   1.851
14280WAT      O43081   0.477   0.683   3.350
14280WAT     H143082   0.549   0.644   3.291
14280WAT     H243083   0.400   0.711   3.293
14281WAT      O43084   7.342   9.687   8.108
14281WAT     H143085   7.426   9.739   8.091
14281WAT     H243086   7.335   9.613   8.041
14282WAT      O43087   5.759   2.108   6.181
14282WAT     H143088   5.779   2.013   6.159
14282WAT     H243089   5.674   2.136   6.137
14283WAT      O43090   0.488   6.586   3.045
14283WAT     H143091   0.501   6.611   3.140
14283WAT     H243092   0.491   6.668   2.988
14284WAT      O43093   6.586   6.553   4.165
14284WAT     H143094   6.668   6.607   4.146
14284WAT     H243095   6.516   6.574   4.097
14285WAT      O43096   5.856   6.816   3.259
14285WAT     H143097   5.930   6.873   3.224
14285WAT     H243098   5.768   6.858   3.238
14286WAT      O43099   0.468   5.180   5.066
14286WAT     H143100   0.415   5.212   5.145
14286WAT     H243101   0.558   5.149   5.097
14287WAT      O43102   4.990   2.757   7.591
14287WAT     H143103   5.014   2.815   7.514
14287WAT     H243104   5.043   2.785   7.671
14288WAT      O43105   6.375   6.646   5.224
14288WAT     H143106   6.290   6.597   5.249
14288WAT     H243107   6.452   6.584   5.234
14289WAT      O43108   3.258   5.680   5.383
14289WAT     H143109   3.318   5.707   5.459
14289WAT     H243110   3.239   5.759   5.325
14290WAT      O43111   6.472   7.433   5.983
14290WAT     H143112   6.429   7.478   6.061
14290WAT     H243113   6.421   7.350   5.960
14291WAT      O43114   1.109   7.023   0.194
14291WAT     H143115   1.206   7.001   0.205
14291WAT     H243116   1.063   6.951   0.143
14292WAT      O43117   1.238   3.782   6.534
14292WAT     H143118   1.211   3.876   6.552
14292WAT     H243119   1.328   3.781   6.491
14293WAT      O43120   4.338   0.107   3.759
14293WAT     H143121   4.261   0.144   3.810
14293WAT     H243122   4.422   0.117   3.814
14294WAT      O43123   2.317   3.696   2.929
14294WAT     H143124   2.282   3.753   2.854
14294WAT     H243125   2.412   3.672   2.910
14295WAT      O43126   3.028   0.364   6.037
14295WAT     H143127   2.946   0.395   5.989
14295WAT     H243128   3.085   0.443   6.060
14296WAT      O43129   8.120   2.264   5.251
14296WAT     H143130   8.159   2.240   5.162
14296WAT     H243131   8.020   2.255   5.247
14297WAT      O43132   6.180   4.518   2.356
14297WAT     H143133   6.110   4.544   2.289
14297WAT     H243134   6.204   4.598   2.410
14298WAT      O43135   6.422   5.528   0.978
14298WAT     H143136   6.435   5.470   0.898
14298WAT     H243137   6.341   5.585   0.964
14299WAT      O43138   5.444   6.050   7.315
14299WAT     H143139   5.386   6.017   7.390
14299WAT     H243140   5.530   6.085   7.352
14300WAT      O43141   7.870   6.231   5.962
14300WAT     H143142   7.901   6.183   6.045
14300WAT     H243143   7.926   6.313   5.949
14301WAT      O43144   4.473   2.831   7.729
14301WAT     H143145   4.433   2.908   7.680
14301WAT     H243146   4.404   2.760   7.742
14302WAT      O43147   8.081   3.488   2.460
14302WAT     H143148   8.073   3.408   2.401
14302WAT     H243149   8.143   3.468   2.536
14303WAT      O43150   5.425   1.459   5.980
14303WAT     H143151   5.326   1.463   5.968
14303WAT     H243152   5.446   1.424   6.071
14304WAT      O43153   5.463   9.176   6.703
14304WAT     H143154   5.395   9.125   6.651
14304WAT     H243155   5.417   9.223   6.779
14305WAT      O43156   0.657   7.589   0.740
14305WAT     H143157   0.634   7.681   0.772
14305WAT     H243158   0.736   7.593   0.680
14306WAT      O43159   3.690   3.612   7.322
14306WAT     H143160   3.720   3.579   7.232
14306WAT     H243161   3.679   3.535   7.384
14307WAT      O43162   7.303   0.092   0.799
14307WAT     H143163   7.339   0.125   0.886
14307WAT     H243164   7.254   0.006   0.814
14308WAT      O43165   4.413   9.665   3.531
14308WAT     H143166   4.446   9.759   3.538
14308WAT     H243167   4.411   9.637   3.434
14309WAT      O43168   2.674   3.751   5.592
14309WAT     H143169   2.591   3.779   5.545
14309WAT     H243170   2.753   3.792   5.547
14310WAT      O43171   9.391   0.406   5.675
14310WAT     H143172   9.340   0.471   5.619
14310WAT     H243173   9.391   0.316   5.631
14311WAT      O43174   1.934   8.945   3.792
14311WAT     H143175   1.995   8.869   3.814
14311WAT     H243176   1.926   8.953   3.693
14312WAT      O43177   2.684   6.792   1.440
14312WAT     H143178   2.784   6.797   1.438
14312WAT     H243179   2.655   6.705   1.481
14313WAT      O43180   3.273   2.150   3.340
14313WAT     H143181   3.248   2.055   3.326
14313WAT     H243182   3.208   2.210   3.293
14314WAT      O43183   7.893   8.902   3.830
14314WAT     H143184   7.835   8.982   3.816
14314WAT     H243185   7.977   8.929   3.877
14315WAT      O43186   6.993   9.700   8.227
14315WAT     H143187   7.060   9.633   8.258
14315WAT     H243188   7.040   9.776   8.182
14316WAT      O43189   1.011   7.051   1.041
14316WAT     H143190   0.984   7.140   1.005
14316WAT     H243191   1.061   7.063   1.127
14317WAT      O43192   4.401   5.965   6.053
14317WAT     H143193   4.341   5.997   6.127
14317WAT     H243194   4.496   5.966   6.085
14318WAT      O43195   3.259   6.654   0.246
14318WAT     H143196   3.247   6.717   0.323
14318WAT     H243197   3.288   6.565   0.280
14319WAT      O43198   4.158   4.222   3.318
14319WAT     H143199   4.194   4.295   3.375
14319WAT     H243200   4.130   4.144   3.375
14320WAT      O43201   2.528   3.584   5.740
14320WAT     H143202   2.554   3.498   5.784
14320WAT     H243203   2.611   3.633   5.712
14321WAT      O43204   9.146   3.657   2.316
14321WAT     H143205   9.133   3.716   2.396
14321WAT     H243206   9.241   3.627   2.311
14322WAT      O43207   5.659   9.436   7.726
14322WAT     H143208   5.573   9.438   7.777
14322WAT     H243209   5.649   9.489   7.642
14323WAT      O43210   4.630   7.277   2.881
14323WAT     H143211   4.588   7.280   2.790
14323WAT     H243212   4.716   7.228   2.876
14324WAT      O43213   2.616   0.049   1.559
14324WAT     H143214   2.618   0.148   1.572
14324WAT     H243215   2.677   0.005   1.625
14325WAT      O43216   2.880   3.031   5.819
14325WAT     H143217   2.847   3.115   5.777
14325WAT     H243218   2.980   3.029   5.816
14326WAT      O43219   2.451   1.438   8.312
14326WAT     H143220   2.533   1.381   8.317
14326WAT     H243221   2.394   1.408   8.236
14327WAT      O43222   8.784   7.863   2.326
14327WAT     H143223   8.833   7.942   2.288
14327WAT     H243224   8.838   7.780   2.310
14328WAT      O43225   3.392   9.432   8.655
14328WAT     H143226   3.477   9.424   8.708
14328WAT     H243227   3.377   9.528   8.631
14329WAT      O43228   9.653   7.277   9.724
14329WAT     H143229   9.639   7.219   9.805
14329WAT     H243230   9.692   7.222   9.650
14330WAT      O43231   5.257   2.471   7.149
14330WAT     H143232   5.277   2.512   7.238
14330WAT     H243233   5.266   2.372   7.155
14331WAT      O43234   6.457   3.941   6.266
14331WAT     H143235   6.488   4.015   6.207
14331WAT     H243236   6.376   3.898   6.225
14332WAT      O43237   2.799   5.111   7.408
14332WAT     H143238   2.879   5.159   7.372
14332WAT     H243239   2.768   5.044   7.340
14333WAT      O43240   3.345   1.022   4.943
14333WAT     H143241   3.308   0.930   4.935
14333WAT     H243242   3.297   1.083   4.880
14334WAT      O43243   2.291   5.143   1.988
14334WAT     H143244   2.325   5.075   2.054
14334WAT     H243245   2.232   5.098   1.921
14335WAT      O43246   0.346   9.828   6.570
14335WAT     H143247   0.266   9.832   6.630
14335WAT     H243248   0.425   9.796   6.621
14336WAT      O43249   1.589   0.901   2.091
14336WAT     H143250   1.533   0.898   2.173
14336WAT     H243251   1.682   0.870   2.112
14337WAT      O43252   9.823   6.477   2.070
14337WAT     H143253   9.865   6.387   2.056
14337WAT     H243254   9.877   6.546   2.022
14338WAT      O43255   0.300   7.033   5.402
14338WAT     H143256   0.340   7.095   5.334
14338WAT     H243257   0.367   7.012   5.472
14339WAT      O43258   8.760   5.402   2.788
14339WAT     H143259   8.765   5.458   2.705
14339WAT     H243260   8.782   5.307   2.766
14340WAT      O43261   0.245   3.860   3.887
14340WAT     H143262   0.208   3.921   3.958
14340WAT     H243263   0.199   3.772   3.892
14341WAT      O43264   6.383   3.087   6.680
14341WAT     H143265   6.284   3.076   6.686
14341WAT     H243266   6.428   3.008   6.722
14342WAT      O43267   1.338   7.098   0.959
14342WAT     H143268   1.407   7.139   1.019
14342WAT     H243269   1.341   6.999   0.969
14343WAT      O43270   9.347   7.991   8.194
14343WAT     H143271   9.289   8.063   8.155
14343WAT     H243272   9.388   7.938   8.120
14344WAT      O43273   0.497   7.212   8.678
14344WAT     H143274   0.495   7.291   8.739
14344WAT     H243275   0.574   7.153   8.702
14345WAT      O43276   4.860   9.106   4.037
14345WAT     H143277   4.835   9.092   3.941
14345WAT     H243278   4.864   9.203   4.057
14346WAT      O43279   9.002   8.004   3.458
14346WAT     H143280   9.074   8.073   3.469
14346WAT     H243281   8.927   8.042   3.404
14347WAT      O43282   7.808   6.208   0.810
14347WAT     H143283   7.773   6.121   0.847
14347WAT     H243284   7.847   6.262   0.885
14348WAT      O43285   2.497   5.418   6.111
14348WAT     H143286   2.564   5.352   6.145
14348WAT     H243287   2.410   5.404   6.157
14349WAT      O43288   4.704   2.896   6.362
14349WAT     H143289   4.630   2.958   6.337
14349WAT     H243290   4.743   2.925   6.450
14350WAT      O43291   3.846   5.211   5.579
14350WAT     H143292   3.910   5.286   5.562
14350WAT     H243293   3.811   5.177   5.491
14351WAT      O43294   2.847   2.950   3.756
14351WAT     H143295   2.832   2.857   3.788
14351WAT     H243296   2.896   3.002   3.825
14352WAT      O43297   2.277   1.010   6.994
14352WAT     H143298   2.260   0.920   6.955
14352WAT     H243299   2.244   1.081   6.932
14353WAT      O43300   6.342   4.688   3.894
14353WAT     H143301   6.311   4.699   3.800
14353WAT     H243302   6.279   4.733   3.957
14354WAT      O43303   2.357   6.038   5.565
14354WAT     H143304   2.381   6.135   5.568
14354WAT     H243305   2.387   5.993   5.650
14355WAT      O43306   1.851   6.473   0.794
14355WAT     H143307   1.751   6.476   0.789
14355WAT     H243308   1.878   6.408   0.865
14356WAT      O43309   1.036   5.841   5.242
14356WAT     H143310   1.074   5.928   5.273
14356WAT     H243311   1.101   5.768   5.263
14357WAT      O43312   6.967   2.051   7.755
14357WAT     H143313   6.928   1.990   7.686
14357WAT     H243314   7.064   2.029   7.767
14358WAT      O43315   7.663   0.362   8.897
14358WAT     H143316   7.706   0.451   8.912
14358WAT     H243317   7.576   0.374   8.849
14359WAT      O43318   8.208   9.175   4.961
14359WAT     H143319   8.199   9.137   4.869
14359WAT     H243320   8.260   9.261   4.957
14360WAT      O43321   9.349   4.971   1.913
14360WAT     H143322   9.294   4.893   1.884
14360WAT     H243323   9.429   4.939   1.964
14361WAT      O43324   8.709   9.664   5.446
14361WAT     H143325   8.612   9.684   5.431
14361WAT     H243326   8.745   9.612   5.369
14362WAT      O43327   6.670   9.586   6.752
14362WAT     H143328   6.577   9.607   6.721
14362WAT     H243329   6.669   9.500   6.804
14363WAT      O43330   3.306   0.093   1.085
14363WAT     H143331   3.212   0.125   1.100
14363WAT     H243332   3.310  -0.005   1.101
14364WAT      O43333   7.304   1.057   8.410
14364WAT     H143334   7.359   0.975   8.426
14364WAT     H243335   7.341   1.108   8.333
14365WAT      O43336   2.067   9.795   5.448
14365WAT     H143337   2.121   9.879   5.451
14365WAT     H243338   2.114   9.723   5.498
14366WAT      O43339   0.129   3.874   0.303
14366WAT     H143340   0.071   3.954   0.296
14366WAT     H243341   0.101   3.819   0.382
14367WAT      O43342   6.058   2.334   4.279
14367WAT     H143343   6.095   2.247   4.245
14367WAT     H243344   5.958   2.329   4.284
14368WAT      O43345   8.952   3.896   3.171
14368WAT     H143346   8.955   3.901   3.071
14368WAT     H243347   8.869   3.941   3.205
14369WAT      O43348   1.578   7.933   3.845
14369WAT     H143349   1.641   7.894   3.779
14369WAT     H243350   1.598   7.896   3.936
14370WAT      O43351   0.220   5.558   3.540
14370WAT     H143352   0.147   5.543   3.474
14370WAT     H243353   0.308   5.533   3.499
14371WAT      O43354   6.534   5.502   7.799
14371WAT     H143355   6.556   5.482   7.895
14371WAT     H243356   6.440   5.537   7.794
14372WAT      O43357   5.642   3.386   6.121
14372WAT     H143358   5.660   3.446   6.043
14372WAT     H243359   5.545   3.364   6.125
14373WAT      O43360   3.206   3.873   5.753
14373WAT     H143361   3.256   3.955   5.780
14373WAT     H243362   3.238   3.795   5.806
14374WAT      O43363   1.218   1.329   6.813
14374WAT     H143364   1.200   1.379   6.728
14374WAT     H243365   1.215   1.231   6.796
14375WAT      O43366   7.534   2.630   1.519
14375WAT     H143367   7.455   2.569   1.528
14375WAT     H243368   7.613   2.590   1.566
14376WAT      O43369   0.292   3.662   9.744
14376WAT     H143370   0.305   3.747   9.693
14376WAT     H243371   0.249   3.682   9.832
14377WAT      O43372   2.049   4.928   4.978
14377WAT     H143373   2.144   4.895   4.973
14377WAT     H243374   2.046   5.025   4.955
14378WAT      O43375   4.988   5.814   6.998
14378WAT     H143376   5.022   5.764   6.918
14378WAT     H243377   5.043   5.789   7.078
14379WAT      O43378   7.010   4.559   3.488
14379WAT     H143379   6.935   4.580   3.550
14379WAT     H243380   6.973   4.521   3.403
14380WAT      O43381   7.628   9.325   7.122
14380WAT     H143382   7.717   9.279   7.124
14380WAT     H243383   7.622   9.391   7.196
14381WAT      O43384   0.688   2.205   6.475
14381WAT     H143385   0.735   2.125   6.436
14381WAT     H243386   0.661   2.185   6.569
14382WAT      O43387   3.218   4.552   0.185
14382WAT     H143388   3.292   4.616   0.165
14382WAT     H243389   3.177   4.575   0.273
14383WAT      O43390   1.407   9.222   4.290
14383WAT     H143391   1.427   9.299   4.349
14383WAT     H243392   1.486   9.160   4.287
14384WAT      O43393   7.713   3.617   1.836
14384WAT     H143394   7.680   3.711   1.844
14384WAT     H243395   7.777   3.598   1.911
14385WAT      O43396   7.318   0.036   2.551
14385WAT     H143397   7.219   0.046   2.541
14385WAT     H243398   7.339  -0.059   2.572
14386WAT      O43399   1.470   0.240   7.516
14386WAT     H143400   1.421   0.171   7.569
14386WAT     H243401   1.501   0.201   7.430
14387WAT      O43402   6.351   3.341   1.330
14387WAT     H143403   6.276   3.313   1.391
14387WAT     H243404   6.369   3.268   1.264
14388WAT      O43405   6.002   6.989   8.852
14388WAT     H143406   5.947   6.909   8.876
14388WAT     H243407   5.976   7.023   8.761
14389WAT      O43408   1.842   3.367   0.250
14389WAT     H143409   1.889   3.302   0.190
14389WAT     H243410   1.791   3.317   0.320
14390WAT      O43411   8.318   1.914   6.613
14390WAT     H143412   8.234   1.870   6.643
14390WAT     H243413   8.360   1.861   6.540
14391WAT      O43414   6.932   1.317   6.571
14391WAT     H143415   6.865   1.275   6.632
14391WAT     H243416   7.001   1.365   6.624
14392WAT      O43417   4.651   8.512   9.849
14392WAT     H143418   4.568   8.458   9.863
14392WAT     H243419   4.677   8.510   9.753
14393WAT      O43420   4.981   2.578   2.156
14393WAT     H143421   4.916   2.648   2.124
14393WAT     H243422   4.949   2.539   2.242
14394WAT      O43423   9.529   8.262   1.113
14394WAT     H143424   9.610   8.219   1.152
14394WAT     H243425   9.551   8.357   1.088
14395WAT      O43426   6.690   3.733   4.329
14395WAT     H143427   6.695   3.641   4.369
14395WAT     H243428   6.782   3.768   4.313
14396WAT      O43429   8.530   1.852   8.070
14396WAT     H143430   8.582   1.793   8.008
14396WAT     H243431   8.441   1.873   8.030
14397WAT      O43432   2.357   6.678   2.123
14397WAT     H143433   2.286   6.672   2.193
14397WAT     H243434   2.364   6.773   2.091
14398WAT      O43435   7.101   9.282   2.892
14398WAT     H143436   7.177   9.287   2.957
14398WAT     H243437   7.034   9.214   2.924
14399WAT      O43438   6.126   4.515   4.867
14399WAT     H143439   6.210   4.472   4.837
14399WAT     H243440   6.128   4.529   4.966
14400WAT      O43441   2.394   3.318   1.575
14400WAT     H143442   2.372   3.416   1.576
14400WAT     H243443   2.313   3.266   1.602
14401WAT      O43444   2.877   1.511   2.180
14401WAT     H143445   2.970   1.483   2.201
14401WAT     H243446   2.819   1.431   2.168
14402WAT      O43447   6.325   1.943   4.445
14402WAT     H143448   6.261   2.007   4.488
14402WAT     H243449   6.317   1.854   4.489
14403WAT      O43450   3.791   0.225   0.172
14403WAT     H143451   3.805   0.319   0.144
14403WAT     H243452   3.860   0.199   0.239
14404WAT      O43453   1.847   0.857   2.551
14404WAT     H143454   1.885   0.780   2.603
14404WAT     H243455   1.922   0.909   2.510
14405WAT      O43456   1.288   0.234   1.202
14405WAT     H143457   1.238   0.154   1.171
14405WAT     H243458   1.386   0.222   1.184
14406WAT      O43459   2.141   5.598   6.347
14406WAT     H143460   2.170   5.614   6.252
14406WAT     H243461   2.057   5.650   6.365
14407WAT      O43462   1.474   4.753   6.881
14407WAT     H143463   1.465   4.705   6.793
14407WAT     H243464   1.449   4.691   6.955
14408WAT      O43465   3.323   5.682   9.316
14408WAT     H143466   3.284   5.591   9.307
14408WAT     H243467   3.420   5.679   9.295
14409WAT      O43468   5.343   5.911   6.851
14409WAT     H143469   5.416   5.877   6.792
14409WAT     H243470   5.308   5.998   6.815
14410WAT      O43471   3.018   8.808   3.771
14410WAT     H143472   2.980   8.890   3.813
14410WAT     H243473   3.061   8.832   3.683
14411WAT      O43474   3.557   2.001   7.114
14411WAT     H143475   3.611   1.917   7.118
14411WAT     H243476   3.579   2.058   7.194
14412WAT      O43477   7.021   2.262   4.941
14412WAT     H143478   7.083   2.207   4.884
14412WAT     H243479   7.012   2.219   5.031
14413WAT      O43480   3.533   6.056   7.052
14413WAT     H143481   3.437   6.049   7.080
14413WAT     H243482   3.590   6.004   7.116
14414WAT      O43483   0.724   7.957   0.366
14414WAT     H143484   0.646   7.909   0.407
14414WAT     H243485   0.791   7.979   0.437
14415WAT      O43486   1.699   0.095   2.990
14415WAT     H143487   1.630   0.159   2.956
14415WAT     H243488   1.762   0.144   3.050
14416WAT      O43489   1.475   9.602   5.163
14416WAT     H143490   1.461   9.556   5.251
14416WAT     H243491   1.417   9.558   5.093
14417WAT      O43492   0.741   1.650   8.248
14417WAT     H143493   0.776   1.671   8.339
14417WAT     H243494   0.758   1.727   8.186
14418WAT      O43495   8.134   0.704   7.723
14418WAT     H143496   8.130   0.733   7.819
14418WAT     H243497   8.205   0.755   7.676
14419WAT      O43498   0.725   9.764   9.013
14419WAT     H143499   0.734   9.791   8.917
14419WAT     H243500   0.640   9.713   9.025
14420WAT      O43501   6.631   4.896   6.859
14420WAT     H143502   6.543   4.882   6.905
14420WAT     H243503   6.619   4.880   6.761
14421WAT      O43504   8.365   2.111   6.790
14421WAT     H143505   8.399   2.190   6.739
14421WAT     H243506   8.355   2.033   6.728
14422WAT      O43507   9.213   5.958   0.811
14422WAT     H143508   9.161   6.042   0.831
14422WAT     H243509   9.289   5.980   0.751
14423WAT      O43510   0.969   4.761   5.205
14423WAT     H143511   0.892   4.776   5.144
14423WAT     H243512   1.016   4.676   5.180
14424WAT      O43513   7.053   8.518   1.574
14424WAT     H143514   6.973   8.462   1.596
14424WAT     H243515   7.077   8.505   1.477
14425WAT      O43516   1.287   0.222   1.501
14425WAT     H143517   1.322   0.261   1.416
14425WAT     H243518   1.214   0.157   1.480
14426WAT      O43519   6.500   8.751   7.972
14426WAT     H143520   6.435   8.760   8.047
14426WAT     H243521   6.450   8.747   7.885
14427WAT      O43522   9.286   6.541   3.755
14427WAT     H143523   9.275   6.482   3.835
14427WAT     H243524   9.296   6.485   3.673
14428WAT      O43525   1.175   0.857   4.074
14428WAT     H143526   1.100   0.813   4.123
14428WAT     H243527   1.167   0.838   3.976
14429WAT      O43528   2.539   5.202   7.747
14429WAT     H143529   2.581   5.222   7.658
14429WAT     H243530   2.479   5.278   7.773
14430WAT      O43531   0.219   6.001   8.250
14430WAT     H143532   0.184   6.014   8.343
14430WAT     H243533   0.152   5.950   8.196
14431WAT      O43534   6.816   5.427   5.706
14431WAT     H143535   6.915   5.425   5.722
14431WAT     H243536   6.797   5.470   5.618
14432WAT      O43537   0.045   4.044   0.815
14432WAT     H143538   0.121   3.981   0.802
14432WAT     H243539   0.077   4.138   0.807
14433WAT      O43540   1.488   7.104   5.690
14433WAT     H143541   1.517   7.176   5.752
14433WAT     H243542   1.470   7.142   5.599
14434WAT      O43543   6.651   2.018   4.992
14434WAT     H143544   6.709   2.031   4.911
14434WAT     H243545   6.698   1.958   5.056
14435WAT      O43546   3.997   3.571   5.056
14435WAT     H143547   3.930   3.643   5.073
14435WAT     H243548   3.951   3.491   5.018
14436WAT      O43549   1.496   0.251   2.911
14436WAT     H143550   1.465   0.244   2.816
14436WAT     H243551   1.474   0.342   2.946
14437WAT      O43552   6.043   1.316   5.322
14437WAT     H143553   6.066   1.322   5.420
14437WAT     H243554   5.950   1.350   5.309
14438WAT      O43555   0.197   4.644   5.673
14438WAT     H143556   0.197   4.618   5.576
14438WAT     H243557   0.103   4.645   5.707
14439WAT      O43558   2.357   3.094   6.953
14439WAT     H143559   2.404   3.137   6.876
14439WAT     H243560   2.312   3.010   6.922
14440WAT      O43561   8.217   4.577   2.563
14440WAT     H143562   8.192   4.634   2.641
14440WAT     H243563   8.137   4.559   2.507
14441WAT      O43564   6.451   0.193   8.740
14441WAT     H143565   6.452   0.125   8.667
14441WAT     H243566   6.537   0.190   8.791
14442WAT      O43567   8.777   6.351   4.555
14442WAT     H143568   8.693   6.398   4.527
14442WAT     H243569   8.845   6.419   4.584
14443WAT      O43570   3.052   5.547   7.674
14443WAT     H143571   2.967   5.495   7.677
14443WAT     H243572   3.032   5.644   7.659
14444WAT      O43573   9.653   3.342   4.620
14444WAT     H143574   9.622   3.252   4.589
14444WAT     H243575   9.734   3.331   4.679
14445WAT      O43576   1.982   4.953   8.583
14445WAT     H143577   2.012   4.938   8.489
14445WAT     H243578   1.989   4.867   8.634
14446WAT      O43579   6.678   2.459   4.240
14446WAT     H143580   6.718   2.541   4.198
14446WAT     H243581   6.581   2.474   4.255
14447WAT      O43582   5.024   1.679   3.571
14447WAT     H143583   4.983   1.765   3.599
14447WAT     H243584   5.115   1.670   3.612
14448WAT      O43585   0.292   5.876   3.767
14448WAT     H143586   0.303   5.961   3.819
14448WAT     H243587   0.256   5.805   3.828
14449WAT      O43588   2.434   4.581   6.324
14449WAT     H143589   2.401   4.671   6.353
14449WAT     H243590   2.379   4.510   6.368
14450WAT      O43591   9.210   6.114   7.777
14450WAT     H143592   9.128   6.169   7.764
14450WAT     H243593   9.292   6.170   7.761
14451WAT      O43594   6.311   5.068   5.843
14451WAT     H143595   6.275   5.014   5.918
14451WAT     H243596   6.236   5.115   5.796
14452WAT      O43597   8.063   0.738   9.853
14452WAT     H143598   8.085   0.684   9.935
14452WAT     H243599   8.020   0.678   9.785
14453WAT      O43600   7.616   5.884   9.618
14453WAT     H143601   7.560   5.838   9.687
14453WAT     H243602   7.681   5.945   9.663
14454WAT      O43603   8.912   6.841   3.263
14454WAT     H143604   8.822   6.835   3.219
14454WAT     H243605   8.981   6.861   3.193
14455WAT      O43606   7.039   1.550   0.324
14455WAT     H143607   7.066   1.628   0.380
14455WAT     H243608   6.977   1.582   0.252
14456WAT      O43609   5.266   8.203   7.487
14456WAT     H143610   5.194   8.181   7.422
14456WAT     H243611   5.298   8.119   7.531
14457WAT      O43612   4.843   6.130   5.776
14457WAT     H143613   4.765   6.153   5.717
14457WAT     H243614   4.827   6.164   5.868
14458WAT      O43615   4.970   3.049   6.374
14458WAT     H143616   4.894   3.115   6.383
14458WAT     H243617   4.966   3.005   6.285
14459WAT      O43618   5.933   8.493   5.881
14459WAT     H143619   5.906   8.526   5.971
14459WAT     H243620   6.032   8.481   5.878
14460WAT      O43621   1.254   2.333   9.292
14460WAT     H143622   1.189   2.282   9.237
14460WAT     H243623   1.345   2.329   9.249
14461WAT      O43624   8.447   9.316   7.812
14461WAT     H143625   8.514   9.357   7.874
14461WAT     H243626   8.381   9.386   7.785
14462WAT      O43627   9.397   0.908   7.009
14462WAT     H143628   9.433   0.928   6.918
14462WAT     H243629   9.458   0.843   7.055
14463WAT      O43630   9.458   4.843   9.277
14463WAT     H143631   9.531   4.911   9.288
14463WAT     H243632   9.392   4.853   9.352
14464WAT      O43633   1.767   4.729   3.211
14464WAT     H143634   1.750   4.708   3.115
14464WAT     H243635   1.863   4.752   3.224
14465WAT      O43636  -0.001   5.996   5.263
14465WAT     H143637  -0.008   6.057   5.185
14465WAT     H243638   0.029   6.047   5.344
14466WAT      O43639   9.458   0.593   6.322
14466WAT     H143640   9.480   0.560   6.414
14466WAT     H243641   9.540   0.632   6.280
14467WAT      O43642   4.220   6.319   4.655
14467WAT     H143643   4.135   6.319   4.709
14467WAT     H243644   4.290   6.268   4.704
14468WAT      O43645   7.998   6.576   0.871
14468WAT     H143646   8.017   6.505   0.803
14468WAT     H243647   8.079   6.587   0.929
14469WAT      O43648   8.645   4.475   1.979
14469WAT     H143649   8.633   4.553   2.040
14469WAT     H243650   8.668   4.394   2.033
14470WAT      O43651   5.109   9.717   5.184
14470WAT     H143652   5.184   9.715   5.118
14470WAT     H243653   5.053   9.798   5.168
14471WAT      O43654   2.689   3.273   9.741
14471WAT     H143655   2.754   3.346   9.723
14471WAT     H243656   2.732   3.202   9.795
14472WAT      O43657   5.933   0.930   4.208
14472WAT     H143658   5.931   0.893   4.301
14472WAT     H243659   5.947   1.029   4.212
14473WAT      O43660   0.366   4.306   2.283
14473WAT     H143661   0.269   4.311   2.307
14473WAT     H243662   0.388   4.382   2.222
14474WAT      O43663   7.748   5.513   1.754
14474WAT     H143664   7.726   5.434   1.697
14474WAT     H243665   7.769   5.482   1.847
14475WAT      O43666   7.520   6.498   5.116
14475WAT     H143667   7.488   6.426   5.054
14475WAT     H243668   7.619   6.491   5.128
14476WAT      O43669   6.600   0.335   9.363
14476WAT     H143670   6.545   0.279   9.302
14476WAT     H243671   6.647   0.406   9.310
14477WAT      O43672   0.095   1.332   8.020
14477WAT     H143673   0.114   1.235   8.037
14477WAT     H243674   0.009   1.357   8.064
14478WAT      O43675   3.015   0.999   7.852
14478WAT     H143676   3.052   0.913   7.817
14478WAT     H243677   3.089   1.062   7.872
14479WAT      O43678   9.398   3.682   6.708
14479WAT     H143679   9.443   3.770   6.696
14479WAT     H243680   9.325   3.691   6.776
14480WAT      O43681   8.966   2.036   6.623
14480WAT     H143682   9.028   2.069   6.695
14480WAT     H243683   8.874   2.027   6.660
14481WAT      O43684   1.522   4.818   5.853
14481WAT     H143685   1.437   4.846   5.809
14481WAT     H243686   1.525   4.854   5.946
14482WAT      O43687   9.025   1.862   1.503
14482WAT     H143688   9.056   1.855   1.597
14482WAT     H243689   9.078   1.800   1.445
14483WAT      O43690   7.277   9.483   3.531
14483WAT     H143691   7.335   9.411   3.569
14483WAT     H243692   7.307   9.505   3.439
14484WAT      O43693   0.619   7.982   8.008
14484WAT     H143694   0.559   7.963   7.931
14484WAT     H243695   0.638   7.898   8.058
14485WAT      O43696   6.453   0.391   9.086
14485WAT     H143697   6.417   0.478   9.120
14485WAT     H243698   6.458   0.394   8.986
14486WAT      O43699   6.789   4.132   5.341
14486WAT     H143700   6.703   4.138   5.290
14486WAT     H243701   6.866   4.139   5.277
14487WAT      O43702   8.398   0.322   5.885
14487WAT     H143703   8.335   0.384   5.931
14487WAT     H243704   8.381   0.228   5.915
14488WAT      O43705   7.657   0.925   2.010
14488WAT     H143706   7.723   0.912   1.936
14488WAT     H243707   7.585   0.856   2.003
14489WAT      O43708   7.199   1.936   7.683
14489WAT     H143709   7.144   1.878   7.623
14489WAT     H243710   7.195   2.030   7.651
14490WAT      O43711   0.365   6.142   9.536
14490WAT     H143712   0.341   6.056   9.582
14490WAT     H243713   0.288   6.206   9.541
14491WAT      O43714   7.293   9.751   0.045
14491WAT     H143715   7.209   9.794   0.080
14491WAT     H243716   7.358   9.740   0.121
14492WAT      O43717   6.375   7.905   4.576
14492WAT     H143718   6.410   7.967   4.506
14492WAT     H243719   6.436   7.826   4.585
14493WAT      O43720   6.876   4.998   3.610
14493WAT     H143721   6.776   5.004   3.597
14493WAT     H243722   6.895   4.951   3.696
14494WAT      O43723   5.286   0.382   3.770
14494WAT     H143724   5.368   0.381   3.712
14494WAT     H243725   5.207   0.409   3.715
14495WAT      O43726   1.440   4.458   7.959
14495WAT     H143727   1.526   4.507   7.971
14495WAT     H243728   1.424   4.441   7.861
14496WAT      O43729   0.684   1.150   7.266
14496WAT     H143730   0.615   1.195   7.210
14496WAT     H243731   0.649   1.136   7.359
14497WAT      O43732   7.155   8.665   1.896
14497WAT     H143733   7.103   8.746   1.871
14497WAT     H243734   7.153   8.653   1.995
14498WAT      O43735   3.137   3.043   6.063
14498WAT     H143736   3.208   3.037   5.993
14498WAT     H243737   3.127   2.954   6.108
14499WAT      O43738   4.387   1.858   5.257
14499WAT     H143739   4.428   1.948   5.247
14499WAT     H243740   4.419   1.798   5.184
14500WAT      O43741   6.576   9.163   2.294
14500WAT     H143742   6.584   9.206   2.204
14500WAT     H243743   6.502   9.096   2.293
14501WAT      O43744   7.380   2.437   4.667
14501WAT     H143745   7.340   2.358   4.713
14501WAT     H243746   7.405   2.412   4.573
14502WAT      O43747   2.168   0.100   6.413
14502WAT     H143748   2.264   0.083   6.388
14502WAT     H243749   2.139   0.032   6.480
14503WAT      O43750   3.698   1.391   5.178
14503WAT     H143751   3.695   1.352   5.086
14503WAT     H243752   3.758   1.337   5.236
14504WAT      O43753   2.984   8.152   9.032
14504WAT     H143754   3.056   8.201   8.984
14504WAT     H243755   3.024   8.073   9.078
14505WAT      O43756   8.751   8.116   5.476
14505WAT     H143757   8.823   8.057   5.438
14505WAT     H243758   8.743   8.099   5.574
14506WAT      O43759   7.258   0.495   9.162
14506WAT     H143760   7.344   0.445   9.176
14506WAT     H243761   7.184   0.429   9.149
14507WAT      O43762   3.934   1.823   2.586
14507WAT     H143763   3.980   1.842   2.672
14507WAT     H243764   4.000   1.788   2.519
14508WAT      O43765   2.635   5.594   5.660
14508WAT     H143766   2.670   5.551   5.743
14508WAT     H243767   2.556   5.542   5.626
14509WAT      O43768   8.780   6.067   7.372
14509WAT     H143769   8.810   5.975   7.398
14509WAT     H243770   8.780   6.075   7.272
14510WAT      O43771   4.590   7.311   8.052
14510WAT     H143772   4.630   7.222   8.030
14510WAT     H243773   4.567   7.359   7.968
14511WAT      O43774   3.508   2.546   6.707
14511WAT     H143775   3.459   2.507   6.785
14511WAT     H243776   3.606   2.525   6.716
14512WAT      O43777   1.457   2.760   7.464
14512WAT     H143778   1.511   2.841   7.441
14512WAT     H243779   1.518   2.683   7.479
14513WAT      O43780   4.030   9.775   9.666
14513WAT     H143781   4.093   9.852   9.680
14513WAT     H243782   3.965   9.797   9.594
14514WAT      O43783   6.871   6.559   6.849
14514WAT     H143784   6.827   6.648   6.853
14514WAT     H243785   6.964   6.565   6.885
14515WAT      O43786   9.184   5.147   4.594
14515WAT     H143787   9.129   5.224   4.563
14515WAT     H243788   9.123   5.073   4.624
14516WAT      O43789   2.420   5.548   7.075
14516WAT     H143790   2.439   5.605   6.995
14516WAT     H243791   2.347   5.588   7.129
14517WAT      O43792   9.445   6.709   7.154
14517WAT     H143793   9.478   6.779   7.090
14517WAT     H243794   9.500   6.626   7.144
14518WAT      O43795   1.236   0.980   9.553
14518WAT     H143796   1.237   1.073   9.517
14518WAT     H243797   1.182   0.921   9.492
14519WAT      O43798   4.255   7.128   8.069
14519WAT     H143799   4.226   7.158   7.979
14519WAT     H243800   4.314   7.198   8.110
14520WAT      O43801   9.793   6.047   6.814
14520WAT     H143802   9.762   6.037   6.908
14520WAT     H243803   9.713   6.052   6.753
14521WAT      O43804   3.607   1.786   9.719
14521WAT     H143805   3.686   1.812   9.776
14521WAT     H243806   3.627   1.700   9.673
14522WAT      O43807   1.721   9.644   9.194
14522WAT     H143808   1.664   9.616   9.117
14522WAT     H243809   1.663   9.673   9.270
14523WAT      O43810   8.902   9.367   4.935
14523WAT     H143811   8.919   9.434   4.862
14523WAT     H243812   8.860   9.286   4.895
14524WAT      O43813   6.859   9.446   3.358
14524WAT     H143814   6.782   9.456   3.295
14524WAT     H243815   6.879   9.349   3.371
14525WAT      O43816   0.066   1.889   8.539
14525WAT     H143817   0.113   1.970   8.574
14525WAT     H243818  -0.029   1.912   8.519
14526WAT      O43819   8.985   1.589   9.616
14526WAT     H143820   8.985   1.649   9.536
14526WAT     H243821   8.903   1.531   9.615
14527WAT      O43822   1.547   3.295   0.239
14527WAT     H143823   1.617   3.242   0.288
14527WAT     H243824   1.577   3.311   0.145
14528WAT      O43825   0.036   0.865   2.633
14528WAT     H143826   0.076   0.807   2.562
14528WAT     H243827   0.022   0.811   2.716
14529WAT      O43828   2.457   2.997   7.191
14529WAT     H143829   2.384   3.036   7.247
14529WAT     H243830   2.437   3.015   7.095
14530WAT      O43831   6.044   1.347   8.932
14530WAT     H143832   6.085   1.320   8.844
14530WAT     H243833   6.052   1.271   8.997
14531WAT      O43834   5.644   2.244   1.703
14531WAT     H143835   5.604   2.155   1.679
14531WAT     H243836   5.713   2.268   1.635
14532WAT      O43837   5.148   8.652   1.172
14532WAT     H143838   5.139   8.582   1.243
14532WAT     H243839   5.242   8.653   1.137
14533WAT      O43840   1.951   2.130   1.030
14533WAT     H143841   1.970   2.189   1.109
14533WAT     H243842   2.037   2.090   0.998
14534WAT      O43843   6.040   7.975   6.584
14534WAT     H143844   6.078   7.922   6.660
14534WAT     H243845   6.033   7.916   6.503
14535WAT      O43846   6.906   6.337   0.548
14535WAT     H143847   6.905   6.269   0.476
14535WAT     H243848   6.966   6.413   0.522
14536WAT      O43849   6.915   7.786   4.777
14536WAT     H143850   6.923   7.693   4.742
14536WAT     H243851   6.988   7.803   4.843
14537WAT      O43852   5.166   9.547   3.014
14537WAT     H143853   5.145   9.461   3.060
14537WAT     H243854   5.122   9.623   3.063
14538WAT      O43855   8.373   1.007   4.161
14538WAT     H143856   8.380   1.059   4.076
14538WAT     H243857   8.362   0.910   4.140
14539WAT      O43858   0.882   1.854   4.957
14539WAT     H143859   0.915   1.764   4.930
14539WAT     H243860   0.869   1.857   5.056
14540WAT      O43861   2.880   5.966   5.947
14540WAT     H143862   2.868   6.063   5.927
14540WAT     H243863   2.850   5.948   6.041
14541WAT      O43864   7.566   4.566   3.165
14541WAT     H143865   7.603   4.626   3.094
14541WAT     H243866   7.539   4.478   3.123
14542WAT      O43867   7.164   2.868   9.609
14542WAT     H143868   7.254   2.904   9.633
14542WAT     H243869   7.175   2.777   9.569
14543WAT      O43870   2.007   5.502   5.091
14543WAT     H143871   1.980   5.414   5.130
14543WAT     H243872   1.938   5.571   5.113
14544WAT      O43873   9.129   1.589   9.225
14544WAT     H143874   9.168   1.674   9.260
14544WAT     H243875   9.201   1.521   9.213
14545WAT      O43876   0.313   2.846   6.450
14545WAT     H143877   0.217   2.867   6.432
14545WAT     H243878   0.326   2.828   6.547
14546WAT      O43879   2.974   3.842   4.660
14546WAT     H143880   3.071   3.839   4.683
14546WAT     H243881   2.945   3.754   4.624
14547WAT      O43882   2.492   7.938   8.891
14547WAT     H143883   2.573   7.977   8.933
14547WAT     H243884   2.431   8.011   8.861
14548WAT      O43885   3.142   5.670   8.265
14548WAT     H143886   3.207   5.598   8.286
14548WAT     H243887   3.056   5.630   8.234
14549WAT      O43888   9.012   2.513   5.870
14549WAT     H143889   9.043   2.428   5.827
14549WAT     H243890   9.071   2.588   5.843
14550WAT      O43891   3.694   6.866   9.881
14550WAT     H143892   3.626   6.912   9.824
14550WAT     H243893   3.648   6.823   9.959
14551WAT      O43894   4.525   9.269   5.695
14551WAT     H143895   4.555   9.256   5.789
14551WAT     H243896   4.603   9.256   5.633
14552WAT      O43897   1.174   8.269   3.450
14552WAT     H143898   1.140   8.216   3.528
14552WAT     H243899   1.145   8.364   3.460
14553WAT      O43900   9.452   7.538   6.757
14553WAT     H143901   9.383   7.595   6.802
14553WAT     H243902   9.425   7.442   6.763
14554WAT      O43903   7.789   9.259   6.553
14554WAT     H143904   7.752   9.300   6.470
14554WAT     H243905   7.796   9.328   6.625
14555WAT      O43906   0.986   8.589   5.540
14555WAT     H143907   1.017   8.582   5.445
14555WAT     H243908   0.956   8.499   5.572
14556WAT      O43909   5.383   2.577   6.185
14556WAT     H143910   5.402   2.531   6.271
14556WAT     H243911   5.309   2.644   6.198
14557WAT      O43912   6.747   7.789   3.471
14557WAT     H143913   6.689   7.812   3.393
14557WAT     H243914   6.712   7.835   3.553
14558WAT      O43915   3.219   1.524   4.312
14558WAT     H143916   3.302   1.519   4.369
14558WAT     H243917   3.160   1.447   4.334
14559WAT      O43918   9.483   6.203   5.792
14559WAT     H143919   9.411   6.257   5.836
14559WAT     H243920   9.448   6.165   5.706
14560WAT      O43921   6.683   2.261   8.428
14560WAT     H143922   6.662   2.318   8.507
14560WAT     H243923   6.611   2.194   8.414
14561WAT      O43924   5.649   6.722   7.904
14561WAT     H143925   5.722   6.789   7.888
14561WAT     H243926   5.689   6.631   7.912
14562WAT      O43927   5.492   8.183   3.211
14562WAT     H143928   5.477   8.236   3.295
14562WAT     H243929   5.500   8.086   3.234
14563WAT      O43930   4.645   2.449   8.572
14563WAT     H143931   4.629   2.508   8.493
14563WAT     H243932   4.654   2.354   8.541
14564WAT      O43933   6.471   5.350   9.828
14564WAT     H143934   6.499   5.441   9.859
14564WAT     H243935   6.375   5.336   9.853
14565WAT      O43936   5.287   9.184   2.601
14565WAT     H143937   5.190   9.207   2.596
14565WAT     H243938   5.332   9.246   2.666
14566WAT      O43939   0.437   7.148   5.796
14566WAT     H143940   0.491   7.214   5.743
14566WAT     H243941   0.351   7.190   5.823
14567WAT      O43942   7.262   9.693   9.669
14567WAT     H143943   7.229   9.775   9.623
14567WAT     H243944   7.275   9.713   9.767
14568WAT      O43945   3.750   6.702   9.650
14568WAT     H143946   3.665   6.657   9.623
14568WAT     H243947   3.729   6.776   9.714
14569WAT      O43948   8.987   3.149   2.889
14569WAT     H143949   8.984   3.083   2.964
14569WAT     H243950   9.062   3.213   2.905
14570WAT      O43951   4.029   2.845   4.675
14570WAT     H143952   4.126   2.825   4.689
14570WAT     H243953   4.018   2.942   4.652
14571WAT      O43954   4.366   7.687   3.716
14571WAT     H143955   4.293   7.714   3.779
14571WAT     H243956   4.430   7.762   3.705
14572WAT      O43957   6.264   5.574   0.600
14572WAT     H143958   6.199   5.603   0.530
14572WAT     H243959   6.324   5.651   0.623
14573WAT      O43960   1.958   6.686   4.592
14573WAT     H143961   2.022   6.681   4.668
14573WAT     H243962   1.992   6.751   4.524
14574WAT      O43963   0.056   1.085   2.037
14574WAT     H143964   0.116   1.165   2.030
14574WAT     H243965  -0.007   1.084   1.959
14575WAT      O43966   8.561   0.504   6.315
14575WAT     H143967   8.495   0.463   6.252
14575WAT     H243968   8.549   0.464   6.406
14576WAT      O43969   8.222   9.487   7.759
14576WAT     H143970   8.124   9.506   7.756
14576WAT     H243971   8.269   9.564   7.803
14577WAT      O43972   6.232   1.483   6.817
14577WAT     H143973   6.253   1.416   6.889
14577WAT     H243974   6.181   1.438   6.744
14578WAT      O43975   4.784   5.809   5.821
14578WAT     H143976   4.834   5.723   5.817
14578WAT     H243977   4.793   5.857   5.734
14579WAT      O43978   2.632   6.550   3.274
14579WAT     H143979   2.706   6.611   3.303
14579WAT     H243980   2.559   6.605   3.232
14580WAT      O43981   2.793   1.098   1.093
14580WAT     H143982   2.874   1.094   1.034
14580WAT     H243983   2.793   1.019   1.154
14581WAT      O43984   8.184   4.122   6.129
14581WAT     H143985   8.186   4.197   6.195
14581WAT     H243986   8.277   4.100   6.100
14582WAT      O43987   1.738   9.434   4.224
14582WAT     H143988   1.801   9.394   4.291
14582WAT     H243989   1.665   9.483   4.272
14583WAT      O43990   8.405   3.011   6.855
14583WAT     H143991   8.428   2.914   6.844
14583WAT     H243992   8.307   3.020   6.872
14584WAT      O43993   6.612   6.993   2.643
14584WAT     H143994   6.686   6.928   2.626
14584WAT     H243995   6.650   7.084   2.660
14585WAT      O43996   6.772   8.572   3.910
14585WAT     H143997   6.866   8.585   3.942
14585WAT     H243998   6.755   8.475   3.893
14586WAT      O43999   0.498   6.335   9.397
14586WAT     H144000   0.537   6.411   9.449
14586WAT     H244001   0.444   6.277   9.457
14587WAT      O44002   5.632   3.554   8.628
14587WAT     H144003   5.641   3.503   8.542
14587WAT     H244004   5.547   3.528   8.674
14588WAT      O44005   4.174   2.084   6.378
14588WAT     H144006   4.190   2.012   6.446
14588WAT     H244007   4.210   2.171   6.412
14589WAT      O44008   8.924   4.672   9.005
14589WAT     H144009   8.866   4.645   9.082
14589WAT     H244010   8.995   4.735   9.036
14590WAT      O44011   8.347   1.919   8.711
14590WAT     H144012   8.251   1.896   8.726
14590WAT     H244013   8.400   1.894   8.792
14591WAT      O44014   2.180   5.561   9.463
14591WAT     H144015   2.147   5.644   9.418
14591WAT     H244016   2.194   5.490   9.394
14592WAT      O44017   3.590   8.649   7.102
14592WAT     H144018   3.601   8.726   7.165
14592WAT     H244019   3.673   8.638   7.047
14593WAT      O44020   3.260   1.565   4.913
14593WAT     H144021   3.223   1.562   5.006
14593WAT     H244022   3.319   1.487   4.898
14594WAT      O44023   2.150   8.730   0.735
14594WAT     H144024   2.108   8.807   0.782
14594WAT     H244025   2.143   8.648   0.793
14595WAT      O44026   9.033   8.279   5.629
14595WAT     H144027   9.092   8.243   5.702
14595WAT     H244028   8.938   8.269   5.657
14596WAT      O44029   1.594   8.548   1.373
14596WAT     H144030   1.647   8.469   1.404
14596WAT     H244031   1.584   8.545   1.274
14597WAT      O44032   7.182   7.633   8.727
14597WAT     H144033   7.180   7.695   8.805
14597WAT     H244034   7.140   7.677   8.648
14598WAT      O44035   2.717   3.016   8.269
14598WAT     H144036   2.767   3.102   8.259
14598WAT     H244037   2.738   2.975   8.358
14599WAT      O44038   1.294   6.712   7.588
14599WAT     H144039   1.348   6.649   7.644
14599WAT     H244040   1.326   6.806   7.601
14600WAT      O44041   1.481   8.319   0.872
14600WAT     H144042   1.390   8.328   0.912
14600WAT     H244043   1.482   8.365   0.782
14601WAT      O44044   1.763   5.725   0.182
14601WAT     H144045   1.664   5.727   0.190
14601WAT     H244046   1.803   5.691   0.267
14602WAT      O44047   4.972   0.370   3.356
14602WAT     H144048   4.911   0.297   3.325
14602WAT     H244049   4.981   0.438   3.283
14603WAT      O44050   8.277   5.502   8.964
14603WAT     H144051   8.316   5.585   8.924
14603WAT     H244052   8.177   5.508   8.961
14604WAT      O44053   1.740   0.036   4.462
14604WAT     H144054   1.729   0.056   4.365
14604WAT     H244055   1.753   0.121   4.513
14605WAT      O44056   0.100   2.738   2.822
14605WAT     H144057   0.027   2.671   2.831
14605WAT     H244058   0.186   2.691   2.803
14606WAT      O44059   4.641   6.343   3.992
14606WAT     H144060   4.681   6.386   3.911
14606WAT     H244061   4.548   6.378   4.005
14607WAT      O44062   0.187   4.522   4.943
14607WAT     H144063   0.271   4.479   4.977
14607WAT     H244064   0.182   4.512   4.844
14608WAT      O44065   4.697   1.702   6.819
14608WAT     H144066   4.670   1.606   6.826
14608WAT     H244067   4.781   1.717   6.871
14609WAT      O44068   3.119   5.032   7.048
14609WAT     H144069   3.047   5.082   6.999
14609WAT     H244070   3.209   5.068   7.021
14610WAT      O44071   3.079   2.456   7.704
14610WAT     H144072   3.029   2.541   7.721
14610WAT     H244073   3.177   2.473   7.712
14611WAT      O44074   8.077   5.815   9.327
14611WAT     H144075   8.164   5.765   9.324
14611WAT     H244076   8.008   5.759   9.373
14612WAT      O44077   8.668   4.978   9.593
14612WAT     H144078   8.659   4.883   9.622
14612WAT     H244079   8.765   5.001   9.586
14613WAT      O44080   7.351   9.142   6.831
14613WAT     H144081   7.426   9.142   6.765
14613WAT     H244082   7.276   9.085   6.797
14614WAT      O44083   0.157   3.135   9.391
14614WAT     H144084   0.208   3.053   9.418
14614WAT     H244085   0.218   3.215   9.396
14615WAT      O44086   7.541   7.333   5.471
14615WAT     H144087   7.508   7.281   5.392
14615WAT     H244088   7.471   7.333   5.543
14616WAT      O44089   0.255   9.368   6.557
14616WAT     H144090   0.245   9.415   6.645
14616WAT     H244091   0.245   9.269   6.571
14617WAT      O44092   9.097   1.609   6.835
14617WAT     H144093   9.115   1.511   6.844
14617WAT     H244094   9.004   1.629   6.866
14618WAT      O44095   1.774   8.749   1.328
14618WAT     H144096   1.850   8.746   1.393
14618WAT     H244097   1.697   8.698   1.366
14619WAT      O44098   5.157   7.234   8.379
14619WAT     H144099   5.204   7.267   8.460
14619WAT     H244100   5.085   7.170   8.406
14620WAT      O44101   2.231   5.441   8.899
14620WAT     H144102   2.157   5.440   8.967
14620WAT     H244103   2.288   5.522   8.912
14621WAT      O44104   3.941   7.368   3.244
14621WAT     H144105   4.002   7.436   3.284
14621WAT     H244106   3.850   7.376   3.285
14622WAT      O44107   8.581   2.540   8.596
14622WAT     H144108   8.612   2.635   8.597
14622WAT     H244109   8.626   2.491   8.523
14623WAT      O44110   9.735   8.688   7.126
14623WAT     H144111   9.754   8.672   7.029
14623WAT     H244112   9.813   8.735   7.167
14624WAT      O44113   5.106   4.615   0.100
14624WAT     H144114   5.042   4.691   0.088
14624WAT     H244115   5.063   4.545   0.156
14625WAT      O44116   8.509   1.393   0.418
14625WAT     H144117   8.441   1.320   0.420
14625WAT     H244118   8.549   1.405   0.508
14626WAT      O44119   7.580   0.625   3.376
14626WAT     H144120   7.483   0.624   3.350
14626WAT     H244121   7.595   0.698   3.444
14627WAT      O44122   1.704   6.324   0.392
14627WAT     H144123   1.724   6.261   0.318
14627WAT     H244124   1.756   6.298   0.473
14628WAT      O44125   3.598   8.104   8.609
14628WAT     H144126   3.583   8.005   8.608
14628WAT     H244127   3.514   8.151   8.583
14629WAT      O44128   5.951   8.625   4.010
14629WAT     H144129   6.019   8.667   3.951
14629WAT     H244130   5.996   8.569   4.079
14630WAT      O44131   2.667   5.632   3.705
14630WAT     H144132   2.710   5.645   3.794
14630WAT     H244133   2.736   5.601   3.639
14631WAT      O44134   8.575   6.849   4.751
14631WAT     H144135   8.601   6.772   4.693
14631WAT     H244136   8.658   6.887   4.794
14632WAT      O44137   5.628   8.112   1.057
14632WAT     H144138   5.715   8.158   1.039
14632WAT     H244139   5.636   8.059   1.142
14633WAT      O44140   5.467   4.374   8.525
14633WAT     H144141   5.539   4.431   8.485
14633WAT     H244142   5.393   4.433   8.558
14634WAT      O44143   2.131   5.014   0.376
14634WAT     H144144   2.061   4.943   0.360
14634WAT     H244145   2.123   5.084   0.305
14635WAT      O44146   2.951   2.408   3.490
14635WAT     H144147   2.931   2.321   3.445
14635WAT     H244148   2.934   2.399   3.588
14636WAT      O44149   0.733   7.710   1.875
14636WAT     H144150   0.745   7.634   1.939
14636WAT     H244151   0.663   7.772   1.910
14637WAT      O44152   6.677   6.364   2.941
14637WAT     H144153   6.641   6.281   2.898
14637WAT     H244154   6.740   6.338   3.015
14638WAT      O44155   7.276   9.798   5.091
14638WAT     H144156   7.272   9.876   5.029
14638WAT     H244157   7.342   9.817   5.164
14639WAT      O44158   1.068   6.470   6.938
14639WAT     H144159   1.107   6.427   6.858
14639WAT     H244160   1.077   6.570   6.931
14640WAT      O44161   3.018   4.083   2.071
14640WAT     H144162   3.017   4.171   2.023
14640WAT     H244163   2.925   4.062   2.103
14641WAT      O44164   0.797   3.992   3.434
14641WAT     H144165   0.896   3.993   3.422
14641WAT     H244166   0.773   3.931   3.510
14642WAT      O44167   3.149   7.548   5.223
14642WAT     H144168   3.192   7.463   5.254
14642WAT     H244169   3.215   7.622   5.227
14643WAT      O44170   1.126   0.443   7.432
14643WAT     H144171   1.063   0.498   7.377
14643WAT     H244172   1.075   0.396   7.504
14644WAT      O44173   9.743   7.474   5.544
14644WAT     H144174   9.714   7.530   5.622
14644WAT     H244175   9.811   7.523   5.491
14645WAT      O44176   0.391   4.633   1.849
14645WAT     H144177   0.305   4.623   1.800
14645WAT     H244178   0.467   4.605   1.790
14646WAT      O44179   3.930   2.120   4.996
14646WAT     H144180   3.843   2.072   5.006
14646WAT     H244181   3.974   2.129   5.086
14647WAT      O44182   3.421   1.411   2.170
14647WAT     H144183   3.389   1.326   2.129
14647WAT     H244184   3.464   1.392   2.257
14648WAT      O44185   2.826   3.939   5.093
14648WAT     H144186   2.779   3.866   5.042
14648WAT     H244187   2.911   3.903   5.130
14649WAT      O44188   8.076   1.158   0.328
14649WAT     H144189   7.992   1.206   0.351
14649WAT     H244190   8.055   1.062   0.306
14650WAT      O44191   9.484   9.019   7.793
14650WAT     H144192   9.487   9.067   7.705
14650WAT     H244193   9.475   9.086   7.867
14651WAT      O44194   9.228   9.390   0.227
14651WAT     H144195   9.230   9.411   0.325
14651WAT     H244196   9.288   9.312   0.208
14652WAT      O44197   5.264   1.333   1.518
14652WAT     H144198   5.275   1.251   1.575
14652WAT     H244199   5.311   1.410   1.562
14653WAT      O44200   0.443   2.565   1.037
14653WAT     H144201   0.414   2.488   1.094
14653WAT     H244202   0.496   2.629   1.093
14654WAT      O44203   5.582   9.284   3.087
14654WAT     H144204   5.659   9.259   3.146
14654WAT     H244205   5.575   9.383   3.081
14655WAT      O44206   0.687   7.712   8.553
14655WAT     H144207   0.748   7.734   8.477
14655WAT     H244208   0.595   7.747   8.534
14656WAT      O44209   1.778   1.087   8.189
14656WAT     H144210   1.700   1.145   8.211
14656WAT     H244211   1.745   1.000   8.151
14657WAT      O44212   3.131   4.173   7.641
14657WAT     H144213   3.068   4.172   7.563
14657WAT     H244214   3.213   4.121   7.617
14658WAT      O44215   7.759   7.706   8.096
14658WAT     H144216   7.756   7.617   8.142
14658WAT     H244217   7.740   7.779   8.162
14659WAT      O44218   9.082   4.609   1.268
14659WAT     H144219   9.034   4.673   1.208
14659WAT     H244220   9.017   4.541   1.303
14660WAT      O44221   0.957   3.459   4.323
14660WAT     H144222   0.934   3.464   4.226
14660WAT     H244223   0.989   3.367   4.345
14661WAT      O44224   7.698   7.984   0.880
14661WAT     H144225   7.644   8.043   0.820
14661WAT     H244226   7.788   7.970   0.839
14662WAT      O44227   6.440   0.890   6.287
14662WAT     H144228   6.454   0.808   6.343
14662WAT     H244229   6.502   0.962   6.318
14663WAT      O44230   7.705   7.496   0.958
14663WAT     H144231   7.693   7.569   0.890
14663WAT     H244232   7.709   7.407   0.911
14664WAT      O44233   2.360   8.438   1.376
14664WAT     H144234   2.441   8.395   1.417
14664WAT     H244235   2.309   8.369   1.326
14665WAT      O44236   0.480   7.917   6.507
14665WAT     H144237   0.537   7.998   6.494
14665WAT     H244238   0.484   7.889   6.603
14666WAT      O44239   8.802   5.784   8.074
14666WAT     H144240   8.732   5.812   8.140
14666WAT     H244241   8.841   5.865   8.031
14667WAT      O44242   7.268   1.464   9.334
14667WAT     H144243   7.249   1.426   9.243
14667WAT     H244244   7.187   1.452   9.392
14668WAT      O44245   3.793   2.628   7.691
14668WAT     H144246   3.732   2.553   7.667
14668WAT     H244247   3.739   2.708   7.716
14669WAT      O44248   1.265   1.861   7.563
14669WAT     H144249   1.233   1.824   7.476
14669WAT     H244250   1.364   1.856   7.567
14670WAT      O44251   2.743   0.868   5.938
14670WAT     H144252   2.826   0.865   5.994
14670WAT     H244253   2.733   0.781   5.888
14671WAT      O44254   7.727   8.475   9.050
14671WAT     H144255   7.708   8.468   9.148
14671WAT     H244256   7.798   8.544   9.035
14672WAT      O44257   7.162   2.944   9.030
14672WAT     H144258   7.065   2.967   9.014
14672WAT     H244259   7.191   2.984   9.117
14673WAT      O44260   5.822   1.485   1.524
14673WAT     H144261   5.904   1.512   1.474
14673WAT     H244262   5.842   1.484   1.622
14674WAT      O44263   0.315   2.112   3.554
14674WAT     H144264   0.325   2.053   3.635
14674WAT     H244265   0.352   2.203   3.574
14675WAT      O44266   3.520   8.135   5.283
14675WAT     H144267   3.505   8.157   5.187
14675WAT     H244268   3.581   8.202   5.324
14676WAT      O44269   3.917   7.119   6.850
14676WAT     H144270   3.918   7.212   6.812
14676WAT     H244271   3.939   7.124   6.948
14677WAT      O44272   4.793   0.594   7.981
14677WAT     H144273   4.701   0.571   7.949
14677WAT     H244274   4.854   0.606   7.903
14678WAT      O44275   7.912   0.283   4.203
14678WAT     H144276   7.883   0.372   4.236
14678WAT     H244277   8.006   0.265   4.233
14679WAT      O44278   0.232   8.746   2.954
14679WAT     H144279   0.155   8.768   3.014
14679WAT     H244280   0.305   8.813   2.968
14680WAT      O44281   3.950   0.633   4.158
14680WAT     H144282   3.861   0.620   4.203
14680WAT     H244283   3.976   0.729   4.163
14681WAT      O44284   9.220   1.868   8.051
14681WAT     H144285   9.237   1.786   8.106
14681WAT     H244286   9.285   1.939   8.076
14682WAT      O44287   0.582   6.377   4.636
14682WAT     H144288   0.621   6.355   4.547
14682WAT     H244289   0.637   6.333   4.708
14683WAT      O44290   4.639   6.577   4.383
14683WAT     H144291   4.540   6.564   4.374
14683WAT     H244292   4.676   6.610   4.296
14684WAT      O44293   7.305   4.208   2.592
14684WAT     H144294   7.343   4.296   2.565
14684WAT     H244295   7.370   4.135   2.571
14685WAT      O44296   0.460   2.592   9.371
14685WAT     H144297   0.488   2.497   9.364
14685WAT     H244298   0.499   2.644   9.295
14686WAT      O44299   1.847   4.377   8.424
14686WAT     H144300   1.850   4.391   8.325
14686WAT     H244301   1.759   4.409   8.460
14687WAT      O44302   0.564   3.822   0.613
14687WAT     H144303   0.476   3.861   0.585
14687WAT     H244304   0.633   3.894   0.613
14688WAT      O44305   0.936   7.983   8.986
14688WAT     H144306   0.974   8.023   9.070
14688WAT     H244307   0.967   8.036   8.907
14689WAT      O44308   0.079   1.383   8.634
14689WAT     H144309   0.075   1.335   8.721
14689WAT     H244310   0.112   1.477   8.649
14690WAT      O44311   0.857   4.369   1.663
14690WAT     H144312   0.844   4.441   1.595
14690WAT     H244313   0.768   4.327   1.684
14691WAT      O44314   2.180   3.551   5.354
14691WAT     H144315   2.245   3.622   5.330
14691WAT     H244316   2.090   3.573   5.316
14692WAT      O44317   2.076   1.773   2.086
14692WAT     H144318   2.103   1.714   2.009
14692WAT     H244319   2.039   1.717   2.160
14693WAT      O44320   6.157   8.830   8.446
14693WAT     H144321   6.091   8.904   8.462
14693WAT     H244322   6.231   8.836   8.513
14694WAT      O44323   3.497   5.476   6.436
14694WAT     H144324   3.495   5.415   6.357
14694WAT     H244325   3.426   5.546   6.426
14695WAT      O44326   2.809   7.477   0.269
14695WAT     H144327   2.899   7.497   0.231
14695WAT     H244328   2.814   7.475   0.369
14696WAT      O44329   7.143   1.634   2.771
14696WAT     H144330   7.236   1.657   2.800
14696WAT     H244331   7.106   1.708   2.715
14697WAT      O44332   3.884   3.822   0.961
14697WAT     H144333   3.909   3.725   0.962
14697WAT     H244334   3.833   3.842   0.877
14698WAT      O44335   9.800   7.360   2.056
14698WAT     H144336   9.703   7.380   2.045
14698WAT     H244337   9.844   7.358   1.966
14699WAT      O44338   0.794   9.036   5.208
14699WAT     H144339   0.876   9.018   5.153
14699WAT     H244340   0.797   9.130   5.241
14700WAT      O44341   8.624   8.829   7.931
14700WAT     H144342   8.557   8.902   7.916
14700WAT     H244343   8.712   8.869   7.957
14701WAT      O44344   1.067   2.575   5.440
14701WAT     H144345   1.102   2.653   5.491
14701WAT     H244346   1.143   2.518   5.409
14702WAT      O44347   5.944   2.185   6.772
14702WAT     H144348   5.950   2.208   6.675
14702WAT     H244349   5.923   2.088   6.781
14703WAT      O44350   0.142   7.135   6.547
14703WAT     H144351   0.218   7.192   6.517
14703WAT     H244352   0.059   7.161   6.499
14704WAT      O44353   0.910   1.426   6.948
14704WAT     H144354   0.925   1.335   6.910
14704WAT     H244355   0.926   1.425   7.047
14705WAT      O44356   8.159   8.740   7.880
14705WAT     H144357   8.207   8.819   7.842
14705WAT     H244358   8.067   8.766   7.906
14706WAT      O44359   8.231   0.641   0.677
14706WAT     H144360   8.221   0.557   0.623
14706WAT     H244361   8.255   0.717   0.617
14707WAT      O44362   8.894   4.323   2.974
14707WAT     H144363   8.963   4.290   3.039
14707WAT     H244364   8.870   4.418   2.995
14708WAT      O44365   1.236   0.156   5.907
14708WAT     H144366   1.319   0.131   5.856
14708WAT     H244367   1.156   0.127   5.855
14709WAT      O44368   0.856   6.941   0.665
14709WAT     H144369   0.955   6.950   0.663
14709WAT     H244370   0.826   6.880   0.592
14710WAT      O44371   5.101   1.087   3.604
14710WAT     H144372   5.154   1.172   3.611
14710WAT     H244373   5.161   1.009   3.620
14711WAT      O44374   5.515   4.626   9.645
14711WAT     H144375   5.568   4.558   9.593
14711WAT     H244376   5.554   4.717   9.629
14712WAT      O44377   7.808   3.628   8.400
14712WAT     H144378   7.906   3.614   8.382
14712WAT     H244379   7.797   3.711   8.455
14713WAT      O44380   6.617   5.013   5.088
14713WAT     H144381   6.575   5.064   5.013
14713WAT     H244382   6.716   5.006   5.072
14714WAT      O44383   1.967   6.290   3.958
14714WAT     H144384   2.033   6.280   3.884
14714WAT     H244385   2.012   6.271   4.045
14715WAT      O44386   1.367   2.999   2.274
14715WAT     H144387   1.414   3.087   2.263
14715WAT     H244388   1.318   2.998   2.361
14716WAT      O44389   9.511   1.469   3.068
14716WAT     H144390   9.542   1.374   3.055
14716WAT     H244391   9.497   1.486   3.165
14717WAT      O44392   2.336   8.082   8.216
14717WAT     H144393   2.387   8.007   8.174
14717WAT     H244394   2.340   8.074   8.316
14718WAT      O44395   6.702   4.480   2.051
14718WAT     H144396   6.669   4.386   2.043
14718WAT     H244397   6.760   4.489   2.132
14719WAT      O44398   4.514   6.748   1.173
14719WAT     H144399   4.593   6.700   1.211
14719WAT     H244400   4.510   6.841   1.209
14720WAT      O44401   2.865   3.710   0.268
14720WAT     H144402   2.879   3.782   0.200
14720WAT     H244403   2.768   3.702   0.288
14721WAT      O44404   4.774   4.485   1.501
14721WAT     H144405   4.788   4.405   1.559
14721WAT     H244406   4.741   4.561   1.556
14722WAT      O44407   9.622   4.517   7.115
14722WAT     H144408   9.616   4.421   7.087
14722WAT     H244409   9.594   4.527   7.210
14723WAT      O44410   8.525   8.455   6.264
14723WAT     H144411   8.437   8.480   6.222
14723WAT     H244412   8.599   8.474   6.200
14724WAT      O44413   9.781   5.613   4.281
14724WAT     H144414   9.738   5.687   4.231
14724WAT     H244415   9.748   5.525   4.247
14725WAT      O44416   8.007   8.306   2.884
14725WAT     H144417   7.943   8.271   2.816
14725WAT     H244418   7.958   8.361   2.952
14726WAT      O44419   4.310   1.348   1.275
14726WAT     H144420   4.234   1.382   1.220
14726WAT     H244421   4.283   1.263   1.320
14727WAT      O44422   9.321   8.939   1.604
14727WAT     H144423   9.334   8.854   1.655
14727WAT     H244424   9.317   9.016   1.668
14728WAT      O44425   2.180   6.958   1.836
14728WAT     H144426   2.182   7.056   1.821
14728WAT     H244427   2.271   6.920   1.823
14729WAT      O44428   4.424   1.550   4.219
14729WAT     H144429   4.470   1.639   4.220
14729WAT     H244430   4.350   1.550   4.287
14730WAT      O44431   4.842   6.769   4.045
14730WAT     H144432   4.902   6.693   4.071
14730WAT     H244433   4.881   6.817   3.967
14731WAT      O44434   8.624   0.877   8.823
14731WAT     H144435   8.700   0.844   8.880
14731WAT     H244436   8.652   0.960   8.776
14732WAT      O44437   2.381   2.163   4.350
14732WAT     H144438   2.471   2.197   4.378
14732WAT     H244439   2.342   2.225   4.282
14733WAT      O44440   6.932   4.495   5.572
14733WAT     H144441   6.963   4.590   5.563
14733WAT     H244442   6.894   4.464   5.485
14734WAT      O44443   6.016   3.723   4.626
14734WAT     H144444   5.961   3.793   4.580
14734WAT     H244445   6.082   3.684   4.561
14735WAT      O44446   5.701   6.985   1.097
14735WAT     H144447   5.751   7.051   1.153
14735WAT     H244448   5.660   6.915   1.156
14736WAT      O44449   9.687   5.276   3.592
14736WAT     H144450   9.757   5.289   3.662
14736WAT     H244451   9.609   5.336   3.612
14737WAT      O44452   4.544   1.631   2.425
14737WAT     H144453   4.445   1.624   2.436
14737WAT     H244454   4.567   1.718   2.381
14738WAT      O44455   4.630   2.393   4.372
14738WAT     H144456   4.721   2.434   4.368
14738WAT     H244457   4.593   2.385   4.279
14739WAT      O44458   8.659   6.971   4.309
14739WAT     H144459   8.700   6.893   4.356
14739WAT     H244460   8.571   6.992   4.351
14740WAT      O44461   4.376   8.678   9.462
14740WAT     H144462   4.414   8.740   9.531
14740WAT     H244463   4.320   8.729   9.398
14741WAT      O44464   4.496   7.550   6.038
14741WAT     H144465   4.514   7.459   6.001
14741WAT     H244466   4.529   7.555   6.132
14742WAT      O44467   3.819   9.314   4.371
14742WAT     H144468   3.832   9.394   4.430
14742WAT     H244469   3.757   9.338   4.297
14743WAT      O44470   4.806   0.875   9.472
14743WAT     H144471   4.819   0.780   9.444
14743WAT     H244472   4.891   0.910   9.511
14744WAT      O44473   5.434   5.320   8.215
14744WAT     H144474   5.389   5.234   8.239
14744WAT     H244475   5.477   5.311   8.125
14745WAT      O44476   1.264   4.986   9.887
14745WAT     H144477   1.294   4.966   9.794
14745WAT     H244478   1.185   5.047   9.883
14746WAT      O44479   9.684   7.680   0.131
14746WAT     H144480   9.680   7.780   0.137
14746WAT     H244481   9.692   7.642   0.223
14747WAT      O44482   0.167   4.781   1.093
14747WAT     H144483   0.109   4.798   1.173
14747WAT     H244484   0.120   4.811   1.010
14748WAT      O44485   8.342   1.866   7.658
14748WAT     H144486   8.429   1.914   7.672
14748WAT     H244487   8.296   1.904   7.578
14749WAT      O44488   1.988   9.747   6.863
14749WAT     H144489   1.954   9.709   6.777
14749WAT     H244490   2.056   9.818   6.843
14750WAT      O44491   5.948   6.011   1.730
14750WAT     H144492   5.899   6.084   1.682
14750WAT     H244493   5.883   5.947   1.770
14751WAT      O44494   7.873   9.079   2.126
14751WAT     H144495   7.944   9.143   2.157
14751WAT     H244496   7.914   8.990   2.109
14752WAT      O44497   5.784   6.259   8.467
14752WAT     H144498   5.773   6.309   8.553
14752WAT     H244499   5.698   6.213   8.444
14753WAT      O44500   9.110   2.817   2.804
14753WAT     H144501   9.188   2.881   2.807
14753WAT     H244502   9.088   2.788   2.897
14754WAT      O44503   0.140   2.421   8.885
14754WAT     H144504   0.194   2.357   8.830
14754WAT     H244505   0.124   2.504   8.831
14755WAT      O44506   2.654   0.512   1.918
14755WAT     H144507   2.563   0.483   1.887
14755WAT     H244508   2.649   0.606   1.953
14756WAT      O44509   7.726   7.044   7.120
14756WAT     H144510   7.818   7.038   7.160
14756WAT     H244511   7.733   7.073   7.025
14757WAT      O44512   6.836   7.547   5.957
14757WAT     H144513   6.912   7.522   6.016
14757WAT     H244514   6.762   7.585   6.013
14758WAT      O44515   7.724   6.782   2.771
14758WAT     H144516   7.815   6.741   2.781
14758WAT     H244517   7.731   6.881   2.779
14759WAT      O44518   0.582   9.166   4.124
14759WAT     H144519   0.604   9.071   4.145
14759WAT     H244520   0.666   9.215   4.100
14760WAT      O44521   5.570   6.144   4.652
14760WAT     H144522   5.479   6.183   4.644
14760WAT     H244523   5.591   6.127   4.748
14761WAT      O44524   8.351   8.484   5.169
14761WAT     H144525   8.418   8.427   5.120
14761WAT     H244526   8.358   8.467   5.267
14762WAT      O44527   8.721   5.720   5.030
14762WAT     H144528   8.697   5.633   5.071
14762WAT     H244529   8.802   5.758   5.076
14763WAT      O44530   2.074   7.544   4.422
14763WAT     H144531   2.101   7.514   4.513
14763WAT     H244532   1.988   7.500   4.396
14764WAT      O44533   3.638   0.877   6.825
14764WAT     H144534   3.544   0.911   6.816
14764WAT     H244535   3.665   0.878   6.921
14765WAT      O44536   9.669   6.209   0.674
14765WAT     H144537   9.739   6.191   0.744
14765WAT     H244538   9.634   6.302   0.686
14766WAT      O44539   7.737   1.762   9.583
14766WAT     H144540   7.703   1.802   9.498
14766WAT     H244541   7.783   1.832   9.637
14767WAT      O44542   5.617   9.672   2.713
14767WAT     H144543   5.675   9.751   2.731
14767WAT     H244544   5.665   9.608   2.654
14768WAT      O44545   0.425   8.847   6.644
14768WAT     H144546   0.521   8.833   6.622
14768WAT     H244547   0.383   8.907   6.576
14769WAT      O44548   9.769   6.363   8.442
14769WAT     H144549   9.754   6.350   8.540
14769WAT     H244550   9.680   6.368   8.396
14770WAT      O44551   6.193   0.059   8.426
14770WAT     H144552   6.252  -0.017   8.454
14770WAT     H244553   6.246   0.144   8.426
14771WAT      O44554   7.208   4.336   8.152
14771WAT     H144555   7.200   4.284   8.237
14771WAT     H244556   7.212   4.434   8.173
14772WAT      O44557   8.282   6.031   3.243
14772WAT     H144558   8.287   6.131   3.252
14772WAT     H244559   8.237   5.993   3.324
14773WAT      O44560   6.349   3.862   9.722
14773WAT     H144561   6.259   3.819   9.734
14773WAT     H244562   6.336   3.958   9.697
14774WAT      O44563   8.446   6.747   2.819
14774WAT     H144564   8.520   6.786   2.764
14774WAT     H244565   8.358   6.779   2.784
14775WAT      O44566   6.635   6.667   6.399
14775WAT     H144567   6.699   6.681   6.323
14775WAT     H244568   6.644   6.742   6.464
14776WAT      O44569   4.157   1.990   7.423
14776WAT     H144570   4.243   1.940   7.420
14776WAT     H244571   4.175   2.086   7.447
14777WAT      O44572   4.304   6.011   8.918
14777WAT     H144573   4.314   5.959   8.833
14777WAT     H244574   4.232   6.079   8.908
14778WAT      O44575   9.514   4.219   8.632
14778WAT     H144576   9.564   4.262   8.708
14778WAT     H244577   9.502   4.122   8.651
14779WAT      O44578   0.080   3.863   1.274
14779WAT     H144579   0.119   3.802   1.343
14779WAT     H244580   0.089   3.821   1.184
14780WAT      O44581   8.377   8.982   4.776
14780WAT     H144582   8.336   9.069   4.747
14780WAT     H244583   8.435   8.947   4.703
14781WAT      O44584   5.161   7.179   2.468
14781WAT     H144585   5.190   7.093   2.512
14781WAT     H244586   5.069   7.201   2.498
14782WAT      O44587   5.558   3.558   9.214
14782WAT     H144588   5.548   3.481   9.277
14782WAT     H244589   5.557   3.524   9.120
14783WAT      O44590   6.280   3.693   4.466
14783WAT     H144591   6.363   3.684   4.520
14783WAT     H244592   6.287   3.772   4.406
14784WAT      O44593   7.679   3.755   9.073
14784WAT     H144594   7.744   3.817   9.117
14784WAT     H244595   7.690   3.663   9.111
14785WAT      O44596   1.204   6.879   5.517
14785WAT     H144597   1.184   6.971   5.482
14785WAT     H244598   1.166   6.810   5.455
14786WAT      O44599   8.428   9.639   1.434
14786WAT     H144600   8.384   9.726   1.416
14786WAT     H244601   8.523   9.654   1.461
14787WAT      O44602   3.737   0.787   0.272
14787WAT     H144603   3.711   0.839   0.354
14787WAT     H244604   3.777   0.850   0.205
14788WAT      O44605   1.281   1.972   3.373
14788WAT     H144606   1.367   2.013   3.404
14788WAT     H244607   1.301   1.891   3.319
14789WAT      O44608   9.608   0.695   2.390
14789WAT     H144609   9.566   0.702   2.480
14789WAT     H244610   9.552   0.637   2.331
14790WAT      O44611   3.043   6.684   1.199
14790WAT     H144612   3.090   6.616   1.256
14790WAT     H244613   3.062   6.667   1.103
14791WAT      O44614   1.020   6.651   3.810
14791WAT     H144615   0.994   6.720   3.877
14791WAT     H244616   1.102   6.682   3.761
14792WAT      O44617   2.926   5.393   4.516
14792WAT     H144618   2.937   5.490   4.537
14792WAT     H244619   2.832   5.366   4.536
14793WAT      O44620   9.668   9.782   7.683
14793WAT     H144621   9.674   9.820   7.590
14793WAT     H244622   9.755   9.737   7.706
14794WAT      O44623   9.505   6.185   6.256
14794WAT     H144624   9.488   6.234   6.341
14794WAT     H244625   9.602   6.164   6.248
14795WAT      O44626   3.582   7.256   7.237
14795WAT     H144627   3.522   7.276   7.160
14795WAT     H244628   3.650   7.188   7.211
14796WAT      O44629   7.740   0.522   2.517
14796WAT     H144630   7.704   0.443   2.467
14796WAT     H244631   7.683   0.602   2.498
14797WAT      O44632   3.276   0.798   8.459
14797WAT     H144633   3.293   0.881   8.512
14797WAT     H244634   3.178   0.791   8.439
14798WAT      O44635   7.563   1.001   4.573
14798WAT     H144636   7.613   1.083   4.597
14798WAT     H244637   7.550   0.944   4.654
14799WAT      O44638   0.912   0.626   1.549
14799WAT     H144639   0.972   0.641   1.628
14799WAT     H244640   0.946   0.677   1.470
14800WAT      O44641   6.913   2.479   7.983
14800WAT     H144642   6.875   2.535   8.057
14800WAT     H244643   6.850   2.404   7.963
14801WAT      O44644   6.478   9.848   1.981
14801WAT     H144645   6.421   9.795   1.918
14801WAT     H244646   6.527   9.786   2.042
14802WAT      O44647   1.361   1.501   5.637
14802WAT     H144648   1.336   1.488   5.733
14802WAT     H244649   1.278   1.517   5.583
14803WAT      O44650   3.885   1.589   6.728
14803WAT     H144651   3.915   1.684   6.736
14803WAT     H244652   3.959   1.533   6.693
14804WAT      O44653   5.335   1.850   0.838
14804WAT     H144654   5.306   1.828   0.931
14804WAT     H244655   5.276   1.921   0.800
14805WAT      O44656   7.392   6.067   4.196
14805WAT     H144657   7.453   6.146   4.197
14805WAT     H244658   7.350   6.059   4.106
14806WAT      O44659   9.678   2.955   8.422
14806WAT     H144660   9.666   3.038   8.477
14806WAT     H244661   9.640   2.877   8.470
14807WAT      O44662   2.600   4.431   2.169
14807WAT     H144663   2.666   4.400   2.101
14807WAT     H244664   2.508   4.406   2.139
14808WAT      O44665   6.742   8.155   2.608
14808WAT     H144666   6.758   8.156   2.707
14808WAT     H244667   6.795   8.081   2.567
14809WAT      O44668   7.938   3.363   1.267
14809WAT     H144669   7.861   3.394   1.211
14809WAT     H244670   7.949   3.425   1.345
14810WAT      O44671   0.825   1.716   8.512
14810WAT     H144672   0.838   1.812   8.538
14810WAT     H244673   0.822   1.659   8.594
14811WAT      O44674   1.843   6.483   1.871
14811WAT     H144675   1.796   6.561   1.912
14811WAT     H244676   1.932   6.512   1.836
14812WAT      O44677   0.078   7.015   5.193
14812WAT     H144678   0.008   7.086   5.204
14812WAT     H244679   0.149   7.027   5.263
14813WAT      O44680   3.988   8.887   6.427
14813WAT     H144681   4.025   8.870   6.518
14813WAT     H244682   3.892   8.856   6.424
14814WAT      O44683   5.667   7.713   3.302
14814WAT     H144684   5.742   7.662   3.261
14814WAT     H244685   5.675   7.711   3.402
14815WAT      O44686   1.538   2.249   4.379
14815WAT     H144687   1.570   2.157   4.401
14815WAT     H244688   1.462   2.274   4.439
14816WAT      O44689   1.004   1.687   0.885
14816WAT     H144690   0.910   1.695   0.919
14816WAT     H244691   1.028   1.591   0.876
14817WAT      O44692   6.963   9.210   4.143
14817WAT     H144693   7.058   9.217   4.173
14817WAT     H244694   6.908   9.168   4.215
14818WAT      O44695   6.206   9.618   1.337
14818WAT     H144696   6.120   9.635   1.385
14818WAT     H244697   6.282   9.627   1.401
14819WAT      O44698   3.654   9.672   4.436
14819WAT     H144699   3.641   9.658   4.338
14819WAT     H244700   3.568   9.653   4.484
14820WAT      O44701   9.148   9.203   6.335
14820WAT     H144702   9.052   9.227   6.347
14820WAT     H244703   9.170   9.123   6.390
14821WAT      O44704   6.631   6.500   3.602
14821WAT     H144705   6.632   6.479   3.699
14821WAT     H244706   6.662   6.420   3.550
14822WAT      O44707   6.342   1.906   2.463
14822WAT     H144708   6.317   1.886   2.557
14822WAT     H244709   6.268   1.878   2.402
14823WAT      O44710   7.741   5.023   3.086
14823WAT     H144711   7.722   5.121   3.086
14823WAT     H244712   7.830   5.006   3.128
14824WAT      O44713   8.140   2.203   4.224
14824WAT     H144714   8.067   2.135   4.222
14824WAT     H244715   8.158   2.236   4.131
14825WAT      O44716   8.359   5.039   3.503
14825WAT     H144717   8.352   5.044   3.603
14825WAT     H244718   8.456   5.033   3.477
14826WAT      O44719   4.857   4.078   4.893
14826WAT     H144720   4.885   4.035   4.807
14826WAT     H244721   4.781   4.141   4.876
14827WAT      O44722   3.775   6.085   4.422
14827WAT     H144723   3.803   5.991   4.401
14827WAT     H244724   3.845   6.149   4.390
14828WAT      O44725   8.588   8.272   2.441
14828WAT     H144726   8.507   8.225   2.406
14828WAT     H244727   8.610   8.237   2.532
14829WAT      O44728   2.646   0.527   0.398
14829WAT     H144729   2.648   0.492   0.492
14829WAT     H244730   2.556   0.565   0.378
14830WAT      O44731   2.691   1.918   9.401
14830WAT     H144732   2.744   1.921   9.316
14830WAT     H244733   2.620   1.849   9.394
14831WAT      O44734   0.492   1.235   9.182
14831WAT     H144735   0.415   1.209   9.239
14831WAT     H244736   0.551   1.156   9.167
14832WAT      O44737   6.539   7.262   9.562
14832WAT     H144738   6.608   7.201   9.601
14832WAT     H244739   6.460   7.266   9.623
14833WAT      O44740   2.002   2.943   0.665
14833WAT     H144741   1.906   2.920   0.651
14833WAT     H244742   2.059   2.869   0.628
14834WAT      O44743   5.847   9.289   6.561
14834WAT     H144744   5.930   9.339   6.538
14834WAT     H244745   5.783   9.293   6.485
14835WAT      O44746   5.832   0.981   8.185
14835WAT     H144747   5.736   1.010   8.190
14835WAT     H244748   5.875   1.023   8.105
14836WAT      O44749   3.626   0.628   8.570
14836WAT     H144750   3.540   0.589   8.603
14836WAT     H244751   3.609   0.681   8.487
14837WAT      O44752   7.903   3.812   5.925
14837WAT     H144753   7.908   3.792   5.827
14837WAT     H244754   7.916   3.910   5.939
14838WAT      O44755   1.306   3.053   6.835
14838WAT     H144756   1.370   2.979   6.815
14838WAT     H244757   1.212   3.019   6.830
14839WAT      O44758   7.723   6.555   0.463
14839WAT     H144759   7.717   6.571   0.365
14839WAT     H244760   7.631   6.554   0.502
14840WAT      O44761   6.892   0.903   1.375
14840WAT     H144762   6.805   0.940   1.409
14840WAT     H244763   6.952   0.977   1.347
14841WAT      O44764   4.513   2.188   8.302
14841WAT     H144765   4.476   2.142   8.222
14841WAT     H244766   4.466   2.276   8.315
14842WAT      O44767   3.721   4.335   8.785
14842WAT     H144768   3.757   4.247   8.816
14842WAT     H244769   3.638   4.319   8.731
14843WAT      O44770   9.517   5.343   2.590
14843WAT     H144771   9.469   5.278   2.530
14843WAT     H244772   9.467   5.430   2.592
14844WAT      O44773   7.007   3.960   0.521
14844WAT     H144774   6.928   4.018   0.503
14844WAT     H244775   6.981   3.887   0.584
14845WAT      O44776   0.100   8.293   9.892
14845WAT     H144777   0.200   8.282   9.895
14845WAT     H244778   0.078   8.382   9.851
14846WAT      O44779   2.524   9.214   4.041
14846WAT     H144780   2.472   9.300   4.039
14846WAT     H244781   2.524   9.178   4.135
14847WAT      O44782   7.272   7.297   2.820
14847WAT     H144783   7.185   7.331   2.782
14847WAT     H244784   7.291   7.343   2.906
14848WAT      O44785   9.228   0.068   2.088
14848WAT     H144786   9.152   0.004   2.096
14848WAT     H244787   9.220   0.119   2.002
14849WAT      O44788   3.408   3.896   3.609
14849WAT     H144789   3.470   3.842   3.552
14849WAT     H244790   3.461   3.951   3.673
14850WAT      O44791   5.211   5.792   8.140
14850WAT     H144792   5.227   5.818   8.045
14850WAT     H244793   5.291   5.743   8.175
14851WAT      O44794   6.028   5.175   7.540
14851WAT     H144795   6.108   5.231   7.523
14851WAT     H244796   5.966   5.179   7.461
14852WAT      O44797   9.713   0.688   1.851
14852WAT     H144798   9.637   0.729   1.901
14852WAT     H244799   9.799   0.727   1.883
14853WAT      O44800   1.322   5.332   3.249
14853WAT     H144801   1.224   5.342   3.231
14853WAT     H244802   1.349   5.237   3.234
14854WAT      O44803   3.982   9.806   4.897
14854WAT     H144804   4.070   9.806   4.851
14854WAT     H244805   3.990   9.854   4.985
14855WAT      O44806   5.091   6.527   2.596
14855WAT     H144807   5.014   6.464   2.609
14855WAT     H244808   5.057   6.611   2.552
14856WAT      O44809   7.061   0.541   4.739
14856WAT     H144810   7.099   0.507   4.653
14856WAT     H244811   6.961   0.540   4.735
14857WAT      O44812   7.149   7.643   2.799
14857WAT     H144813   7.080   7.586   2.755
14857WAT     H244814   7.233   7.641   2.745
14858WAT      O44815   1.165   8.762   9.216
14858WAT     H144816   1.160   8.785   9.119
14858WAT     H244817   1.205   8.671   9.227
14859WAT      O44818   5.034   6.788   5.977
14859WAT     H144819   4.977   6.846   5.918
14859WAT     H244820   5.043   6.698   5.935
14860WAT      O44821   7.791   7.828   5.076
14860WAT     H144822   7.743   7.855   4.993
14860WAT     H244823   7.758   7.739   5.106
14861WAT      O44824   4.651   5.834   1.933
14861WAT     H144825   4.662   5.742   1.969
14861WAT     H244826   4.570   5.837   1.874
14862WAT      O44827   5.681   4.375   2.858
14862WAT     H144828   5.626   4.456   2.839
14862WAT     H244829   5.637   4.320   2.928
14863WAT      O44830   9.283   9.138   5.070
14863WAT     H144831   9.226   9.066   5.110
14863WAT     H244832   9.354   9.165   5.135
14864WAT      O44833   6.130   3.537   2.490
14864WAT     H144834   6.066   3.612   2.510
14864WAT     H244835   6.098   3.454   2.536
14865WAT      O44836   1.479   9.248   0.370
14865WAT     H144837   1.395   9.194   0.367
14865WAT     H244838   1.464   9.332   0.422
14866WAT      O44839   5.637   2.974   6.850
14866WAT     H144840   5.692   2.972   6.766
14866WAT     H244841   5.554   2.920   6.836
14867WAT      O44842   4.435   3.865   9.500
14867WAT     H144843   4.335   3.863   9.504
14867WAT     H244844   4.472   3.867   9.593
14868WAT      O44845   5.848   6.067   2.051
14868WAT     H144846   5.820   6.035   1.961
14868WAT     H244847   5.907   5.999   2.094
14869WAT      O44848   6.535   1.872   9.133
14869WAT     H144849   6.438   1.894   9.124
14869WAT     H244850   6.567   1.903   9.223
14870WAT      O44851   5.634   5.543   1.730
14870WAT     H144852   5.600   5.482   1.802
14870WAT     H244853   5.729   5.567   1.749
14871WAT      O44854   9.032   9.300   4.622
14871WAT     H144855   9.002   9.396   4.625
14871WAT     H244856   9.126   9.294   4.656
14872WAT      O44857   1.536   1.430   1.928
14872WAT     H144858   1.461   1.480   1.971
14872WAT     H244859   1.614   1.491   1.917
14873WAT      O44860   4.305   9.408   5.548
14873WAT     H144861   4.235   9.389   5.479
14873WAT     H244862   4.337   9.322   5.587
14874WAT      O44863   6.063   1.115   2.569
14874WAT     H144864   6.033   1.024   2.596
14874WAT     H244865   6.009   1.147   2.491
14875WAT      O44866   2.302   4.816   2.903
14875WAT     H144867   2.239   4.893   2.919
14875WAT     H244868   2.327   4.775   2.991
14876WAT      O44869   5.891   2.922   0.081
14876WAT     H144870   5.819   2.853   0.074
14876WAT     H244871   5.849   3.013   0.085
14877WAT      O44872   5.079   3.039   8.097
14877WAT     H144873   5.063   2.965   8.162
14877WAT     H244874   5.004   3.043   8.030
14878WAT      O44875   5.546   3.948   3.526
14878WAT     H144876   5.515   3.858   3.496
14878WAT     H244877   5.565   3.946   3.625
14879WAT      O44878   1.149   5.286   9.325
14879WAT     H144879   1.060   5.246   9.301
14879WAT     H244880   1.162   5.283   9.424
14880WAT      O44881   1.836   9.025   3.200
14880WAT     H144882   1.797   8.994   3.286
14880WAT     H244883   1.826   8.953   3.131
14881WAT      O44884   4.226   0.389   2.458
14881WAT     H144885   4.181   0.476   2.478
14881WAT     H244886   4.317   0.407   2.420
14882WAT      O44887   7.839   9.787   7.572
14882WAT     H144888   7.783   9.868   7.590
14882WAT     H244889   7.856   9.780   7.473
14883WAT      O44890   5.241   0.393   1.135
14883WAT     H144891   5.271   0.298   1.124
14883WAT     H244892   5.163   0.410   1.074
14884WAT      O44893   8.177   1.457   2.828
14884WAT     H144894   8.193   1.362   2.801
14884WAT     H244895   8.241   1.483   2.899
14885WAT      O44896   9.015   3.262   0.358
14885WAT     H144897   9.053   3.354   0.347
14885WAT     H244898   8.924   3.258   0.316
14886WAT      O44899   6.070   7.640   6.189
14886WAT     H144900   5.978   7.610   6.212
14886WAT     H244901   6.136   7.575   6.227
14887WAT      O44902   8.755   6.722   0.838
14887WAT     H144903   8.849   6.690   0.849
14887WAT     H244904   8.750   6.786   0.762
14888WAT      O44905   8.820   6.122   0.283
14888WAT     H144906   8.812   6.025   0.304
14888WAT     H244907   8.752   6.147   0.214
14889WAT      O44908   3.759   6.502   5.503
14889WAT     H144909   3.769   6.565   5.426
14889WAT     H244910   3.719   6.551   5.581
14890WAT      O44911   5.770   4.515   3.161
14890WAT     H144912   5.833   4.467   3.223
14890WAT     H244913   5.764   4.465   3.075
14891WAT      O44914   9.835   2.117   7.341
14891WAT     H144915   9.850   2.172   7.259
14891WAT     H244916   9.880   2.160   7.419
14892WAT      O44917   9.053   6.071   6.008
14892WAT     H144918   9.148   6.042   5.999
14892WAT     H244919   9.009   6.017   6.080
14893WAT      O44920   7.159   8.339   1.854
14893WAT     H144921   7.164   8.299   1.946
14893WAT     H244922   7.130   8.434   1.860
14894WAT      O44923   7.131   5.761   7.669
14894WAT     H144924   7.054   5.825   7.680
14894WAT     H244925   7.176   5.778   7.582
14895WAT      O44926   0.040   0.993   5.328
14895WAT     H144927   0.038   0.913   5.388
14895WAT     H244928   0.089   0.971   5.244
14896WAT      O44929   4.034   7.798   2.491
14896WAT     H144930   4.075   7.795   2.582
14896WAT     H244931   3.964   7.726   2.483
14897WAT      O44932   7.919   9.841   0.734
14897WAT     H144933   7.843   9.815   0.676
14897WAT     H244934   7.915   9.790   0.820
14898WAT      O44935   5.229   5.411   1.638
14898WAT     H144936   5.245   5.450   1.547
14898WAT     H244937   5.161   5.338   1.631
14899WAT      O44938   5.668   0.367   5.331
14899WAT     H144939   5.676   0.335   5.236
14899WAT     H244940   5.589   0.428   5.338
14900WAT      O44941   1.076   6.291   0.190
14900WAT     H144942   1.005   6.290   0.119
14900WAT     H244943   1.121   6.202   0.193
14901WAT      O44944   7.254   5.422   4.483
14901WAT     H144945   7.274   5.488   4.555
14901WAT     H244946   7.174   5.452   4.431
14902WAT      O44947   4.788   2.347   5.641
14902WAT     H144948   4.765   2.361   5.737
14902WAT     H244949   4.716   2.384   5.583
14903WAT      O44950   1.190   2.859   9.382
14903WAT     H144951   1.181   2.762   9.361
14903WAT     H244952   1.169   2.914   9.301
14904WAT      O44953   8.133   5.874   5.537
14904WAT     H144954   8.195   5.825   5.476
14904WAT     H244955   8.065   5.811   5.574
14905WAT      O44956   3.745   8.395   4.040
14905WAT     H144957   3.821   8.437   3.989
14905WAT     H244958   3.697   8.331   3.980
14906WAT      O44959   9.259   5.759   4.234
14906WAT     H144960   9.266   5.702   4.316
14906WAT     H244961   9.165   5.790   4.222
14907WAT      O44962   7.722   5.534   9.818
14907WAT     H144963   7.635   5.492   9.846
14907WAT     H244964   7.728   5.535   9.718
14908WAT      O44965   4.944   9.661   0.319
14908WAT     H144966   4.896   9.700   0.397
14908WAT     H244967   4.938   9.724   0.241
14909WAT      O44968   1.600   1.168   1.431
14909WAT     H144969   1.533   1.241   1.443
14909WAT     H244970   1.620   1.127   1.520
14910WAT      O44971   8.217   0.904   1.912
14910WAT     H144972   8.232   0.894   2.010
14910WAT     H244973   8.280   0.972   1.875
14911WAT      O44974   2.872   1.238   9.484
14911WAT     H144975   2.828   1.166   9.537
14911WAT     H244976   2.881   1.210   9.389
14912WAT      O44977   6.860   7.093   2.509
14912WAT     H144978   6.934   7.056   2.565
14912WAT     H244979   6.869   7.192   2.503
14913WAT      O44980   3.397   7.528   5.629
14913WAT     H144981   3.323   7.486   5.575
14913WAT     H244982   3.406   7.624   5.605
14914WAT      O44983   3.252   3.357   5.261
14914WAT     H144984   3.189   3.319   5.329
14914WAT     H244985   3.326   3.291   5.245
14915WAT      O44986   6.094   6.334   9.086
14915WAT     H144987   6.175   6.280   9.108
14915WAT     H244988   6.087   6.412   9.148
14916WAT      O44989   9.705   2.599   1.047
14916WAT     H144990   9.721   2.564   1.140
14916WAT     H244991   9.678   2.695   1.052
14917WAT      O44992   9.576   1.131   8.884
14917WAT     H144993   9.650   1.113   8.947
14917WAT     H244994   9.554   1.048   8.833
14918WAT      O44995   1.331   4.681   2.987
14918WAT     H144996   1.301   4.620   3.061
14918WAT     H244997   1.351   4.626   2.906
14919WAT      O44998   0.030   2.097   5.309
14919WAT     H144999   0.013   2.047   5.224
14919WAT     H245000   0.040   2.033   5.384
14920WAT      O45001   3.179   3.774   1.498
14920WAT     H145002   3.275   3.772   1.525
14920WAT     H245003   3.153   3.868   1.474
14921WAT      O45004   9.493   8.302   8.041
14921WAT     H145005   9.404   8.345   8.027
14921WAT     H245006   9.564   8.359   8.000
14922WAT      O45007   7.155   3.044   0.355
14922WAT     H145008   7.236   3.092   0.322
14922WAT     H245009   7.154   2.951   0.318
14923WAT      O45010   8.117   4.695   5.596
14923WAT     H145011   8.082   4.766   5.534
14923WAT     H245012   8.214   4.678   5.576
14924WAT      O45013   3.502   9.220   6.977
14924WAT     H145014   3.409   9.255   6.973
14924WAT     H245015   3.546   9.252   7.061
14925WAT      O45016   4.952   7.104   6.060
14925WAT     H145017   5.047   7.133   6.072
14925WAT     H245018   4.930   7.032   6.125
14926WAT      O45019   4.978   2.744   7.181
14926WAT     H145020   4.966   2.665   7.241
14926WAT     H245021   4.906   2.811   7.200
14927WAT      O45022   5.755   6.551   6.376
14927WAT     H145023   5.823   6.616   6.409
14927WAT     H245024   5.786   6.457   6.396
14928WAT      O45025   7.106   1.832   1.650
14928WAT     H145026   7.093   1.734   1.663
14928WAT     H245027   7.025   1.871   1.605
14929WAT      O45028   6.231   1.936   4.800
14929WAT     H145029   6.212   1.984   4.714
14929WAT     H245030   6.294   1.990   4.856
14930WAT      O45031   6.193   4.256   3.495
14930WAT     H145032   6.176   4.343   3.540
14930WAT     H245033   6.236   4.272   3.406
14931WAT      O45034   6.775   7.474   0.216
14931WAT     H145035   6.735   7.543   0.276
14931WAT     H245036   6.707   7.445   0.148
14932WAT      O45037   4.930   8.083   2.240
14932WAT     H145038   4.878   8.151   2.189
14932WAT     H245039   5.005   8.048   2.184
14933WAT      O45040   2.612   0.021   3.258
14933WAT     H145041   2.534   0.009   3.320
14933WAT     H245042   2.697   0.008   3.308
14934WAT      O45043   4.549   7.882   3.720
14934WAT     H145044   4.604   7.881   3.803
14934WAT     H245045   4.601   7.842   3.645
14935WAT      O45046   8.555   5.805   7.502
14935WAT     H145047   8.545   5.739   7.576
14935WAT     H245048   8.649   5.839   7.500
14936WAT      O45049   9.714   4.845   8.054
14936WAT     H145050   9.811   4.835   8.030
14936WAT     H245051   9.690   4.778   8.124
14937WAT      O45052   6.586   0.746   5.649
14937WAT     H145053   6.621   0.656   5.624
14937WAT     H245054   6.625   0.815   5.588
14938WAT      O45055   6.819   3.316   3.375
14938WAT     H145056   6.777   3.268   3.298
14938WAT     H245057   6.839   3.250   3.448
14939WAT      O45058   1.667   2.613   4.571
14939WAT     H145059   1.703   2.544   4.507
14939WAT     H245060   1.687   2.584   4.665
14940WAT      O45061   6.469   2.486   8.037
14940WAT     H145062   6.468   2.450   8.130
14940WAT     H245063   6.377   2.517   8.012
14941WAT      O45064   7.744   0.205   8.682
14941WAT     H145065   7.693   0.119   8.686
14941WAT     H245066   7.735   0.253   8.769
14942WAT      O45067   7.342   1.893   7.266
14942WAT     H145068   7.302   1.984   7.255
14942WAT     H245069   7.272   1.824   7.247
14943WAT      O45070   5.438   7.890   2.407
14943WAT     H145071   5.514   7.864   2.347
14943WAT     H245072   5.367   7.819   2.403
14944WAT      O45073   7.271   0.113   1.663
14944WAT     H145074   7.298   0.207   1.684
14944WAT     H245075   7.208   0.112   1.586
14945WAT      O45076   2.733   1.594   8.976
14945WAT     H145077   2.720   1.495   8.972
14945WAT     H245078   2.760   1.621   9.068
14946WAT      O45079   1.823   3.878   3.900
14946WAT     H145080   1.908   3.927   3.921
14946WAT     H245081   1.793   3.828   3.981
14947WAT      O45082   7.330   9.614   6.818
14947WAT     H145083   7.348   9.516   6.832
14947WAT     H245084   7.308   9.657   6.906
14948WAT      O45085   5.523   1.452   3.915
14948WAT     H145086   5.496   1.500   3.998
14948WAT     H245087   5.579   1.512   3.858
14949WAT      O45088   7.818   0.484   4.364
14949WAT     H145089   7.723   0.460   4.387
14949WAT     H245090   7.880   0.439   4.428
14950WAT      O45091   4.785   7.584   0.044
14950WAT     H145092   4.827   7.520   0.108
14950WAT     H245093   4.799   7.551  -0.050
14951WAT      O45094   3.226   2.589   9.108
14951WAT     H145095   3.249   2.583   9.011
14951WAT     H245096   3.245   2.501   9.152
14952WAT      O45097   8.622   0.866   4.887
14952WAT     H145098   8.572   0.951   4.904
14952WAT     H245099   8.680   0.845   4.966
14953WAT      O45100   2.175   7.457   3.052
14953WAT     H145101   2.150   7.377   3.106
14953WAT     H245102   2.101   7.524   3.056
14954WAT      O45103   5.185   7.666   2.798
14954WAT     H145104   5.159   7.573   2.773
14954WAT     H245105   5.149   7.730   2.730
14955WAT      O45106   7.236   7.418   2.475
14955WAT     H145107   7.239   7.497   2.414
14955WAT     H245108   7.327   7.400   2.512
14956WAT      O45109   0.708   2.901   0.748
14956WAT     H145110   0.784   2.842   0.719
14956WAT     H245111   0.695   2.893   0.847
14957WAT      O45112   5.303   3.945   6.955
14957WAT     H145113   5.356   3.861   6.968
14957WAT     H245114   5.210   3.931   6.987
14958WAT      O45115   1.371   5.450   5.012
14958WAT     H145116   1.293   5.395   5.042
14958WAT     H245117   1.338   5.529   4.960
14959WAT      O45118   1.265   1.638   8.638
14959WAT     H145119   1.284   1.699   8.561
14959WAT     H245120   1.189   1.578   8.616
14960WAT      O45121   7.074   3.917   9.032
14960WAT     H145122   7.005   3.860   9.076
14960WAT     H245123   7.029   3.993   8.985
14961WAT      O45124   9.015   8.082   1.943
14961WAT     H145125   9.100   8.111   1.898
14961WAT     H245126   8.944   8.071   1.874
14962WAT      O45127   8.135   1.468   6.857
14962WAT     H145128   8.113   1.373   6.838
14962WAT     H245129   8.077   1.528   6.803
14963WAT      O45130   1.415   4.064   9.461
14963WAT     H145131   1.355   3.988   9.487
14963WAT     H245132   1.360   4.139   9.425
14964WAT      O45133   4.062   3.052   3.115
14964WAT     H145134   4.063   2.954   3.093
14964WAT     H245135   4.131   3.070   3.186
14965WAT      O45136   0.654   1.985   3.177
14965WAT     H145137   0.640   1.931   3.094
14965WAT     H245138   0.624   1.932   3.257
14966WAT      O45139   7.463   3.179   7.596
14966WAT     H145140   7.428   3.215   7.509
14966WAT     H245141   7.441   3.243   7.669
14967WAT      O45142   1.411   3.408   3.356
14967WAT     H145143   1.447   3.500   3.342
14967WAT     H245144   1.399   3.392   3.454
14968WAT      O45145   7.458   3.703   5.793
14968WAT     H145146   7.405   3.645   5.855
14968WAT     H245147   7.431   3.685   5.699
14969WAT      O45148   3.014   6.866   3.206
14969WAT     H145149   3.110   6.894   3.208
14969WAT     H245150   2.955   6.947   3.220
14970WAT      O45151   0.613   4.070   2.070
14970WAT     H145152   0.513   4.077   2.078
14970WAT     H245153   0.655   4.148   2.116
14971WAT      O45154   9.684   9.630   9.786
14971WAT     H145155   9.620   9.587   9.721
14971WAT     H245156   9.637   9.650   9.871
14972WAT      O45157   2.237   7.001   5.887
14972WAT     H145158   2.162   7.012   5.952
14972WAT     H245159   2.216   6.926   5.824
14973WAT      O45160   3.443   1.676   3.478
14973WAT     H145161   3.471   1.690   3.573
14973WAT     H245162   3.365   1.613   3.475
14974WAT      O45163   5.695   6.512   1.652
14974WAT     H145164   5.695   6.536   1.749
14974WAT     H245165   5.627   6.441   1.635
14975WAT      O45166   7.241   1.642   5.906
14975WAT     H145167   7.229   1.699   5.988
14975WAT     H245168   7.244   1.700   5.825
14976WAT      O45169   2.212   1.913   1.168
14976WAT     H145170   2.184   1.829   1.215
14976WAT     H245171   2.190   1.906   1.070
14977WAT      O45172   6.006   3.665   0.051
14977WAT     H145173   6.088   3.649  -0.003
14977WAT     H245174   5.928   3.618   0.008
14978WAT      O45175   4.469   0.051   1.262
14978WAT     H145176   4.430   0.142   1.247
14978WAT     H245177   4.426  -0.014   1.200
14979WAT      O45178   9.043   3.253   6.122
14979WAT     H145179   9.010   3.275   6.213
14979WAT     H245180   9.139   3.280   6.113
14980WAT      O45181   7.219   8.267   7.945
14980WAT     H145182   7.258   8.234   7.859
14980WAT     H245183   7.270   8.230   8.022
14981WAT      O45184   2.618   4.211   2.660
14981WAT     H145185   2.707   4.177   2.690
14981WAT     H245186   2.608   4.307   2.686
14982WAT      O45187   1.393   1.714   7.036
14982WAT     H145188   1.391   1.629   6.983
14982WAT     H245189   1.301   1.737   7.067
14983WAT      O45190   0.363   5.123   9.642
14983WAT     H145191   0.279   5.082   9.676
14983WAT     H245192   0.396   5.191   9.707
14984WAT      O45193   8.959   4.407   8.948
14984WAT     H145194   8.941   4.499   8.983
14984WAT     H245195   9.024   4.412   8.873
14985WAT      O45196   0.661   8.906   3.867
14985WAT     H145197   0.700   8.995   3.844
14985WAT     H245198   0.666   8.893   3.966
14986WAT      O45199   6.088   1.262   7.154
14986WAT     H145200   6.050   1.174   7.182
14986WAT     H245201   6.127   1.308   7.234
14987WAT      O45202   4.793   6.307   0.641
14987WAT     H145203   4.710   6.252   0.632
14987WAT     H245204   4.793   6.379   0.572
14988WAT      O45205   7.602   5.663   9.067
14988WAT     H145206   7.513   5.647   9.111
14988WAT     H245207   7.626   5.759   9.075
14989WAT      O45208   4.063   0.301   6.339
14989WAT     H145209   4.108   0.391   6.338
14989WAT     H245210   3.997   0.298   6.414
14990WAT      O45211   0.195   5.737   8.076
14990WAT     H145212   0.147   5.732   7.989
14990WAT     H245213   0.280   5.788   8.064
14991WAT      O45214   8.889   5.857   1.906
14991WAT     H145215   8.894   5.836   2.004
14991WAT     H245216   8.971   5.822   1.860
14992WAT      O45217   0.653   2.263   7.660
14992WAT     H145218   0.568   2.211   7.642
14992WAT     H245219   0.652   2.347   7.606
14993WAT      O45220   7.012   8.739   7.765
14993WAT     H145221   7.029   8.641   7.755
14993WAT     H245222   6.933   8.766   7.711
14994WAT      O45223   2.677   0.453   4.765
14994WAT     H145224   2.658   0.511   4.844
14994WAT     H245225   2.591   0.435   4.716
14995WAT      O45226   7.240   7.995   5.796
14995WAT     H145227   7.152   8.039   5.816
14995WAT     H245228   7.309   8.032   5.858
14996WAT      O45229   3.756   0.934   9.153
14996WAT     H145230   3.704   0.951   9.069
14996WAT     H245231   3.803   0.846   9.146
14997WAT      O45232   3.963   8.578   4.938
14997WAT     H145233   3.878   8.605   4.894
14997WAT     H245234   4.023   8.658   4.949
14998WAT      O45235   5.919   2.731   4.493
14998WAT     H145236   5.947   2.718   4.588
14998WAT     H245237   5.984   2.687   4.432
14999WAT      O45238   2.056   3.118   5.210
14999WAT     H145239   2.104   3.203   5.190
14999WAT     H245240   2.064   3.098   5.308
15000WAT      O45241   1.001   8.901   9.525
15000WAT     H145242   0.911   8.860   9.544
15000WAT     H245243   1.071   8.855   9.580
15001WAT      O45244   0.805   0.130   3.993
15001WAT     H145245   0.865   0.051   4.010
15001WAT     H245246   0.714   0.110   4.029
15002WAT      O45247   3.206   9.339   7.413
15002WAT     H145248   3.242   9.248   7.434
15002WAT     H245249   3.272   9.408   7.443
15003WAT      O45250   4.204   5.874   6.933
15003WAT     H145251   4.299   5.863   6.902
15003WAT     H245252   4.147   5.906   6.858
15004WAT      O45253   4.545   0.406   5.687
15004WAT     H145254   4.466   0.463   5.663
15004WAT     H245255   4.551   0.329   5.624
15005WAT      O45256   7.850   5.141   8.297
15005WAT     H145257   7.872   5.057   8.247
15005WAT     H245258   7.934   5.180   8.335
15006WAT      O45259   9.027   1.459   0.434
15006WAT     H145260   9.074   1.386   0.483
15006WAT     H245261   8.936   1.429   0.409
15007WAT      O45262   0.517   3.340   3.737
15007WAT     H145263   0.608   3.367   3.705
15007WAT     H245264   0.465   3.422   3.762
15008WAT      O45265   4.364   8.359   7.295
15008WAT     H145266   4.437   8.333   7.233
15008WAT     H245267   4.350   8.458   7.290
15009WAT      O45268   8.490   8.837   6.063
15009WAT     H145269   8.502   8.916   6.003
15009WAT     H245270   8.509   8.864   6.158
15010WAT      O45271   1.083   5.079   9.569
15010WAT     H145272   1.037   5.006   9.518
15010WAT     H245273   1.015   5.138   9.612
15011WAT      O45274   0.778   4.133   7.964
15011WAT     H145275   0.744   4.224   7.942
15011WAT     H245276   0.841   4.137   8.041
15012WAT      O45277   9.107   2.291   5.762
15012WAT     H145278   9.195   2.293   5.714
15012WAT     H245279   9.071   2.198   5.763
15013WAT      O45280   3.312   4.860   5.592
15013WAT     H145281   3.247   4.839   5.518
15013WAT     H245282   3.296   4.797   5.669
15014WAT      O45283   4.931   9.522   8.002
15014WAT     H145284   4.859   9.452   7.999
15014WAT     H245285   4.926   9.579   7.920
15015WAT      O45286   2.741   0.118   0.617
15015WAT     H145287   2.682   0.044   0.584
15015WAT     H245288   2.834   0.103   0.582
15016WAT      O45289   5.140   3.375   2.391
15016WAT     H145290   5.173   3.463   2.424
15016WAT     H245291   5.046   3.385   2.357
15017WAT      O45292   7.880   1.500   5.348
15017WAT     H145293   7.956   1.563   5.335
15017WAT     H245294   7.795   1.543   5.317
15018WAT      O45295   4.521   5.594   4.776
15018WAT     H145296   4.569   5.621   4.859
15018WAT     H245297   4.464   5.669   4.744
15019WAT      O45298   2.053   0.329   1.932
15019WAT     H145299   2.035   0.425   1.910
15019WAT     H245300   2.051   0.274   1.848
15020WAT      O45301   0.011   9.008   5.544
15020WAT     H145302  -0.031   9.007   5.635
15020WAT     H245303  -0.054   8.970   5.477
15021WAT      O45304   9.889   5.096   6.031
15021WAT     H145305   9.839   5.127   6.112
15021WAT     H245306   9.941   5.014   6.053
15022WAT      O45307   2.522   2.732   2.444
15022WAT     H145308   2.438   2.683   2.419
15022WAT     H245309   2.580   2.674   2.501
15023WAT      O45310   1.946   4.817   0.278
15023WAT     H145311   1.850   4.790   0.288
15023WAT     H245312   1.964   4.842   0.184
15024WAT      O45313   7.149   6.663   8.757
15024WAT     H145314   7.233   6.716   8.745
15024WAT     H245315   7.146   6.625   8.849
15025WAT      O45316   4.137   9.495   2.690
15025WAT     H145317   4.209   9.426   2.690
15025WAT     H245318   4.130   9.535   2.599
15026WAT      O45319   3.172   0.935   8.779
15026WAT     H145320   3.177   0.836   8.775
15026WAT     H245321   3.223   0.974   8.702
15027WAT      O45322   3.949   3.260   3.305
15027WAT     H145323   4.018   3.189   3.293
15027WAT     H245324   3.940   3.282   3.402
15028WAT      O45325   4.731   8.929   7.714
15028WAT     H145326   4.827   8.914   7.692
15028WAT     H245327   4.706   8.876   7.795
15029WAT      O45328   1.826   5.109   3.618
15029WAT     H145329   1.919   5.081   3.641
15029WAT     H245330   1.799   5.066   3.531
15030WAT      O45331   0.174   3.645   6.180
15030WAT     H145332   0.231   3.715   6.222
15030WAT     H245333   0.228   3.595   6.111
15031WAT      O45334   1.431   7.008   2.333
15031WAT     H145335   1.486   6.953   2.270
15031WAT     H245336   1.488   7.080   2.373
15032WAT      O45337   6.832   9.419   1.517
15032WAT     H145338   6.756   9.391   1.458
15032WAT     H245339   6.818   9.514   1.546
15033WAT      O45340   9.428   1.169   0.745
15033WAT     H145341   9.410   1.180   0.843
15033WAT     H245342   9.503   1.104   0.732
15034WAT      O45343   5.785   9.655   8.012
15034WAT     H145344   5.807   9.747   7.979
15034WAT     H245345   5.831   9.587   7.955
15035WAT      O45346   9.624   5.406   6.855
15035WAT     H145347   9.622   5.308   6.871
15035WAT     H245348   9.571   5.453   6.925
15036WAT      O45349   6.538   6.542   0.449
15036WAT     H145350   6.560   6.449   0.476
15036WAT     H245351   6.623   6.592   0.429
15037WAT      O45352   3.793   2.978   2.728
15037WAT     H145353   3.703   3.018   2.715
15037WAT     H245354   3.790   2.910   2.801
15038WAT      O45355   6.797   0.924   5.195
15038WAT     H145356   6.750   0.957   5.112
15038WAT     H245357   6.759   0.970   5.275
15039WAT      O45358   9.089   6.249   0.107
15039WAT     H145359   9.076   6.177   0.175
15039WAT     H245360   9.072   6.338   0.150
15040WAT      O45361   3.108   0.047   7.899
15040WAT     H145362   3.164   0.122   7.862
15040WAT     H245363   3.159   0.001   7.971
15041WAT      O45364   8.104   9.135   9.619
15041WAT     H145365   8.074   9.102   9.709
15041WAT     H245366   8.133   9.057   9.563
15042WAT      O45367   0.425   0.769   6.155
15042WAT     H145368   0.360   0.816   6.096
15042WAT     H245369   0.427   0.813   6.245
15043WAT      O45370   4.765   7.828   4.778
15043WAT     H145371   4.784   7.871   4.866
15043WAT     H245372   4.703   7.885   4.725
15044WAT      O45373   8.131   2.255   0.531
15044WAT     H145374   8.129   2.322   0.605
15044WAT     H245375   8.205   2.190   0.547
15045WAT      O45376   4.796   6.615   6.092
15045WAT     H145377   4.753   6.705   6.093
15045WAT     H245378   4.836   6.598   6.002
15046WAT      O45379   6.461   2.947   2.129
15046WAT     H145380   6.382   2.940   2.068
15046WAT     H245381   6.455   2.876   2.199
15047WAT      O45382   7.568   2.794   6.786
15047WAT     H145383   7.528   2.782   6.695
15047WAT     H245384   7.518   2.865   6.835
15048WAT      O45385   3.001   1.957   1.011
15048WAT     H145386   3.039   2.046   1.035
15048WAT     H245387   2.910   1.948   1.050
15049WAT      O45388   7.168   6.445   5.490
15049WAT     H145389   7.116   6.530   5.481
15049WAT     H245390   7.254   6.463   5.539
15050WAT      O45391   5.155   1.978   8.455
15050WAT     H145392   5.252   2.002   8.452
15050WAT     H245393   5.138   1.904   8.390
15051WAT      O45394   5.328   6.921   2.959
15051WAT     H145395   5.265   6.957   2.891
15051WAT     H245396   5.403   6.872   2.914
15052WAT      O45397   3.960   0.781   4.580
15052WAT     H145398   3.920   0.790   4.488
15052WAT     H245399   3.887   0.775   4.648
15053WAT      O45400   8.813   1.742   8.124
15053WAT     H145401   8.765   1.722   8.039
15053WAT     H245402   8.823   1.841   8.134
15054WAT      O45403   0.337   1.553   2.714
15054WAT     H145404   0.422   1.539   2.765
15054WAT     H245405   0.328   1.650   2.692
15055WAT      O45406   8.736   1.966   8.610
15055WAT     H145407   8.818   1.909   8.610
15055WAT     H245408   8.727   2.012   8.699
15056WAT      O45409   8.571   4.381   9.325
15056WAT     H145410   8.591   4.286   9.347
15056WAT     H245411   8.575   4.394   9.226
15057WAT      O45412   2.282   3.102   8.039
15057WAT     H145413   2.340   3.022   8.058
15057WAT     H245414   2.218   3.115   8.115
15058WAT      O45415   3.654   9.091   3.957
15058WAT     H145416   3.644   9.185   3.924
15058WAT     H245417   3.614   9.084   4.048
15059WAT      O45418   1.281   9.266   7.649
15059WAT     H145419   1.312   9.257   7.744
15059WAT     H245420   1.262   9.363   7.629
15060WAT      O45421   1.094   8.413   2.870
15060WAT     H145422   1.121   8.375   2.958
15060WAT     H245423   1.082   8.512   2.878
15061WAT      O45424   3.330   7.323   6.560
15061WAT     H145425   3.403   7.259   6.537
15061WAT     H245426   3.243   7.288   6.525
15062WAT      O45427   0.203   4.481   3.395
15062WAT     H145428   0.291   4.436   3.409
15062WAT     H245429   0.129   4.423   3.430
15063WAT      O45430   3.765   3.609   2.451
15063WAT     H145431   3.690   3.545   2.439
15063WAT     H245432   3.811   3.591   2.538
15064WAT      O45433   3.282   6.012   9.276
15064WAT     H145434   3.367   5.976   9.237
15064WAT     H245435   3.211   5.942   9.271
15065WAT      O45436   5.412   7.125   6.878
15065WAT     H145437   5.313   7.113   6.870
15065WAT     H245438   5.447   7.061   6.946
15066WAT      O45439   6.992   5.363   6.303
15066WAT     H145440   7.011   5.284   6.362
15066WAT     H245441   7.067   5.428   6.310
15067WAT      O45442   3.998   1.447   7.155
15067WAT     H145443   4.013   1.542   7.128
15067WAT     H245444   3.932   1.404   7.093
15068WAT      O45445   0.292   8.875   8.915
15068WAT     H145446   0.240   8.818   8.851
15068WAT     H245447   0.388   8.849   8.912
15069WAT      O45448   1.008   1.825   2.937
15069WAT     H145449   1.084   1.815   2.872
15069WAT     H245450   1.015   1.914   2.982
15070WAT      O45451   8.490   9.029   7.512
15070WAT     H145452   8.513   8.942   7.555
15070WAT     H245453   8.533   9.104   7.562
15071WAT      O45454   2.213   9.262   0.165
15071WAT     H145455   2.170   9.179   0.200
15071WAT     H245456   2.287   9.237   0.102
15072WAT      O45457   1.222   5.500   1.597
15072WAT     H145458   1.322   5.504   1.599
15072WAT     H245459   1.185   5.548   1.677
15073WAT      O45460   1.890   1.909   0.589
15073WAT     H145461   1.941   1.842   0.535
15073WAT     H245462   1.900   1.999   0.547
15074WAT      O45463   1.184   4.625   7.144
15074WAT     H145464   1.166   4.541   7.195
15074WAT     H245465   1.281   4.629   7.118
15075WAT      O45466   3.500   5.509   3.578
15075WAT     H145467   3.571   5.505   3.508
15075WAT     H245468   3.433   5.580   3.553
15076WAT      O45469   3.827   4.028   4.571
15076WAT     H145470   3.758   4.002   4.638
15076WAT     H245471   3.807   3.983   4.484
15077WAT      O45472   8.804   2.413   7.404
15077WAT     H145473   8.832   2.317   7.410
15077WAT     H245474   8.872   2.465   7.353
15078WAT      O45475   6.353   1.037   8.571
15078WAT     H145476   6.305   0.959   8.532
15078WAT     H245477   6.377   1.017   8.666
15079WAT      O45478   2.990   5.158   4.654
15079WAT     H145479   2.967   5.240   4.603
15079WAT     H245480   2.984   5.078   4.594
15080WAT      O45481   7.820   1.189   1.337
15080WAT     H145482   7.893   1.198   1.268
15080WAT     H245483   7.753   1.262   1.325
15081WAT      O45484   1.676   4.896   1.181
15081WAT     H145485   1.710   4.975   1.129
15081WAT     H245486   1.695   4.812   1.129
15082WAT      O45487   5.946   4.605   2.242
15082WAT     H145488   5.912   4.610   2.148
15082WAT     H245489   5.964   4.698   2.276
15083WAT      O45490   2.346   6.800   4.620
15083WAT     H145491   2.422   6.844   4.574
15083WAT     H245492   2.262   6.814   4.567
15084WAT      O45493   6.371   3.813   0.092
15084WAT     H145494   6.384   3.856   0.002
15084WAT     H245495   6.286   3.848   0.133
15085WAT      O45496   7.104   7.217   9.818
15085WAT     H145497   7.042   7.234   9.894
15085WAT     H245498   7.088   7.286   9.747
15086WAT      O45499   6.363   7.446   3.680
15086WAT     H145500   6.287   7.501   3.646
15086WAT     H245501   6.442   7.457   3.619
15087WAT      O45502   0.360   5.336   2.689
15087WAT     H145503   0.280   5.384   2.726
15087WAT     H245504   0.351   5.238   2.708
15088WAT      O45505   9.721   4.575   3.087
15088WAT     H145506   9.645   4.574   3.022
15088WAT     H245507   9.730   4.667   3.126
15089WAT      O45508   4.244   8.380   3.984
15089WAT     H145509   4.201   8.349   3.899
15089WAT     H245510   4.180   8.365   4.060
15090WAT      O45511   3.120   5.095   2.359
15090WAT     H145512   3.220   5.097   2.351
15090WAT     H245513   3.083   5.024   2.299
15091WAT      O45514   7.827   0.206   3.510
15091WAT     H145515   7.755   0.267   3.478
15091WAT     H245516   7.916   0.244   3.485
15092WAT      O45517   4.625   7.761   2.670
15092WAT     H145518   4.585   7.739   2.759
15092WAT     H245519   4.693   7.692   2.646
15093WAT      O45520   0.299   0.089   4.814
15093WAT     H145521   0.272  -0.007   4.817
15093WAT     H245522   0.394   0.096   4.783
15094WAT      O45523   6.184   7.816   8.545
15094WAT     H145524   6.265   7.874   8.548
15094WAT     H245525   6.104   7.871   8.522
15095WAT      O45526   2.001   9.648   2.393
15095WAT     H145527   2.053   9.697   2.324
15095WAT     H245528   1.943   9.579   2.349
15096WAT      O45529   4.021   8.975   4.629
15096WAT     H145530   3.936   9.018   4.600
15096WAT     H245531   4.099   9.026   4.592
15097WAT      O45532   3.582   9.788   8.122
15097WAT     H145533   3.652   9.742   8.178
15097WAT     H245534   3.594   9.887   8.129
15098WAT      O45535   7.728   3.159   0.977
15098WAT     H145536   7.749   3.245   1.024
15098WAT     H245537   7.813   3.114   0.950
15099WAT      O45538   1.107   2.987   2.792
15099WAT     H145539   1.089   3.085   2.803
15099WAT     H245540   1.196   2.965   2.832
15100WAT      O45541   6.246   3.317   2.316
15100WAT     H145542   6.198   3.400   2.287
15100WAT     H245543   6.224   3.243   2.252
15101WAT      O45544   5.923   4.329   2.994
15101WAT     H145545   5.943   4.231   2.997
15101WAT     H245546   5.850   4.346   2.929
15102WAT      O45547   0.644   6.456   8.067
15102WAT     H145548   0.620   6.477   7.973
15102WAT     H245549   0.743   6.441   8.074
15103WAT      O45550   6.070   5.794   4.067
15103WAT     H145551   6.022   5.774   4.152
15103WAT     H245552   6.169   5.785   4.082
15104WAT      O45553   0.949   1.983   5.995
15104WAT     H145554   0.928   1.995   5.898
15104WAT     H245555   0.882   2.032   6.050
15105WAT      O45556   1.307   2.618   3.524
15105WAT     H145557   1.250   2.543   3.489
15105WAT     H245558   1.310   2.615   3.624
15106WAT      O45559   8.246   8.891   9.830
15106WAT     H145560   8.302   8.914   9.751
15106WAT     H245561   8.185   8.815   9.807
15107WAT      O45562   1.488   6.949   6.726
15107WAT     H145563   1.473   6.903   6.814
15107WAT     H245564   1.483   6.881   6.653
15108WAT      O45565   3.907   7.290   9.521
15108WAT     H145566   3.898   7.333   9.611
15108WAT     H245567   3.898   7.191   9.531
15109WAT      O45568   1.074   7.881   4.747
15109WAT     H145569   1.020   7.848   4.825
15109WAT     H245570   1.041   7.838   4.663
15110WAT      O45571   8.049   2.425   7.595
15110WAT     H145572   8.094   2.353   7.649
15110WAT     H245573   8.115   2.464   7.531
15111WAT      O45574   3.118   0.100   3.720
15111WAT     H145575   3.059   0.117   3.641
15111WAT     H245576   3.195   0.042   3.691
15112WAT      O45577   7.325   1.998   8.230
15112WAT     H145578   7.315   2.063   8.154
15112WAT     H245579   7.365   1.913   8.196
15113WAT      O45580   7.254   1.360   1.109
15113WAT     H145581   7.311   1.315   1.041
15113WAT     H245582   7.280   1.457   1.115
15114WAT      O45583   0.880   1.087   0.640
15114WAT     H145584   0.979   1.087   0.623
15114WAT     H245585   0.850   1.181   0.658
15115WAT      O45586   8.407   2.437   4.392
15115WAT     H145587   8.369   2.490   4.468
15115WAT     H245588   8.422   2.343   4.422
15116WAT      O45589   3.440   3.598   9.660
15116WAT     H145590   3.380   3.593   9.740
15116WAT     H245591   3.468   3.506   9.634
15117WAT      O45592   7.736   9.270   9.507
15117WAT     H145593   7.824   9.237   9.543
15117WAT     H245594   7.712   9.356   9.552
15118WAT      O45595   0.411   2.931   2.634
15118WAT     H145596   0.349   2.856   2.613
15118WAT     H245597   0.505   2.904   2.611
15119WAT      O45598   6.752   2.731   8.888
15119WAT     H145599   6.666   2.774   8.917
15119WAT     H245600   6.751   2.719   8.789
15120WAT      O45601   0.855   1.612   3.821
15120WAT     H145602   0.899   1.702   3.818
15120WAT     H245603   0.920   1.544   3.854
15121WAT      O45604   9.002   1.757   6.427
15121WAT     H145605   9.064   1.806   6.488
15121WAT     H245606   9.011   1.794   6.334
15122WAT      O45607   1.117   5.008   3.565
15122WAT     H145608   1.064   5.090   3.588
15122WAT     H245609   1.098   4.981   3.471
15123WAT      O45610   0.296   8.906   2.503
15123WAT     H145611   0.373   8.854   2.465
15123WAT     H245612   0.241   8.847   2.561
15124WAT      O45613   3.180   3.479   7.517
15124WAT     H145614   3.193   3.549   7.447
15124WAT     H245615   3.247   3.406   7.503
15125WAT      O45616   3.046   3.786   5.247
15125WAT     H145617   3.130   3.818   5.291
15125WAT     H245618   3.067   3.753   5.155
15126WAT      O45619   9.335   8.246   3.729
15126WAT     H145620   9.366   8.334   3.766
15126WAT     H245621   9.269   8.204   3.791
15127WAT      O45622   0.739   4.040   4.305
15127WAT     H145623   0.781   3.996   4.384
15127WAT     H245624   0.700   4.128   4.332
15128WAT      O45625   8.409   7.651   3.218
15128WAT     H145626   8.387   7.748   3.207
15128WAT     H245627   8.503   7.634   3.190
15129WAT      O45628   6.751   3.052   8.005
15129WAT     H145629   6.651   3.052   8.005
15129WAT     H245630   6.784   3.012   7.920
15130WAT      O45631   7.395   8.186   0.087
15130WAT     H145632   7.384   8.197  -0.012
15130WAT     H245633   7.479   8.135   0.106
15131WAT      O45634   4.949   1.549   9.061
15131WAT     H145635   4.931   1.616   9.134
15131WAT     H245636   4.911   1.582   8.975
15132WAT      O45637   4.962   9.662   3.534
15132WAT     H145638   4.928   9.639   3.625
15132WAT     H245639   5.044   9.609   3.515
15133WAT      O45640   7.728   8.533   9.738
15133WAT     H145641   7.732   8.479   9.654
15133WAT     H245642   7.644   8.511   9.788
15134WAT      O45643   0.092   9.536   2.041
15134WAT     H145644   0.020   9.601   2.016
15134WAT     H245645   0.062   9.479   2.117
15135WAT      O45646   9.593   3.199   4.913
15135WAT     H145647   9.555   3.137   4.845
15135WAT     H245648   9.644   3.147   4.981
15136WAT      O45649   6.912   2.007   2.219
15136WAT     H145650   6.849   2.059   2.277
15136WAT     H245651   6.861   1.942   2.163
15137WAT      O45652   6.538   7.012   8.445
15137WAT     H145653   6.576   7.080   8.507
15137WAT     H245654   6.527   6.925   8.493
15138WAT      O45655   5.660   8.565   0.254
15138WAT     H145656   5.716   8.495   0.300
15138WAT     H245657   5.646   8.642   0.316
15139WAT      O45658   6.726   2.178   2.321
15139WAT     H145659   6.810   2.221   2.355
15139WAT     H245660   6.666   2.248   2.283
15140WAT      O45661   6.115   5.027   7.190
15140WAT     H145662   6.124   4.965   7.111
15140WAT     H245663   6.201   5.074   7.206
15141WAT      O45664   1.751   3.515   2.225
15141WAT     H145665   1.833   3.460   2.240
15141WAT     H245666   1.711   3.540   2.313
15142WAT      O45667   2.108   8.776   5.042
15142WAT     H145668   2.143   8.682   5.044
15142WAT     H245669   2.018   8.778   5.086
15143WAT      O45670   4.550   7.484   6.933
15143WAT     H145671   4.611   7.528   6.999
15143WAT     H245672   4.484   7.427   6.981
15144WAT      O45673   0.591   8.172   6.590
15144WAT     H145674   0.690   8.184   6.586
15144WAT     H245675   0.549   8.210   6.507
15145WAT      O45676   7.636   0.529   5.120
15145WAT     H145677   7.732   0.517   5.094
15145WAT     H245678   7.578   0.492   5.048
15146WAT      O45679   2.160   7.031   1.262
15146WAT     H145680   2.205   6.956   1.213
15146WAT     H245681   2.215   7.058   1.340
15147WAT      O45682   7.558   6.157   2.711
15147WAT     H145683   7.635   6.208   2.749
15147WAT     H245684   7.476   6.174   2.767
15148WAT      O45685   0.125   5.101   5.786
15148WAT     H145686   0.075   5.116   5.871
15148WAT     H245687   0.066   5.123   5.708
15149WAT      O45688   9.110   1.732   8.825
15149WAT     H145689   9.196   1.775   8.851
15149WAT     H245690   9.111   1.636   8.853
15150WAT      O45691   5.813   9.613   6.033
15150WAT     H145692   5.772   9.525   6.058
15150WAT     H245693   5.894   9.629   6.088
15151WAT      O45694   1.561   9.132   5.952
15151WAT     H145695   1.546   9.228   5.927
15151WAT     H245696   1.489   9.102   6.014
15152WAT      O45697   2.645   3.274   8.595
15152WAT     H145698   2.658   3.289   8.693
15152WAT     H245699   2.732   3.246   8.553
15153WAT      O45700   2.525   4.163   1.042
15153WAT     H145701   2.568   4.250   1.017
15153WAT     H245702   2.538   4.098   0.967
15154WAT      O45703   7.445   2.501   2.883
15154WAT     H145704   7.515   2.500   2.812
15154WAT     H245705   7.381   2.426   2.867
15155WAT      O45706   1.970   4.944   9.576
15155WAT     H145707   2.056   4.906   9.542
15155WAT     H245708   1.989   5.021   9.638
15156WAT      O45709   3.628   0.907   6.377
15156WAT     H145710   3.590   0.819   6.351
15156WAT     H245711   3.696   0.895   6.449
15157WAT      O45712   1.663   2.070   5.314
15157WAT     H145713   1.680   2.065   5.216
15157WAT     H245714   1.565   2.064   5.332
15158WAT      O45715   0.335   0.625   7.952
15158WAT     H145716   0.294   0.566   8.021
15158WAT     H245717   0.266   0.654   7.886
15159WAT      O45718   1.804   8.848   9.326
15159WAT     H145719   1.739   8.866   9.400
15159WAT     H245720   1.758   8.855   9.238
15160WAT      O45721   1.585   8.798   7.161
15160WAT     H145722   1.492   8.797   7.197
15160WAT     H245723   1.616   8.892   7.151
15161WAT      O45724   5.401   8.076   5.443
15161WAT     H145725   5.361   8.065   5.352
15161WAT     H245726   5.337   8.043   5.512
15162WAT      O45727   7.485   2.247   0.078
15162WAT     H145728   7.579   2.242   0.044
15162WAT     H245729   7.471   2.335   0.124
15163WAT      O45730   4.971   6.289   3.293
15163WAT     H145731   5.019   6.341   3.364
15163WAT     H245732   4.891   6.244   3.333
15164WAT      O45733   4.951   6.110   1.627
15164WAT     H145734   4.897   6.081   1.548
15164WAT     H245735   4.917   6.066   1.709
15165WAT      O45736   0.520   4.992   8.640
15165WAT     H145737   0.550   4.910   8.689
15165WAT     H245738   0.431   5.021   8.676
15166WAT      O45739   0.048   5.725   0.389
15166WAT     H145740   0.030   5.660   0.315
15166WAT     H245741  -0.038   5.755   0.428
15167WAT      O45742   2.558   0.813   1.852
15167WAT     H145743   2.482   0.813   1.788
15167WAT     H245744   2.604   0.902   1.851
15168WAT      O45745   9.140   3.309   5.791
15168WAT     H145746   9.156   3.212   5.770
15168WAT     H245747   9.205   3.338   5.862
15169WAT      O45748   6.215   2.786   4.945
15169WAT     H145749   6.266   2.804   5.030
15169WAT     H245750   6.152   2.862   4.928
15170WAT      O45751   7.274   4.191   5.191
15170WAT     H145752   7.350   4.201   5.127
15170WAT     H245753   7.265   4.274   5.246
15171WAT      O45754   4.292   6.141   6.938
15171WAT     H145755   4.239   6.058   6.952
15171WAT     H245756   4.369   6.121   6.877
15172WAT      O45757   5.823   9.509   2.183
15172WAT     H145758   5.801   9.428   2.129
15172WAT     H245759   5.900   9.489   2.244
15173WAT      O45760   4.522   1.905   3.006
15173WAT     H145761   4.598   1.862   2.957
15173WAT     H245762   4.491   1.986   2.956
15174WAT      O45763   5.195   9.034   4.964
15174WAT     H145764   5.249   9.093   4.903
15174WAT     H245765   5.106   9.076   4.981
15175WAT      O45766   4.598   3.541   3.552
15175WAT     H145767   4.629   3.608   3.485
15175WAT     H245768   4.508   3.568   3.587
15176WAT      O45769   9.715   2.172   0.616
15176WAT     H145770   9.737   2.264   0.647
15176WAT     H245771   9.720   2.109   0.693
15177WAT      O45772   3.460   7.398   9.656
15177WAT     H145773   3.398   7.330   9.695
15177WAT     H245774   3.451   7.398   9.557
15178WAT      O45775   2.798   6.885   8.894
15178WAT     H145776   2.826   6.927   8.808
15178WAT     H245777   2.862   6.813   8.919
15179WAT      O45778   5.774   7.327   1.038
15179WAT     H145779   5.813   7.274   0.963
15179WAT     H245780   5.679   7.349   1.017
15180WAT      O45781   6.940   4.480   8.913
15180WAT     H145782   6.993   4.542   8.855
15180WAT     H245783   6.860   4.527   8.949
15181WAT      O45784   5.713   4.584   1.747
15181WAT     H145785   5.694   4.682   1.745
15181WAT     H245786   5.781   4.564   1.818
15182WAT      O45787   5.732   1.627   4.471
15182WAT     H145788   5.638   1.656   4.490
15182WAT     H245789   5.780   1.610   4.556
15183WAT      O45790   1.072   1.117   6.312
15183WAT     H145791   0.979   1.093   6.337
15183WAT     H245792   1.136   1.087   6.383
15184WAT      O45793   2.471   5.907   5.341
15184WAT     H145794   2.423   5.926   5.427
15184WAT     H245795   2.532   5.983   5.319
15185WAT      O45796   2.437   4.175   4.176
15185WAT     H145797   2.494   4.128   4.110
15185WAT     H245798   2.370   4.111   4.215
15186WAT      O45799   8.039   2.623   9.890
15186WAT     H145800   7.949   2.632   9.932
15186WAT     H245801   8.047   2.686   9.812
15187WAT      O45802   8.740   6.506   2.686
15187WAT     H145803   8.836   6.484   2.671
15187WAT     H245804   8.710   6.468   2.773
15188WAT      O45805   6.856   5.975   2.106
15188WAT     H145806   6.797   6.053   2.124
15188WAT     H245807   6.940   6.005   2.061
15189WAT      O45808   5.684   0.843   3.623
15189WAT     H145809   5.618   0.875   3.556
15189WAT     H245810   5.656   0.873   3.715
15190WAT      O45811   6.117   4.941   0.256
15190WAT     H145812   6.198   5.000   0.252
15190WAT     H245813   6.055   4.965   0.182
15191WAT      O45814   0.713   0.740   8.433
15191WAT     H145815   0.750   0.670   8.371
15191WAT     H245816   0.677   0.696   8.515
15192WAT      O45817   3.049   7.562   0.185
15192WAT     H145818   3.137   7.520   0.164
15192WAT     H245819   3.056   7.661   0.179
15193WAT      O45820   7.590   4.385   9.383
15193WAT     H145821   7.501   4.428   9.402
15193WAT     H245822   7.579   4.321   9.307
15194WAT      O45823   4.828   0.073   2.301
15194WAT     H145824   4.750   0.070   2.238
15194WAT     H245825   4.820   0.154   2.360
15195WAT      O45826   2.623   3.990   5.264
15195WAT     H145827   2.705   3.984   5.207
15195WAT     H245828   2.585   4.082   5.259
15196WAT      O45829   0.946   4.344   4.618
15196WAT     H145830   0.960   4.369   4.523
15196WAT     H245831   0.848   4.344   4.638
15197WAT      O45832   0.756   0.190   8.610
15197WAT     H145833   0.691   0.211   8.683
15197WAT     H245834   0.830   0.257   8.610
15198WAT      O45835   6.552   3.090   4.989
15198WAT     H145836   6.516   3.001   4.960
15198WAT     H245837   6.493   3.127   5.061
15199WAT      O45838   3.965   1.523   2.793
15199WAT     H145839   3.965   1.453   2.865
15199WAT     H245840   4.057   1.560   2.783
15200WAT      O45841   6.124   2.580   4.371
15200WAT     H145842   6.119   2.485   4.338
15200WAT     H245843   6.168   2.582   4.460
15201WAT      O45844   3.400   4.066   5.852
15201WAT     H145845   3.468   4.019   5.907
15201WAT     H245846   3.434   4.078   5.758
15202WAT      O45847   6.084   6.148   4.752
15202WAT     H145848   6.102   6.081   4.680
15202WAT     H245849   6.148   6.225   4.743
15203WAT      O45850   8.537   0.862   8.521
15203WAT     H145851   8.452   0.810   8.530
15203WAT     H245852   8.528   0.950   8.568
15204WAT      O45853   9.178   4.932   7.468
15204WAT     H145854   9.276   4.942   7.486
15204WAT     H245855   9.156   4.972   7.379
15205WAT      O45856   9.115   1.131   9.510
15205WAT     H145857   9.033   1.098   9.557
15205WAT     H245858   9.174   1.179   9.576
15206WAT      O45859   6.826   9.277   5.417
15206WAT     H145860   6.890   9.352   5.398
15206WAT     H245861   6.771   9.259   5.335
15207WAT      O45862   7.936   5.159   4.984
15207WAT     H145863   7.881   5.151   5.066
15207WAT     H245864   7.936   5.254   4.952
15208WAT      O45865   0.059   7.546   6.442
15208WAT     H145866   0.083   7.489   6.363
15208WAT     H245867   0.063   7.490   6.525
15209WAT      O45868   9.087   3.259   0.617
15209WAT     H145869   9.063   3.247   0.521
15209WAT     H245870   9.183   3.235   0.631
15210WAT      O45871   3.221   0.269   7.801
15210WAT     H145872   3.277   0.312   7.730
15210WAT     H245873   3.155   0.336   7.836
15211WAT      O45874   5.207   3.068   3.443
15211WAT     H145875   5.127   3.011   3.458
15211WAT     H245876   5.279   3.015   3.399
15212WAT      O45877   3.969   8.982   3.542
15212WAT     H145878   3.921   9.041   3.607
15212WAT     H245879   4.042   8.933   3.590
15213WAT      O45880   1.112   7.150   3.538
15213WAT     H145881   1.137   7.137   3.442
15213WAT     H245882   1.056   7.232   3.548
15214WAT      O45883   9.569   2.352   0.437
15214WAT     H145884   9.636   2.416   0.399
15214WAT     H245885   9.615   2.267   0.461
15215WAT      O45886   5.104   7.822   8.764
15215WAT     H145887   5.170   7.859   8.830
15215WAT     H245888   5.038   7.892   8.740
15216WAT      O45889   2.269   0.582   9.615
15216WAT     H145890   2.308   0.671   9.637
15216WAT     H245891   2.196   0.561   9.681
15217WAT      O45892   5.493   8.461   1.759
15217WAT     H145893   5.395   8.475   1.750
15217WAT     H245894   5.530   8.523   1.828
15218WAT      O45895   6.920   8.748   4.559
15218WAT     H145896   6.853   8.679   4.530
15218WAT     H245897   6.994   8.753   4.492
15219WAT      O45898   3.371   4.768   5.245
15219WAT     H145899   3.398   4.771   5.148
15219WAT     H245900   3.379   4.674   5.278
15220WAT      O45901   9.243   7.444   9.091
15220WAT     H145902   9.254   7.543   9.104
15220WAT     H245903   9.207   7.403   9.175
15221WAT      O45904   0.800   2.991   0.366
15221WAT     H145905   0.888   3.035   0.384
15221WAT     H245906   0.815   2.914   0.303
15222WAT      O45907   0.591   2.557   3.160
15222WAT     H145908   0.632   2.626   3.220
15222WAT     H245909   0.646   2.474   3.164
15223WAT      O45910   8.941   9.502   6.791
15223WAT     H145911   9.018   9.521   6.729
15223WAT     H245912   8.946   9.407   6.821
15224WAT      O45913   8.454   1.410   5.867
15224WAT     H145914   8.436   1.378   5.774
15224WAT     H245915   8.510   1.341   5.916
15225WAT      O45916   7.274   7.297   1.931
15225WAT     H145917   7.269   7.216   1.872
15225WAT     H245918   7.341   7.361   1.894
15226WAT      O45919   7.808   6.425   9.369
15226WAT     H145920   7.905   6.446   9.377
15226WAT     H245921   7.757   6.509   9.349
15227WAT      O45922   2.937   8.357   2.877
15227WAT     H145923   2.975   8.441   2.913
15227WAT     H245924   2.999   8.281   2.896
15228WAT      O45925   8.432   6.323   7.209
15228WAT     H145926   8.491   6.250   7.174
15228WAT     H245927   8.353   6.283   7.256
15229WAT      O45928   6.480   3.246   4.171
15229WAT     H145929   6.401   3.308   4.172
15229WAT     H245930   6.557   3.291   4.127
15230WAT      O45931   8.519   0.153   5.472
15230WAT     H145932   8.601   0.153   5.529
15230WAT     H245933   8.542   0.118   5.381
15231WAT      O45934   0.049   7.626   5.396
15231WAT     H145935   0.103   7.702   5.432
15231WAT     H245936  -0.008   7.659   5.321
15232WAT      O45937   7.328   3.827   1.262
15232WAT     H145938   7.409   3.773   1.284
15232WAT     H245939   7.354   3.901   1.200
15233WAT      O45940   9.226   5.567   8.383
15233WAT     H145941   9.163   5.588   8.457
15233WAT     H245942   9.251   5.651   8.335
15234WAT      O45943   1.072   5.601   8.712
15234WAT     H145944   1.148   5.604   8.648
15234WAT     H245945   1.014   5.681   8.699
15235WAT      O45946   5.762   3.625   1.071
15235WAT     H145947   5.739   3.696   1.003
15235WAT     H245948   5.696   3.551   1.065
15236WAT      O45949   4.800   6.796   5.667
15236WAT     H145950   4.704   6.826   5.670
15236WAT     H245951   4.850   6.836   5.744
15237WAT      O45952   2.466   6.879   7.603
15237WAT     H145953   2.492   6.829   7.520
15237WAT     H245954   2.390   6.941   7.582
15238WAT      O45955   4.016   2.382   6.914
15238WAT     H145956   4.050   2.394   6.821
15238WAT     H245957   4.090   2.346   6.972
15239WAT      O45958   2.037   7.666   5.275
15239WAT     H145959   1.968   7.598   5.298
15239WAT     H245960   2.100   7.628   5.208
15240WAT      O45961   2.689   6.212   2.586
15240WAT     H145962   2.751   6.288   2.564
15240WAT     H245963   2.639   6.233   2.670
15241WAT      O45964   5.367   8.204   2.259
15241WAT     H145965   5.439   8.171   2.198
15241WAT     H245966   5.285   8.147   2.248
15242WAT      O45967   2.317   0.964   0.095
15242WAT     H145968   2.291   0.984   0.001
15242WAT     H245969   2.396   0.903   0.096
15243WAT      O45970   9.517   6.682   5.225
15243WAT     H145971   9.562   6.615   5.285
15243WAT     H245972   9.585   6.733   5.174
15244WAT      O45973   9.872   3.993   5.505
15244WAT     H145974   9.878   3.947   5.416
15244WAT     H245975   9.783   4.037   5.514
15245WAT      O45976   7.877   0.002   2.666
15245WAT     H145977   7.931   0.082   2.637
15245WAT     H245978   7.805   0.032   2.728
15246WAT      O45979   6.952   3.418   0.439
15246WAT     H145980   6.902   3.497   0.473
15246WAT     H245981   6.909   3.386   0.354
15247WAT      O45982   8.956   4.249   5.742
15247WAT     H145983   8.970   4.157   5.707
15247WAT     H245984   9.044   4.288   5.771
15248WAT      O45985   6.539   3.310   3.110
15248WAT     H145986   6.619   3.259   3.142
15248WAT     H245987   6.520   3.385   3.173
15249WAT      O45988   5.006   1.294   7.935
15249WAT     H145989   4.979   1.277   7.841
15249WAT     H245990   4.928   1.280   7.996
15250WAT      O45991   0.521   1.273   3.355
15250WAT     H145992   0.561   1.240   3.269
15250WAT     H245993   0.534   1.372   3.363
15251WAT      O45994   9.770   6.081   1.080
15251WAT     H145995   9.701   6.131   1.132
15251WAT     H245996   9.747   5.984   1.079
15252WAT      O45997   6.068   8.893   1.871
15252WAT     H145998   6.097   8.934   1.784
15252WAT     H245999   6.107   8.946   1.947
15253WAT      O46000   1.784   4.816   0.645
15253WAT     H146001   1.729   4.759   0.585
15253WAT     H246002   1.829   4.758   0.713
15254WAT      O46003   1.309   2.507   5.285
15254WAT     H146004   1.376   2.577   5.308
15254WAT     H246005   1.293   2.508   5.186
15255WAT      O46006   2.960   0.317   4.453
15255WAT     H146007   2.919   0.316   4.544
15255WAT     H246008   3.014   0.401   4.441
15256WAT      O46009   8.775   5.641   1.152
15256WAT     H146010   8.814   5.678   1.237
15256WAT     H246011   8.843   5.586   1.105
15257WAT      O46012   5.813   3.336   3.815
15257WAT     H146013   5.878   3.267   3.846
15257WAT     H246014   5.803   3.406   3.886
15258WAT      O46015   8.578   3.115   7.050
15258WAT     H146016   8.534   3.099   6.961
15258WAT     H246017   8.546   3.045   7.115
15259WAT      O46018   3.657   7.986   9.806
15259WAT     H146019   3.636   8.058   9.873
15259WAT     H246020   3.606   8.003   9.722
15260WAT      O46021   5.078   1.282   2.830
15260WAT     H146022   5.096   1.338   2.749
15260WAT     H246023   5.144   1.305   2.901
15261WAT      O46024   1.146   8.434   6.327
15261WAT     H146025   1.170   8.515   6.274
15261WAT     H246026   1.186   8.441   6.419
15262WAT      O46027   5.309   3.194   2.546
15262WAT     H146028   5.297   3.271   2.483
15262WAT     H246029   5.293   3.108   2.498
15263WAT      O46030   1.630   8.055   7.404
15263WAT     H146031   1.674   8.096   7.324
15263WAT     H246032   1.671   8.091   7.488
15264WAT      O46033   0.244   0.088   4.039
15264WAT     H146034   0.206   0.085   3.946
15264WAT     H246035   0.186   0.033   4.100
15265WAT      O46036   5.990   2.286   9.343
15265WAT     H146037   6.028   2.235   9.420
15265WAT     H246038   5.905   2.331   9.371
15266WAT      O46039   0.720   2.112   2.540
15266WAT     H146040   0.707   2.168   2.459
15266WAT     H246041   0.763   2.166   2.612
15267WAT      O46042   4.019   3.552   1.883
15267WAT     H146043   4.060   3.555   1.975
15267WAT     H246044   3.920   3.568   1.890
15268WAT      O46045   7.913   8.727   6.134
15268WAT     H146046   7.987   8.663   6.112
15268WAT     H246047   7.873   8.702   6.222
15269WAT      O46048   5.425   8.314   7.722
15269WAT     H146049   5.457   8.243   7.785
15269WAT     H246050   5.346   8.279   7.671
15270WAT      O46051   7.648   8.262   7.368
15270WAT     H146052   7.586   8.184   7.382
15270WAT     H246053   7.661   8.309   7.455
15271WAT      O46054   3.818   7.810   2.958
15271WAT     H146055   3.893   7.746   2.945
15271WAT     H246056   3.813   7.837   3.054
15272WAT      O46057   6.062   7.521   9.519
15272WAT     H146058   5.973   7.505   9.563
15272WAT     H246059   6.085   7.442   9.462
15273WAT      O46060   8.219   3.225   3.698
15273WAT     H146061   8.207   3.152   3.632
15273WAT     H246062   8.143   3.290   3.690
15274WAT      O46063   9.886   8.682   0.325
15274WAT     H146064   9.892   8.643   0.417
15274WAT     H246065   9.838   8.770   0.330
15275WAT      O46066   2.573   1.136   0.957
15275WAT     H146067   2.496   1.114   1.017
15275WAT     H246068   2.658   1.137   1.011
15276WAT      O46069   8.150   5.793   1.830
15276WAT     H146070   8.130   5.879   1.875
15276WAT     H246071   8.247   5.772   1.841
15277WAT      O46072   5.262   0.101   1.122
15277WAT     H146073   5.361   0.095   1.139
15277WAT     H246074   5.213   0.077   1.206
15278WAT      O46075   6.712   1.088   1.092
15278WAT     H146076   6.647   1.100   1.166
15278WAT     H246077   6.722   1.174   1.042
15279WAT      O46078   3.980   9.170   3.228
15279WAT     H146079   3.983   9.149   3.326
15279WAT     H246080   3.988   9.269   3.216
15280WAT      O46081   6.438   5.603   4.292
15280WAT     H146082   6.384   5.658   4.228
15280WAT     H246083   6.535   5.625   4.282
15281WAT      O46084   0.668   3.288   2.457
15281WAT     H146085   0.664   3.377   2.502
15281WAT     H246086   0.736   3.231   2.502
15282WAT      O46087   1.331   9.145   2.325
15282WAT     H146088   1.349   9.055   2.365
15282WAT     H246089   1.251   9.140   2.265
15283WAT      O46090   7.762   9.756   4.010
15283WAT     H146091   7.800   9.664   4.005
15283WAT     H246092   7.837   9.823   4.003
15284WAT      O46093   9.854   0.666   3.193
15284WAT     H146094   9.817   0.573   3.201
15284WAT     H246095   9.846   0.712   3.281
15285WAT      O46096   3.168   5.394   6.270
15285WAT     H146097   3.256   5.354   6.246
15285WAT     H246098   3.178   5.447   6.355
15286WAT      O46099   0.155   5.947   1.904
15286WAT     H146100   0.154   5.855   1.866
15286WAT     H246101   0.063   5.974   1.930
15287WAT      O46102   4.406   5.033   7.293
15287WAT     H146103   4.493   5.083   7.293
15287WAT     H246104   4.335   5.091   7.333
15288WAT      O46105   0.933   9.545   1.221
15288WAT     H146106   0.897   9.607   1.150
15288WAT     H246107   0.996   9.480   1.179
15289WAT      O46108   5.580   0.013   3.431
15289WAT     H146109   5.550  -0.049   3.504
15289WAT     H246110   5.658   0.066   3.463
15290WAT      O46111   3.857   9.096   3.767
15290WAT     H146112   3.846   9.183   3.720
15290WAT     H246113   3.784   9.086   3.835
15291WAT      O46114   3.084   2.472   3.025
15291WAT     H146115   3.126   2.543   2.968
15291WAT     H246116   2.985   2.486   3.030
15292WAT      O46117   9.038   4.787   7.667
15292WAT     H146118   9.094   4.841   7.605
15292WAT     H246119   9.097   4.733   7.727
15293WAT      O46120   9.871   6.570   2.317
15293WAT     H146121   9.949   6.550   2.377
15293WAT     H246122   9.888   6.531   2.226
15294WAT      O46123   2.137   9.123   1.933
15294WAT     H146124   2.048   9.143   1.890
15294WAT     H246125   2.195   9.074   1.869
15295WAT      O46126   2.081   2.995   1.870
15295WAT     H146127   2.008   2.967   1.808
15295WAT     H246128   2.107   3.090   1.849
15296WAT      O46129   7.379   0.319   8.448
15296WAT     H146130   7.330   0.318   8.360
15296WAT     H246131   7.467   0.273   8.436
15297WAT      O46132   1.212   6.896   7.307
15297WAT     H146133   1.219   6.916   7.405
15297WAT     H246134   1.115   6.895   7.281
15298WAT      O46135   6.199   8.493   5.824
15298WAT     H146136   6.224   8.426   5.754
15298WAT     H246137   6.280   8.522   5.874
15299WAT      O46138   1.564   9.229   5.145
15299WAT     H146139   1.632   9.303   5.144
15299WAT     H246140   1.579   9.170   5.065
15300WAT      O46141   4.561   7.109   6.143
15300WAT     H146142   4.551   7.190   6.086
15300WAT     H246143   4.609   7.133   6.228
15301WAT      O46144   1.744   3.511   6.744
15301WAT     H146145   1.740   3.535   6.646
15301WAT     H246146   1.790   3.423   6.755
15302WAT      O46147   8.636   1.059   9.756
15302WAT     H146148   8.663   1.059   9.852
15302WAT     H246149   8.557   1.119   9.745
15303WAT      O46150   9.677   5.780   4.091
15303WAT     H146151   9.635   5.853   4.037
15303WAT     H246152   9.666   5.693   4.044
15304WAT      O46153   6.490   6.120   8.016
15304WAT     H146154   6.538   6.076   8.092
15304WAT     H246155   6.422   6.183   8.052
15305WAT      O46156   1.826   5.054   3.049
15305WAT     H146157   1.755   5.029   2.984
15305WAT     H246158   1.864   4.971   3.090
15306WAT      O46159   3.019   4.487   2.331
15306WAT     H146160   2.981   4.523   2.245
15306WAT     H246161   3.095   4.544   2.360
15307WAT      O46162   0.338   6.207   3.135
15307WAT     H146163   0.293   6.119   3.119
15307WAT     H246164   0.275   6.282   3.111
15308WAT      O46165   4.252   4.583   4.780
15308WAT     H146166   4.201   4.498   4.790
15308WAT     H246167   4.199   4.658   4.820
15309WAT      O46168   4.061   6.679   0.505
15309WAT     H146169   4.019   6.769   0.501
15309WAT     H246170   3.992   6.609   0.486
15310WAT      O46171   0.058   5.728   7.839
15310WAT     H146172   0.026   5.809   7.788
15310WAT     H246173   0.067   5.651   7.776
15311WAT      O46174   5.005   3.820   1.893
15311WAT     H146175   5.077   3.890   1.894
15311WAT     H246176   5.010   3.766   1.977
15312WAT      O46177   5.661   3.204   7.270
15312WAT     H146178   5.606   3.124   7.246
15312WAT     H246179   5.601   3.276   7.307
15313WAT      O46180   0.938   1.480   3.469
15313WAT     H146181   0.949   1.573   3.504
15313WAT     H246182   1.021   1.427   3.487
15314WAT      O46183   2.329   7.521   2.836
15314WAT     H146184   2.309   7.470   2.752
15314WAT     H246185   2.257   7.503   2.903
15315WAT      O46186   3.989   1.311   8.801
15315WAT     H146187   4.056   1.237   8.808
15315WAT     H246188   3.988   1.363   8.887
15316WAT      O46189   5.867   0.026   6.035
15316WAT     H146190   5.962   0.042   6.007
15316WAT     H246191   5.850  -0.072   6.041
15317WAT      O46192   8.316   8.786   4.981
15317WAT     H146193   8.349   8.775   5.075
15317WAT     H246194   8.352   8.871   4.943
15318WAT      O46195   5.449   9.445   7.878
15318WAT     H146196   5.492   9.528   7.915
15318WAT     H246197   5.350   9.454   7.882
15319WAT      O46198   3.001   2.172   0.638
15319WAT     H146199   2.917   2.226   0.626
15319WAT     H246200   3.076   2.233   0.664
15320WAT      O46201   5.438   5.514   2.419
15320WAT     H146202   5.462   5.440   2.482
15320WAT     H246203   5.422   5.476   2.328
15321WAT      O46204   7.682   8.737   2.475
15321WAT     H146205   7.771   8.726   2.521
15321WAT     H246206   7.667   8.834   2.456
15322WAT      O46207   5.288   2.455   4.036
15322WAT     H146208   5.229   2.518   3.986
15322WAT     H246209   5.288   2.366   3.991
15323WAT      O46210   6.766   4.004   6.949
15323WAT     H146211   6.765   3.910   6.915
15323WAT     H246212   6.857   4.043   6.938
15324WAT      O46213   5.972   1.317   1.910
15324WAT     H146214   5.986   1.354   1.819
15324WAT     H246215   5.893   1.255   1.909
15325WAT      O46216   6.949   9.814   7.407
15325WAT     H146217   7.026   9.877   7.396
15325WAT     H246218   6.888   9.848   7.479
15326WAT      O46219   5.588   7.027   9.372
15326WAT     H146220   5.674   6.991   9.336
15326WAT     H246221   5.572   7.118   9.335
15327WAT      O46222   7.075   3.290   3.237
15327WAT     H146223   7.091   3.376   3.189
15327WAT     H246224   6.994   3.298   3.295
15328WAT      O46225   2.014   8.554   6.723
15328WAT     H146226   2.040   8.644   6.756
15328WAT     H246227   2.085   8.488   6.746
15329WAT      O46228   0.832   2.400   4.579
15329WAT     H146229   0.810   2.403   4.676
15329WAT     H246230   0.812   2.309   4.542
15330WAT      O46231   3.258   7.597   8.187
15330WAT     H146232   3.282   7.601   8.090
15330WAT     H246233   3.334   7.558   8.239
15331WAT      O46234   1.903   6.762   0.772
15331WAT     H146235   1.947   6.803   0.852
15331WAT     H246236   1.906   6.662   0.780
15332WAT      O46237   7.233   3.329   6.313
15332WAT     H146238   7.237   3.252   6.376
15332WAT     H246239   7.233   3.294   6.219
15333WAT      O46240   3.143   2.584   9.488
15333WAT     H146241   3.102   2.595   9.398
15333WAT     H246242   3.072   2.588   9.559
15334WAT      O46243   0.380   6.458   3.616
15334WAT     H146244   0.283   6.475   3.630
15334WAT     H246245   0.417   6.406   3.693
15335WAT      O46246   3.043   0.222   8.360
15335WAT     H146247   3.003   0.267   8.280
15335WAT     H246248   2.971   0.206   8.428
15336WAT      O46249   5.820   9.031   2.284
15336WAT     H146250   5.727   9.024   2.321
15336WAT     H246251   5.862   8.940   2.283
15337WAT      O46252   7.359   8.545   0.634
15337WAT     H146253   7.332   8.497   0.718
15337WAT     H246254   7.414   8.484   0.577
15338WAT      O46255   0.255   2.937   4.564
15338WAT     H146256   0.331   2.910   4.624
15338WAT     H246257   0.214   2.854   4.524
15339WAT      O46258   3.791   5.328   6.130
15339WAT     H146259   3.778   5.298   6.224
15339WAT     H246260   3.854   5.406   6.129
15340WAT      O46261   4.974   8.057   7.782
15340WAT     H146262   4.958   8.048   7.684
15340WAT     H246263   4.893   8.028   7.832
15341WAT      O46264   7.794   5.184   7.663
15341WAT     H146265   7.705   5.165   7.622
15341WAT     H246266   7.806   5.128   7.745
15342WAT      O46267   2.047   2.246   6.727
15342WAT     H146268   1.951   2.233   6.706
15342WAT     H246269   2.103   2.190   6.666
15343WAT      O46270   5.367   8.634   4.456
15343WAT     H146271   5.311   8.685   4.390
15343WAT     H246272   5.419   8.697   4.512
15344WAT      O46273   2.146   5.760   3.829
15344WAT     H146274   2.205   5.839   3.843
15344WAT     H246275   2.062   5.788   3.783
15345WAT      O46276   0.727   3.006   1.778
15345WAT     H146277   0.741   2.911   1.806
15345WAT     H246278   0.714   3.063   1.859
15346WAT      O46279   2.983   0.943   6.700
15346WAT     H146280   2.985   0.845   6.724
15346WAT     H246281   2.889   0.969   6.676
15347WAT      O46282   0.389   4.772   0.910
15347WAT     H146283   0.307   4.749   0.963
15347WAT     H246284   0.362   4.820   0.827
15348WAT      O46285   1.791   6.234   6.958
15348WAT     H146286   1.884   6.228   6.922
15348WAT     H246287   1.727   6.251   6.883
15349WAT      O46288   7.093   5.080   5.634
15349WAT     H146289   7.146   5.162   5.611
15349WAT     H246290   7.001   5.088   5.596
15350WAT      O46291   8.796   8.275   2.246
15350WAT     H146292   8.731   8.265   2.322
15350WAT     H246293   8.844   8.362   2.255
15351WAT      O46294   2.956   9.571   4.561
15351WAT     H146295   3.048   9.534   4.568
15351WAT     H246296   2.960   9.666   4.531
15352WAT      O46297   9.359   6.528   2.500
15352WAT     H146298   9.347   6.627   2.500
15352WAT     H246299   9.455   6.506   2.516
15353WAT      O46300   8.558   1.453   2.802
15353WAT     H146301   8.653   1.469   2.777
15353WAT     H246302   8.501   1.455   2.720
15354WAT      O46303   2.262   3.991   8.831
15354WAT     H146304   2.303   3.902   8.813
15354WAT     H246305   2.175   3.980   8.879
15355WAT      O46306   1.325   5.871   2.373
15355WAT     H146307   1.230   5.840   2.375
15355WAT     H246308   1.382   5.808   2.426
15356WAT      O46309   0.118   0.371   4.221
15356WAT     H146310   0.043   0.354   4.285
15356WAT     H246311   0.082   0.408   4.136
15357WAT      O46312   9.664   3.401   8.004
15357WAT     H146313   9.743   3.451   8.040
15357WAT     H246314   9.623   3.453   7.929
15358WAT      O46315   8.767   3.061   2.283
15358WAT     H146316   8.846   3.110   2.247
15358WAT     H246317   8.706   3.125   2.330
15359WAT      O46318   2.630   3.680   9.561
15359WAT     H146319   2.723   3.696   9.595
15359WAT     H246320   2.620   3.584   9.534
15360WAT      O46321   7.669   6.009   1.297
15360WAT     H146322   7.616   5.929   1.327
15360WAT     H246323   7.750   6.019   1.355
15361WAT      O46324   9.187   0.779   2.334
15361WAT     H146325   9.211   0.871   2.363
15361WAT     H246326   9.090   0.762   2.355
15362WAT      O46327   0.507   8.723   9.017
15362WAT     H146328   0.571   8.666   8.966
15362WAT     H246329   0.426   8.669   9.040
15363WAT      O46330   7.543   9.220   8.205
15363WAT     H146331   7.470   9.270   8.253
15363WAT     H246332   7.592   9.283   8.145
15364WAT      O46333   4.691   5.633   5.229
15364WAT     H146334   4.779   5.638   5.276
15364WAT     H246335   4.699   5.673   5.138
15365WAT      O46336   3.800   7.936   1.271
15365WAT     H146337   3.764   8.025   1.298
15365WAT     H246338   3.776   7.918   1.175
15366WAT      O46339   3.579   2.649   5.076
15366WAT     H146340   3.527   2.613   5.154
15366WAT     H246341   3.531   2.727   5.037
15367WAT      O46342   4.272   0.133   6.933
15367WAT     H146343   4.359   0.172   6.901
15367WAT     H246344   4.244   0.059   6.872
15368WAT      O46345   8.854   3.205   4.348
15368WAT     H146346   8.912   3.128   4.373
15368WAT     H246347   8.880   3.285   4.402
15369WAT      O46348   1.008   9.244   2.274
15369WAT     H146349   0.936   9.191   2.319
15369WAT     H246350   1.013   9.335   2.316
15370WAT      O46351   7.841   4.227   1.507
15370WAT     H146352   7.743   4.246   1.497
15370WAT     H246353   7.893   4.308   1.483
15371WAT      O46354   3.746   1.767   0.931
15371WAT     H146355   3.697   1.687   0.965
15371WAT     H246356   3.684   1.846   0.931
15372WAT      O46357   7.215   2.863   1.761
15372WAT     H146358   7.281   2.879   1.688
15372WAT     H246359   7.262   2.824   1.840
15373WAT      O46360   7.027   2.031   3.105
15373WAT     H146361   7.093   1.989   3.042
15373WAT     H246362   7.062   2.026   3.198
15374WAT      O46363   8.459   0.662   3.664
15374WAT     H146364   8.558   0.656   3.649
15374WAT     H246365   8.423   0.742   3.617
15375WAT      O46366   0.046   3.694   1.783
15375WAT     H146367   0.121   3.631   1.804
15375WAT     H246368  -0.042   3.650   1.801
15376WAT      O46369   1.755   4.917   1.445
15376WAT     H146370   1.746   5.016   1.458
15376WAT     H246371   1.745   4.895   1.348
15377WAT      O46372   5.709   5.356   0.048
15377WAT     H146373   5.649   5.408  -0.013
15377WAT     H246374   5.739   5.413   0.123
15378WAT      O46375   0.954   4.721   2.068
15378WAT     H146376   0.924   4.650   2.132
15378WAT     H246377   0.874   4.767   2.030
15379WAT      O46378   1.842   5.881   7.577
15379WAT     H146379   1.763   5.871   7.516
15379WAT     H246380   1.857   5.796   7.625
15380WAT      O46381   4.210   0.043   5.298
15380WAT     H146382   4.259  -0.035   5.337
15380WAT     H246383   4.127   0.059   5.351
15381WAT      O46384   7.674   1.297   7.510
15381WAT     H146385   7.617   1.217   7.489
15381WAT     H246386   7.631   1.379   7.472
15382WAT      O46387   6.178   5.650   0.943
15382WAT     H146388   6.132   5.655   0.855
15382WAT     H246389   6.137   5.715   1.007
15383WAT      O46390   6.545   9.684   5.081
15383WAT     H146391   6.524   9.617   5.152
15383WAT     H246392   6.514   9.775   5.110
15384WAT      O46393   6.641   7.947   5.388
15384WAT     H146394   6.558   7.978   5.434
15384WAT     H246395   6.692   7.886   5.449
15385WAT      O46396   0.808   9.796   2.768
15385WAT     H146397   0.809   9.723   2.836
15385WAT     H246398   0.819   9.885   2.813
15386WAT      O46399   7.602   2.649   4.478
15386WAT     H146400   7.662   2.614   4.550
15386WAT     H246401   7.635   2.738   4.448
15387WAT      O46402   8.622   7.431   1.896
15387WAT     H146403   8.641   7.336   1.921
15387WAT     H246404   8.708   7.482   1.891
15388WAT      O46405   9.868   6.965   4.280
15388WAT     H146406   9.960   6.943   4.246
15388WAT     H246407   9.858   7.064   4.285
15389WAT      O46408   5.795   9.205   7.076
15389WAT     H146409   5.835   9.113   7.080
15389WAT     H246410   5.703   9.199   7.037
15390WAT      O46411   5.189   7.571   6.865
15390WAT     H146412   5.186   7.522   6.778
15390WAT     H246413   5.097   7.596   6.893
15391WAT      O46414   9.033   0.980  -0.004
15391WAT     H146415   9.032   0.886   0.028
15391WAT     H246416   9.014   1.042   0.072
15392WAT      O46417   5.998   2.090   1.702
15392WAT     H146418   5.992   2.181   1.745
15392WAT     H246419   6.045   2.098   1.614
15393WAT      O46420   4.627   4.537   8.739
15393WAT     H146421   4.656   4.571   8.650
15393WAT     H246422   4.587   4.446   8.729
15394WAT      O46423   4.579   4.206   9.801
15394WAT     H146424   4.486   4.204   9.766
15394WAT     H246425   4.597   4.122   9.852
15395WAT      O46426   7.637   1.379   0.576
15395WAT     H146427   7.655   1.475   0.553
15395WAT     H246428   7.621   1.372   0.675
15396WAT      O46429   7.673   1.053   8.400
15396WAT     H146430   7.620   1.022   8.479
15396WAT     H246431   7.751   0.992   8.386
15397WAT      O46432   9.785   3.084   1.984
15397WAT     H146433   9.879   3.051   1.995
15397WAT     H246434   9.722   3.017   2.022
15398WAT      O46435   8.768   2.143   8.409
15398WAT     H146436   8.733   2.074   8.473
15398WAT     H246437   8.853   2.182   8.446
15399WAT      O46438   7.582   1.302   2.706
15399WAT     H146439   7.651   1.280   2.775
15399WAT     H246440   7.615   1.375   2.648
15400WAT      O46441   8.160   2.868   7.961
15400WAT     H146442   8.086   2.907   8.016
15400WAT     H246443   8.122   2.833   7.875
15401WAT      O46444   5.153   5.260   8.484
15401WAT     H146445   5.133   5.163   8.469
15401WAT     H246446   5.249   5.269   8.512
15402WAT      O46447   7.028   0.798   1.725
15402WAT     H146448   7.027   0.792   1.626
15402WAT     H246449   7.097   0.734   1.762
15403WAT      O46450   1.564   4.279   0.875
15403WAT     H146451   1.502   4.262   0.952
15403WAT     H246452   1.544   4.215   0.801
15404WAT      O46453   2.396   8.515   0.853
15404WAT     H146454   2.442   8.438   0.808
15404WAT     H246455   2.297   8.507   0.840
15405WAT      O46456   5.880   2.733   9.144
15405WAT     H146457   5.962   2.788   9.125
15405WAT     H246458   5.804   2.768   9.090
15406WAT      O46459   6.636   4.764   2.737
15406WAT     H146460   6.570   4.837   2.716
15406WAT     H246461   6.698   4.752   2.660
15407WAT      O46462   9.437   6.645   7.872
15407WAT     H146463   9.507   6.681   7.810
15407WAT     H246464   9.456   6.676   7.965
15408WAT      O46465   4.555   7.700   1.895
15408WAT     H146466   4.614   7.660   1.825
15408WAT     H246467   4.460   7.696   1.866
15409WAT      O46468   3.918   3.805   1.297
15409WAT     H146469   3.956   3.722   1.255
15409WAT     H246470   3.821   3.791   1.316
15410WAT      O46471   4.457   1.905   3.737
15410WAT     H146472   4.496   1.932   3.649
15410WAT     H246473   4.398   1.825   3.725
15411WAT      O46474   5.415   0.287   4.662
15411WAT     H146475   5.321   0.258   4.683
15411WAT     H246476   5.437   0.369   4.715
15412WAT      O46477   8.136   2.882   6.941
15412WAT     H146478   8.203   2.834   6.998
15412WAT     H246479   8.094   2.818   6.877
15413WAT      O46480   9.842   3.511   3.247
15413WAT     H146481   9.893   3.450   3.308
15413WAT     H246482   9.898   3.591   3.226
15414WAT      O46483   1.271   7.655   4.613
15414WAT     H146484   1.271   7.577   4.675
15414WAT     H246485   1.347   7.646   4.548
15415WAT      O46486   0.305   1.413   4.347
15415WAT     H146487   0.313   1.468   4.429
15415WAT     H246488   0.366   1.448   4.276
15416WAT      O46489   6.535   8.550   0.834
15416WAT     H146490   6.612   8.518   0.778
15416WAT     H246491   6.546   8.647   0.855
15417WAT      O46492   5.558   3.968   9.029
15417WAT     H146493   5.615   3.897   8.986
15417WAT     H246494   5.484   3.994   8.967
15418WAT      O46495   4.277   2.214   4.403
15418WAT     H146496   4.337   2.173   4.335
15418WAT     H246497   4.233   2.143   4.458
15419WAT      O46498   9.714   0.052   0.492
15419WAT     H146499   9.653   0.095   0.559
15419WAT     H246500   9.716  -0.047   0.509
15420WAT      O46501   7.376   9.329   1.242
15420WAT     H146502   7.377   9.230   1.232
15420WAT     H246503   7.345   9.372   1.157
15421WAT      O46504   2.995   4.317   2.990
15421WAT     H146505   2.999   4.292   2.894
15421WAT     H246506   3.081   4.294   3.035
15422WAT      O46507   0.596   1.862   3.768
15422WAT     H146508   0.683   1.901   3.798
15422WAT     H246509   0.610   1.809   3.684
15423WAT      O46510   2.419   3.058   6.303
15423WAT     H146511   2.438   3.037   6.207
15423WAT     H246512   2.477   3.133   6.333
15424WAT      O46513   1.048   6.511   4.583
15424WAT     H146514   1.142   6.477   4.578
15424WAT     H246515   1.006   6.510   4.492
15425WAT      O46516   9.719   1.485   4.974
15425WAT     H146517   9.645   1.488   4.907
15425WAT     H246518   9.797   1.538   4.941
15426WAT      O46519   0.584   4.644   6.005
15426WAT     H146520   0.667   4.698   6.022
15426WAT     H246521   0.542   4.673   5.919
15427WAT      O46522   4.253   1.943   1.618
15427WAT     H146523   4.348   1.911   1.611
15427WAT     H246524   4.252   2.043   1.617
15428WAT      O46525   2.030   9.703   3.892
15428WAT     H146526   2.106   9.748   3.938
15428WAT     H246527   1.948   9.708   3.950
15429WAT      O46528   4.864   5.335   4.506
15429WAT     H146529   4.861   5.265   4.435
15429WAT     H246530   4.817   5.418   4.473
15430WAT      O46531   7.292   4.244   6.453
15430WAT     H146532   7.370   4.180   6.453
15430WAT     H246533   7.269   4.267   6.547
15431WAT      O46534   2.193   9.746   8.181
15431WAT     H146535   2.151   9.817   8.125
15431WAT     H246536   2.121   9.694   8.228
15432WAT      O46537   3.765   5.222   4.157
15432WAT     H146538   3.853   5.176   4.152
15432WAT     H246539   3.698   5.172   4.102
15433WAT      O46540   1.597   1.638   4.275
15433WAT     H146541   1.541   1.595   4.204
15433WAT     H246542   1.572   1.734   4.284
15434WAT      O46543   8.635   8.601   2.180
15434WAT     H146544   8.535   8.597   2.187
15434WAT     H246545   8.675   8.555   2.259
15435WAT      O46546   8.236   4.165   1.452
15435WAT     H146547   8.247   4.262   1.473
15435WAT     H246548   8.281   4.110   1.522
15436WAT      O46549   6.129   7.008   6.657
15436WAT     H146550   6.150   6.919   6.615
15436WAT     H246551   6.069   7.060   6.597
15437WAT      O46552   4.348   3.929   7.425
15437WAT     H146553   4.317   3.849   7.373
15437WAT     H246554   4.442   3.913   7.457
15438WAT      O46555   7.827   1.158   6.124
15438WAT     H146556   7.839   1.257   6.116
15438WAT     H246557   7.732   1.138   6.150
15439WAT      O46558   4.270   0.989   7.893
15439WAT     H146559   4.240   0.950   7.806
15439WAT     H246560   4.342   1.057   7.876
15440WAT      O46561   3.915   0.588   6.035
15440WAT     H146562   3.936   0.536   5.952
15440WAT     H246563   3.863   0.530   6.097
15441WAT      O46564   8.488   5.858   5.095
15441WAT     H146565   8.558   5.789   5.074
15441WAT     H246566   8.522   5.919   5.167
15442WAT      O46567   0.711   5.383   1.273
15442WAT     H146568   0.655   5.382   1.190
15442WAT     H246569   0.665   5.439   1.342
15443WAT      O46570   8.819   2.550   3.241
15443WAT     H146571   8.725   2.522   3.261
15443WAT     H246572   8.834   2.644   3.272
15444WAT      O46573   0.927   4.917   9.395
15444WAT     H146574   0.829   4.902   9.407
15444WAT     H246575   0.977   4.839   9.434
15445WAT      O46576   6.779   7.949   4.414
15445WAT     H146577   6.719   7.874   4.386
15445WAT     H246578   6.731   8.007   4.480
15446WAT      O46579   9.655   5.540   1.530
15446WAT     H146580   9.702   5.536   1.618
15446WAT     H246581   9.711   5.495   1.460
15447WAT      O46582   0.928   1.992   6.423
15447WAT     H146583   0.941   1.905   6.375
15447WAT     H246584   0.923   1.976   6.522
15448WAT      O46585   0.711   1.454   4.803
15448WAT     H146586   0.665   1.372   4.766
15448WAT     H246587   0.781   1.484   4.738
15449WAT      O46588   6.304   6.366   4.081
15449WAT     H146589   6.354   6.445   4.046
15449WAT     H246590   6.254   6.323   4.006
15450WAT      O46591   8.471   3.501   3.751
15450WAT     H146592   8.380   3.460   3.752
15450WAT     H246593   8.540   3.429   3.760
15451WAT      O46594   1.079   1.857   8.071
15451WAT     H146595   1.103   1.806   7.988
15451WAT     H246596   1.011   1.805   8.123
15452WAT      O46597   2.988   6.188   3.128
15452WAT     H146598   3.058   6.116   3.129
15452WAT     H246599   2.898   6.147   3.115
15453WAT      O46600   1.039   5.876   7.294
15453WAT     H146601   1.015   5.944   7.363
15453WAT     H246602   1.103   5.916   7.228
15454WAT      O46603   6.812   7.805   1.669
15454WAT     H146604   6.750   7.773   1.741
15454WAT     H246605   6.798   7.751   1.586
15455WAT      O46606   8.512   6.121   8.924
15455WAT     H146607   8.472   6.167   8.845
15455WAT     H246608   8.577   6.182   8.969
15456WAT      O46609   1.426   5.135   1.482
15456WAT     H146610   1.378   5.210   1.438
15456WAT     H246611   1.451   5.067   1.413
15457WAT      O46612   1.694   4.558   0.765
15457WAT     H146613   1.651   4.468   0.780
15457WAT     H246614   1.733   4.562   0.673
15458WAT      O46615   5.411   0.183   5.505
15458WAT     H146616   5.377   0.124   5.578
15458WAT     H246617   5.356   0.170   5.422
15459WAT      O46618   5.765   2.057   0.971
15459WAT     H146619   5.831   2.131   0.963
15459WAT     H246620   5.697   2.064   0.898
15460WAT      O46621   1.687   6.759   0.122
15460WAT     H146622   1.783   6.738   0.138
15460WAT     H246623   1.644   6.683   0.074
15461WAT      O46624   2.418   2.081   8.519
15461WAT     H146625   2.373   2.123   8.440
15461WAT     H246626   2.424   1.982   8.505
15462WAT      O46627   0.638   8.598   8.643
15462WAT     H146628   0.617   8.564   8.734
15462WAT     H246629   0.736   8.586   8.624
15463WAT      O46630   8.666   6.943   2.438
15463WAT     H146631   8.734   6.963   2.368
15463WAT     H246632   8.598   6.879   2.401
15464WAT      O46633   5.974   7.168   3.894
15464WAT     H146634   5.968   7.069   3.876
15464WAT     H246635   5.985   7.217   3.808
15465WAT      O46636   6.135   3.045   6.750
15465WAT     H146637   6.041   3.009   6.751
15465WAT     H246638   6.145   3.115   6.820
15466WAT      O46639   5.797   7.128   9.157
15466WAT     H146640   5.891   7.095   9.143
15466WAT     H246641   5.798   7.227   9.169
15467WAT      O46642   9.038   4.602   6.561
15467WAT     H146643   8.990   4.661   6.626
15467WAT     H246644   9.069   4.657   6.484
15468WAT      O46645   5.328   2.171   7.387
15468WAT     H146646   5.244   2.225   7.373
15468WAT     H246647   5.402   2.210   7.333
15469WAT      O46648   6.526   7.678   9.428
15469WAT     H146649   6.427   7.672   9.412
15469WAT     H246650   6.563   7.757   9.379
15470WAT      O46651   3.710   5.132   5.946
15470WAT     H146652   3.617   5.098   5.953
15470WAT     H246653   3.727   5.200   6.018
15471WAT      O46654   1.044   8.561   0.309
15471WAT     H146655   1.002   8.648   0.335
15471WAT     H246656   0.976   8.488   0.314
15472WAT      O46657   6.992   1.555   5.903
15472WAT     H146658   7.086   1.590   5.897
15472WAT     H246659   6.971   1.531   5.997
15473WAT      O46660   7.939   4.354   6.670
15473WAT     H146661   7.997   4.275   6.648
15473WAT     H246662   7.864   4.325   6.730
15474WAT      O46663   5.477   6.624   3.532
15474WAT     H146664   5.517   6.538   3.502
15474WAT     H246665   5.469   6.624   3.632
15475WAT      O46666   6.542   7.500   5.104
15475WAT     H146667   6.614   7.556   5.064
15475WAT     H246668   6.492   7.554   5.172
15476WAT      O46669   2.809   1.898   7.021
15476WAT     H146670   2.717   1.928   7.045
15476WAT     H246671   2.804   1.831   6.946
15477WAT      O46672   7.642   0.309   2.115
15477WAT     H146673   7.618   0.392   2.166
15477WAT     H246674   7.708   0.331   2.044
15478WAT      O46675   1.149   3.487   2.907
15478WAT     H146676   1.246   3.508   2.893
15478WAT     H246677   1.133   3.390   2.890
15479WAT      O46678   0.280   9.676   0.764
15479WAT     H146679   0.216   9.733   0.713
15479WAT     H246680   0.231   9.597   0.802
15480WAT      O46681   5.464   2.039   9.125
15480WAT     H146682   5.441   2.051   9.028
15480WAT     H246683   5.432   2.118   9.177
15481WAT      O46684   2.785   4.670   1.068
15481WAT     H146685   2.813   4.708   1.156
15481WAT     H246686   2.699   4.620   1.079
15482WAT      O46687   2.338   6.332   4.946
15482WAT     H146688   2.398   6.314   5.024
15482WAT     H246689   2.352   6.261   4.876
15483WAT      O46690   7.468   5.844   3.924
15483WAT     H146691   7.564   5.824   3.901
15483WAT     H246692   7.434   5.773   3.986
15484WAT      O46693   2.482   6.243   1.562
15484WAT     H146694   2.474   6.273   1.657
15484WAT     H246695   2.436   6.310   1.502
15485WAT      O46696   0.769   6.215   8.882
15485WAT     H146697   0.695   6.198   8.947
15485WAT     H246698   0.799   6.310   8.890
15486WAT      O46699   8.605   9.547   4.216
15486WAT     H146700   8.542   9.519   4.288
15486WAT     H246701   8.654   9.467   4.182
15487WAT      O46702   2.725   9.031   7.278
15487WAT     H146703   2.778   9.068   7.354
15487WAT     H246704   2.632   9.011   7.308
15488WAT      O46705   0.693   0.311   2.642
15488WAT     H146706   0.726   0.403   2.620
15488WAT     H246707   0.593   0.310   2.640
15489WAT      O46708   7.350   3.693   6.149
15489WAT     H146709   7.415   3.679   6.223
15489WAT     H246710   7.308   3.783   6.157
15490WAT      O46711   7.168   8.028   4.124
15490WAT     H146712   7.203   8.117   4.154
15490WAT     H246713   7.116   7.986   4.198
15491WAT      O46714   1.211   3.400   0.597
15491WAT     H146715   1.198   3.495   0.568
15491WAT     H246716   1.169   3.386   0.687
15492WAT      O46717   5.545   8.559   2.029
15492WAT     H146718   5.624   8.553   2.090
15492WAT     H246719   5.510   8.653   2.030
15493WAT      O46720   7.101   3.881   1.433
15493WAT     H146721   7.036   3.807   1.452
15493WAT     H246722   7.160   3.854   1.357
15494WAT      O46723   4.845   1.981   8.165
15494WAT     H146724   4.866   1.895   8.210
15494WAT     H246725   4.765   1.970   8.106
15495WAT      O46726   1.693   8.187   9.017
15495WAT     H146727   1.600   8.150   9.024
15495WAT     H246728   1.754   8.135   9.077
15496WAT      O46729   9.728   6.562   9.835
15496WAT     H146730   9.673   6.581   9.753
15496WAT     H246731   9.709   6.632   9.904
15497WAT      O46732   4.038   8.823   1.316
15497WAT     H146733   4.042   8.746   1.252
15497WAT     H246734   4.028   8.788   1.409
15498WAT      O46735   3.506   8.432   0.171
15498WAT     H146736   3.507   8.471   0.264
15498WAT     H246737   3.413   8.400   0.150
15499WAT      O46738   5.639   1.564   5.169
15499WAT     H146739   5.609   1.512   5.089
15499WAT     H246740   5.673   1.654   5.140
15500WAT      O46741   8.074   3.960   4.192
15500WAT     H146742   8.062   4.012   4.277
15500WAT     H246743   8.132   3.881   4.210
15501WAT      O46744   1.156   8.591   6.789
15501WAT     H146745   1.241   8.618   6.833
15501WAT     H246746   1.142   8.647   6.707
15502WAT      O46747   6.745   8.699   2.634
15502WAT     H146748   6.721   8.719   2.539
15502WAT     H246749   6.665   8.663   2.682
15503WAT      O46750   9.168   3.497   7.501
15503WAT     H146751   9.108   3.565   7.543
15503WAT     H246752   9.161   3.411   7.551
15504WAT      O46753   7.268   6.079   1.406
15504WAT     H146754   7.169   6.070   1.420
15504WAT     H246755   7.316   6.050   1.489
15505WAT      O46756   5.516   5.827   9.530
15505WAT     H146757   5.603   5.865   9.562
15505WAT     H246758   5.514   5.828   9.430
15506WAT      O46759   2.615   0.285   0.790
15506WAT     H146760   2.658   0.231   0.718
15506WAT     H246761   2.536   0.236   0.826
15507WAT      O46762   5.642   4.983   8.205
15507WAT     H146763   5.656   4.891   8.169
15507WAT     H246764   5.587   5.036   8.141
15508WAT      O46765   0.228   2.365   6.780
15508WAT     H146766   0.300   2.425   6.746
15508WAT     H246767   0.195   2.399   6.868
15509WAT      O46768   7.571   1.160   2.131
15509WAT     H146769   7.605   1.089   2.069
15509WAT     H246770   7.471   1.153   2.138
15510WAT      O46771   0.117   4.886   3.472
15510WAT     H146772   0.097   4.967   3.417
15510WAT     H246773   0.176   4.824   3.420
15511WAT      O46774   6.564   6.645   5.951
15511WAT     H146775   6.644   6.705   5.959
15511WAT     H246776   6.535   6.616   6.042
15512WAT      O46777   7.289   1.619   5.500
15512WAT     H146778   7.313   1.527   5.531
15512WAT     H246779   7.216   1.613   5.431
15513WAT      O46780   1.287   9.069   6.391
15513WAT     H146781   1.274   9.166   6.411
15513WAT     H246782   1.327   9.059   6.300
15514WAT      O46783   1.217   2.989   1.421
15514WAT     H146784   1.144   3.054   1.399
15514WAT     H246785   1.258   3.012   1.509
15515WAT      O46786   9.490   1.480   2.595
15515WAT     H146787   9.463   1.476   2.691
15515WAT     H246788   9.570   1.422   2.580
15516WAT      O46789   7.775   4.713   6.159
15516WAT     H146790   7.818   4.737   6.246
15516WAT     H246791   7.719   4.632   6.171
15517WAT      O46792   3.727   6.735   9.228
15517WAT     H146793   3.735   6.821   9.179
15517WAT     H246794   3.640   6.732   9.277
15518WAT      O46795   9.841   7.265   0.356
15518WAT     H146796   9.747   7.286   0.329
15518WAT     H246797   9.876   7.338   0.415
15519WAT      O46798   1.987   1.588   3.807
15519WAT     H146799   2.084   1.563   3.798
15519WAT     H246800   1.979   1.672   3.860
15520WAT      O46801   5.259   4.830   2.509
15520WAT     H146802   5.200   4.911   2.512
15520WAT     H246803   5.329   4.843   2.439
15521WAT      O46804   7.471   7.005   7.144
15521WAT     H146805   7.425   6.990   7.056
15521WAT     H246806   7.569   7.020   7.129
15522WAT      O46807   0.474   4.860   1.972
15522WAT     H146808   0.415   4.910   2.036
15522WAT     H246809   0.426   4.779   1.940
15523WAT      O46810   8.601   8.197   4.306
15523WAT     H146811   8.691   8.168   4.338
15523WAT     H246812   8.545   8.229   4.383
15524WAT      O46813   6.619   9.811   4.146
15524WAT     H146814   6.532   9.774   4.175
15524WAT     H246815   6.677   9.737   4.111
15525WAT      O46816   5.656   8.604   8.087
15525WAT     H146817   5.680   8.700   8.086
15525WAT     H246818   5.675   8.564   7.997
15526WAT      O46819   2.343   7.631   0.218
15526WAT     H146820   2.404   7.610   0.142
15526WAT     H246821   2.256   7.666   0.184
15527WAT      O46822   6.086   9.436   6.567
15527WAT     H146823   6.166   9.438   6.508
15527WAT     H246824   6.114   9.424   6.662
15528WAT      O46825   8.366   1.113   1.186
15528WAT     H146826   8.427   1.111   1.265
15528WAT     H246827   8.289   1.173   1.204
15529WAT      O46828   0.072   5.999   4.175
15529WAT     H146829   0.116   5.923   4.224
15529WAT     H246830   0.003   6.040   4.234
15530WAT      O46831   4.090   1.528   8.530
15530WAT     H146832   4.131   1.596   8.470
15530WAT     H246833   4.139   1.441   8.520
15531WAT      O46834   3.243   2.403   5.630
15531WAT     H146835   3.223   2.341   5.553
15531WAT     H246836   3.228   2.497   5.600
15532WAT      O46837   8.244   5.260   3.376
15532WAT     H146838   8.278   5.261   3.283
15532WAT     H246839   8.279   5.179   3.424
15533WAT      O46840   3.435   2.435   9.831
15533WAT     H146841   3.337   2.455   9.831
15533WAT     H246842   3.449   2.340   9.805
15534WAT      O46843   7.649   9.033   7.000
15534WAT     H146844   7.703   9.110   7.033
15534WAT     H246845   7.696   8.991   6.922
15535WAT      O46846   2.404   1.734   0.546
15535WAT     H146847   2.358   1.651   0.516
15535WAT     H246848   2.459   1.770   0.470
15536WAT      O46849   6.365   9.006   2.309
15536WAT     H146850   6.357   8.936   2.238
15536WAT     H246851   6.389   8.963   2.396
15537WAT      O46852   8.559   6.764   7.175
15537WAT     H146853   8.520   6.784   7.085
15537WAT     H246854   8.521   6.827   7.243
15538WAT      O46855   2.524   3.893   2.242
15538WAT     H146856   2.523   3.920   2.339
15538WAT     H246857   2.492   3.799   2.234
15539WAT      O46858   8.889   9.666   5.651
15539WAT     H146859   8.827   9.684   5.575
15539WAT     H246860   8.852   9.592   5.708
15540WAT      O46861   6.955   5.991   0.779
15540WAT     H146862   7.023   6.009   0.708
15540WAT     H246863   6.995   6.014   0.868
15541WAT      O46864   7.279   3.981   5.377
15541WAT     H146865   7.377   3.995   5.394
15541WAT     H246866   7.237   4.068   5.352
15542WAT      O46867   6.806   3.901   2.092
15542WAT     H146868   6.783   3.944   2.004
15542WAT     H246869   6.817   3.972   2.162
15543WAT      O46870   5.968   1.147   4.637
15543WAT     H146871   5.878   1.152   4.594
15543WAT     H246872   5.961   1.098   4.725
15544WAT      O46873   0.811   6.283   1.329
15544WAT     H146874   0.835   6.206   1.270
15544WAT     H246875   0.721   6.318   1.301
15545WAT      O46876   5.752   8.936   3.036
15545WAT     H146877   5.746   9.031   3.005
15545WAT     H246878   5.815   8.930   3.113
15546WAT      O46879   8.717   6.523   0.564
15546WAT     H146880   8.816   6.535   0.570
15546WAT     H246881   8.695   6.425   0.567
15547WAT      O46882   9.372   3.498   4.125
15547WAT     H146883   9.426   3.415   4.136
15547WAT     H246884   9.413   3.573   4.177
15548WAT      O46885   9.031   7.375   6.577
15548WAT     H146886   9.117   7.414   6.544
15548WAT     H246887   8.972   7.449   6.609
15549WAT      O46888   3.141   7.427   0.462
15549WAT     H146889   3.094   7.477   0.389
15549WAT     H246890   3.073   7.390   0.525
15550WAT      O46891   5.507   8.884   4.431
15550WAT     H146892   5.507   8.908   4.334
15550WAT     H246893   5.483   8.965   4.485
15551WAT      O46894   8.573   1.368   5.293
15551WAT     H146895   8.529   1.430   5.358
15551WAT     H246896   8.665   1.345   5.326
15552WAT      O46897   8.759   4.906   1.005
15552WAT     H146898   8.708   4.831   0.963
15552WAT     H246899   8.696   4.981   1.026
15553WAT      O46900   6.987   8.156   9.330
15553WAT     H146901   7.052   8.083   9.308
15553WAT     H246902   6.942   8.136   9.417
15554WAT      O46903   0.559   1.117   2.336
15554WAT     H146904   0.537   1.214   2.332
15554WAT     H246905   0.589   1.086   2.246
15555WAT      O46906   0.956   9.678   6.242
15555WAT     H146907   0.894   9.752   6.214
15555WAT     H246908   0.957   9.607   6.171
15556WAT      O46909   4.698   6.249   6.663
15556WAT     H146910   4.681   6.347   6.662
15556WAT     H246911   4.796   6.232   6.659
15557WAT      O46912   6.125   4.861   5.069
15557WAT     H146913   6.076   4.784   5.110
15557WAT     H246914   6.097   4.946   5.112
15558WAT      O46915   0.026   3.887   5.241
15558WAT     H146916   0.118   3.901   5.203
15558WAT     H246917   0.019   3.794   5.279
15559WAT      O46918   1.924   5.578   8.040
15559WAT     H146919   1.906   5.610   7.947
15559WAT     H246920   1.996   5.509   8.039
15560WAT      O46921   9.552   3.758   1.728
15560WAT     H146922   9.617   3.717   1.791
15560WAT     H246923   9.465   3.708   1.732
15561WAT      O46924   0.489   9.646   9.070
15561WAT     H146925   0.442   9.730   9.044
15561WAT     H246926   0.463   9.572   9.007
15562WAT      O46927   7.295   6.474   1.052
15562WAT     H146928   7.382   6.451   1.095
15562WAT     H246929   7.220   6.436   1.106
15563WAT      O46930   1.367   4.782   2.530
15563WAT     H146931   1.316   4.809   2.448
15563WAT     H246932   1.303   4.769   2.606
15564WAT      O46933   2.386   7.850   6.610
15564WAT     H146934   2.465   7.794   6.585
15564WAT     H246935   2.302   7.804   6.581
15565WAT      O46936   3.423   7.771   5.536
15565WAT     H146937   3.435   7.759   5.438
15565WAT     H246938   3.464   7.858   5.565
15566WAT      O46939   8.936   9.413   7.747
15566WAT     H146940   8.965   9.498   7.791
15566WAT     H246941   9.016   9.355   7.731
15567WAT      O46942   2.303   4.381   3.941
15567WAT     H146943   2.263   4.337   3.861
15567WAT     H246944   2.402   4.390   3.929
15568WAT      O46945   5.547   1.387   4.965
15568WAT     H146946   5.613   1.312   4.955
15568WAT     H246947   5.558   1.452   4.890
15569WAT      O46948   0.044   1.698   2.899
15569WAT     H146949   0.081   1.757   2.970
15569WAT     H246950   0.018   1.610   2.939
15570WAT      O46951   0.964   4.824   0.888
15570WAT     H146952   1.046   4.815   0.831
15570WAT     H246953   0.960   4.749   0.953
15571WAT      O46954   7.131   4.096   2.985
15571WAT     H146955   7.180   4.161   2.926
15571WAT     H246956   7.054   4.142   3.028
15572WAT      O46957   5.670   0.370   1.813
15572WAT     H146958   5.679   0.345   1.909
15572WAT     H246959   5.730   0.312   1.757
15573WAT      O46960   3.362   0.647   6.422
15573WAT     H146961   3.294   0.720   6.422
15573WAT     H246962   3.436   0.669   6.358
15574WAT      O46963   0.105   1.006   0.434
15574WAT     H146964   0.021   0.955   0.413
15574WAT     H246965   0.183   0.960   0.392
15575WAT      O46966   4.127   6.016   0.059
15575WAT     H146967   4.068   5.969  -0.006
15575WAT     H246968   4.218   6.028   0.019
15576WAT      O46969   3.769   1.455   3.106
15576WAT     H146970   3.741   1.528   3.043
15576WAT     H246971   3.694   1.388   3.113
15577WAT      O46972   7.369   5.092   4.462
15577WAT     H146973   7.340   5.149   4.539
15577WAT     H246974   7.344   4.997   4.481
15578WAT      O46975   6.027   7.873   6.297
15578WAT     H146976   6.072   7.938   6.235
15578WAT     H246977   6.048   7.780   6.269
15579WAT      O46978   0.660   0.332   5.710
15579WAT     H146979   0.568   0.314   5.674
15579WAT     H246980   0.652   0.381   5.797
15580WAT      O46981   5.227   7.216   6.091
15580WAT     H146982   5.272   7.305   6.099
15580WAT     H246983   5.278   7.148   6.143
15581WAT      O46984   1.498   3.482   7.095
15581WAT     H146985   1.475   3.544   7.020
15581WAT     H246986   1.436   3.498   7.172
15582WAT      O46987   5.629   7.774   1.159
15582WAT     H146988   5.660   7.840   1.227
15582WAT     H246989   5.583   7.698   1.204
15583WAT      O46990   7.206   4.066   1.085
15583WAT     H146991   7.119   4.024   1.113
15583WAT     H246992   7.203   4.164   1.104
15584WAT      O46993   0.796   7.879   5.344
15584WAT     H146994   0.724   7.854   5.408
15584WAT     H246995   0.812   7.978   5.348
15585WAT      O46996   4.923   9.396   1.067
15585WAT     H146997   4.995   9.431   1.007
15585WAT     H246998   4.872   9.472   1.106
15586WAT      O46999   9.463   5.177   3.282
15586WAT     H147000   9.504   5.130   3.360
15586WAT     H247001   9.390   5.121   3.243
15587WAT      O47002   3.086   9.664   5.898
15587WAT     H147003   3.109   9.597   5.828
15587WAT     H247004   3.165   9.724   5.914
15588WAT      O47005   8.484   9.492   6.930
15588WAT     H147006   8.532   9.535   6.854
15588WAT     H247007   8.438   9.562   6.985
15589WAT      O47008   0.988   5.699   1.003
15589WAT     H147009   0.912   5.764   0.999
15589WAT     H247010   0.982   5.646   1.088
15590WAT      O47011   7.439   6.496   4.237
15590WAT     H147012   7.458   6.593   4.225
15590WAT     H247013   7.368   6.467   4.174
15591WAT      O47014   0.876   8.581   1.953
15591WAT     H147015   0.891   8.676   1.926
15591WAT     H247016   0.935   8.559   2.031
15592WAT      O47017   0.254   8.763   2.031
15592WAT     H147018   0.299   8.821   2.099
15592WAT     H247019   0.193   8.698   2.078
15593WAT      O47020   0.130   6.830   5.509
15593WAT     H147021   0.203   6.797   5.569
15593WAT     H247022   0.167   6.896   5.443
15594WAT      O47023   4.129   9.792   1.851
15594WAT     H147024   4.044   9.759   1.809
15594WAT     H247025   4.112   9.814   1.947
15595WAT      O47026   1.091   3.410   2.170
15595WAT     H147027   1.184   3.430   2.143
15595WAT     H247028   1.070   3.314   2.151
15596WAT      O47029   9.558   8.478   7.421
15596WAT     H147030   9.475   8.446   7.375
15596WAT     H247031   9.637   8.459   7.363
15597WAT      O47032   3.126   4.210   6.511
15597WAT     H147033   3.044   4.263   6.535
15597WAT     H247034   3.203   4.271   6.498
15598WAT      O47035   1.925   4.644   5.890
15598WAT     H147036   1.966   4.735   5.885
15598WAT     H247037   1.869   4.638   5.973
15599WAT      O47038   1.236   0.071   8.235
15599WAT     H147039   1.164   0.134   8.205
15599WAT     H247040   1.238  -0.009   8.175
15600WAT      O47041   1.454   7.589   4.340
15600WAT     H147042   1.398   7.508   4.358
15600WAT     H247043   1.475   7.595   4.242
15601WAT      O47044   2.534   3.109   6.049
15601WAT     H147045   2.598   3.043   6.010
15601WAT     H247046   2.585   3.187   6.085
15602WAT      O47047   7.653   1.673   0.532
15602WAT     H147048   7.596   1.703   0.609
15602WAT     H247049   7.613   1.705   0.446
15603WAT      O47050   9.425   6.988   1.555
15603WAT     H147051   9.402   7.078   1.518
15603WAT     H247052   9.494   6.998   1.627
15604WAT      O47053   5.915   5.117   9.373
15604WAT     H147054   5.999   5.088   9.327
15604WAT     H247055   5.863   5.037   9.402
15605WAT      O47056   7.230   5.088   8.951
15605WAT     H147057   7.252   5.015   9.016
15605WAT     H247058   7.188   5.164   9.000
15606WAT      O47059   8.937   1.575   5.843
15606WAT     H147060   8.928   1.585   5.744
15606WAT     H247061   9.034   1.581   5.868
15607WAT      O47062   0.733   6.546   0.539
15607WAT     H147063   0.646   6.575   0.579
15607WAT     H247064   0.773   6.622   0.487
15608WAT      O47065   0.464   3.990   5.645
15608WAT     H147066   0.530   4.017   5.574
15608WAT     H247067   0.374   4.027   5.622
15609WAT      O47068   4.818   2.487   2.343
15609WAT     H147069   4.834   2.420   2.416
15609WAT     H247070   4.721   2.509   2.339
15610WAT      O47071   6.423   1.178   9.571
15610WAT     H147072   6.493   1.235   9.530
15610WAT     H247073   6.374   1.230   9.641
15611WAT      O47074   8.796   3.340   0.826
15611WAT     H147075   8.746   3.425   0.838
15611WAT     H247076   8.735   3.270   0.788
15612WAT      O47077   7.251   5.500   5.348
15612WAT     H147078   7.347   5.473   5.336
15612WAT     H247079   7.215   5.530   5.260
15613WAT      O47080   5.361   0.840   6.877
15613WAT     H147081   5.377   0.932   6.842
15613WAT     H247082   5.267   0.812   6.856
15614WAT      O47083   0.854   5.246   6.476
15614WAT     H147084   0.906   5.217   6.557
15614WAT     H247085   0.777   5.183   6.463
15615WAT      O47086   7.523   8.375   5.694
15615WAT     H147087   7.439   8.325   5.714
15615WAT     H247088   7.505   8.473   5.697
15616WAT      O47089   4.582   4.375   8.477
15616WAT     H147090   4.544   4.358   8.386
15616WAT     H247091   4.667   4.427   8.468
15617WAT      O47092   2.022   7.089   6.117
15617WAT     H147093   1.971   7.166   6.079
15617WAT     H247094   1.959   7.015   6.141
15618WAT      O47095   8.725   1.477   9.573
15618WAT     H147096   8.652   1.503   9.637
15618WAT     H247097   8.696   1.497   9.479
15619WAT      O47098   4.928   6.460   1.355
15619WAT     H147099   4.983   6.378   1.370
15619WAT     H247100   4.832   6.435   1.343
15620WAT      O47101   2.297   4.275   0.345
15620WAT     H147102   2.372   4.211   0.363
15620WAT     H247103   2.231   4.232   0.283
15621WAT      O47104   1.006   0.959   0.059
15621WAT     H147105   1.034   0.863   0.053
15621WAT     H247106   0.959   0.975   0.146
15622WAT      O47107   2.418   6.623   2.626
15622WAT     H147108   2.486   6.664   2.687
15622WAT     H247109   2.367   6.695   2.580
15623WAT      O47110   6.562   3.504   3.318
15623WAT     H147111   6.550   3.432   3.387
15623WAT     H247112   6.571   3.593   3.363
15624WAT      O47113   4.957   7.493   9.597
15624WAT     H147114   4.926   7.574   9.547
15624WAT     H247115   4.906   7.413   9.564
15625WAT      O47116   6.413   1.811   7.476
15625WAT     H147117   6.457   1.859   7.400
15625WAT     H247118   6.482   1.764   7.531
15626WAT      O47119   8.647   9.083   0.843
15626WAT     H147120   8.692   9.157   0.792
15626WAT     H247121   8.707   9.004   0.846
15627WAT      O47122   0.440   1.862   1.596
15627WAT     H147123   0.377   1.917   1.651
15627WAT     H247124   0.424   1.765   1.615
15628WAT      O47125   0.895   3.402   6.435
15628WAT     H147126   0.906   3.390   6.336
15628WAT     H247127   0.947   3.482   6.464
15629WAT      O47128   3.441   4.174   6.580
15629WAT     H147129   3.494   4.254   6.552
15629WAT     H247130   3.461   4.097   6.519
15630WAT      O47131   6.641   8.338   0.330
15630WAT     H147132   6.680   8.284   0.404
15630WAT     H247133   6.585   8.279   0.271
15631WAT      O47134   0.234   8.216   5.801
15631WAT     H147135   0.140   8.228   5.834
15631WAT     H247136   0.266   8.125   5.825
15632WAT      O47137   2.707   0.612   5.849
15632WAT     H147138   2.629   0.587   5.790
15632WAT     H247139   2.786   0.557   5.824
15633WAT      O47140   9.884   0.126   2.360
15633WAT     H147141   9.888   0.184   2.278
15633WAT     H247142   9.789   0.117   2.390
15634WAT      O47143   9.885   2.160   6.585
15634WAT     H147144   9.982   2.160   6.611
15634WAT     H247145   9.838   2.234   6.633
15635WAT      O47146   2.503   7.356   3.611
15635WAT     H147147   2.599   7.343   3.633
15635WAT     H247148   2.446   7.330   3.689
15636WAT      O47149   3.089   0.767   1.041
15636WAT     H147150   3.156   0.823   0.992
15636WAT     H247151   3.073   0.682   0.991
15637WAT      O47152   1.780   8.629   7.127
15637WAT     H147153   1.742   8.537   7.136
15637WAT     H247154   1.709   8.697   7.147
15638WAT      O47155   2.614   3.194   1.484
15638WAT     H147156   2.529   3.225   1.525
15638WAT     H247157   2.642   3.258   1.412
15639WAT      O47158   2.584   3.659   3.208
15639WAT     H147159   2.531   3.612   3.278
15639WAT     H247160   2.567   3.616   3.119
15640WAT      O47161   4.251   4.489   2.851
15640WAT     H147162   4.173   4.518   2.907
15640WAT     H247163   4.245   4.534   2.762
15641WAT      O47164   2.500   6.333   0.648
15641WAT     H147165   2.592   6.371   0.642
15641WAT     H247166   2.478   6.314   0.744
15642WAT      O47167   1.401   8.260   0.223
15642WAT     H147168   1.439   8.334   0.168
15642WAT     H247169   1.467   8.234   0.294
15643WAT      O47170   6.692   2.833   3.510
15643WAT     H147171   6.686   2.856   3.607
15643WAT     H247172   6.746   2.750   3.499
15644WAT      O47173   0.601   4.327   1.343
15644WAT     H147174   0.650   4.249   1.382
15644WAT     H247175   0.571   4.304   1.250
15645WAT      O47176   0.497   5.488   2.272
15645WAT     H147177   0.578   5.472   2.215
15645WAT     H247178   0.464   5.400   2.307
15646WAT      O47179   5.932   3.097   7.800
15646WAT     H147180   5.972   3.072   7.888
15646WAT     H247181   5.999   3.083   7.728
15647WAT      O47182   2.219   7.010   0.551
15647WAT     H147183   2.130   6.969   0.529
15647WAT     H247184   2.210   7.110   0.548
15648WAT      O47185   2.950   4.886   9.745
15648WAT     H147186   2.984   4.815   9.807
15648WAT     H247187   2.966   4.976   9.786
15649WAT      O47188   4.939   4.449   6.641
15649WAT     H147189   4.859   4.389   6.645
15649WAT     H247190   4.926   4.526   6.705
15650WAT      O47191   1.649   1.324   8.459
15650WAT     H147192   1.596   1.290   8.382
15650WAT     H247193   1.735   1.363   8.425
15651WAT      O47194   4.060   0.962   7.404
15651WAT     H147195   4.056   0.894   7.331
15651WAT     H247196   4.035   1.052   7.367
15652WAT      O47197   1.089   9.759   0.795
15652WAT     H147198   0.990   9.745   0.786
15652WAT     H247199   1.116   9.839   0.742
15653WAT      O47200   2.154   2.067   0.089
15653WAT     H147201   2.078   2.132   0.082
15653WAT     H247202   2.182   2.060   0.185
15654WAT      O47203   5.936   9.527   7.796
15654WAT     H147204   6.020   9.513   7.743
15654WAT     H247205   5.875   9.448   7.783
15655WAT      O47206   7.597   1.386   1.376
15655WAT     H147207   7.634   1.438   1.298
15655WAT     H247208   7.651   1.405   1.457
15656WAT      O47209   4.528   5.013   9.334
15656WAT     H147210   4.559   4.969   9.419
15656WAT     H247211   4.608   5.039   9.280
15657WAT      O47212   7.240   6.257   8.711
15657WAT     H147213   7.163   6.320   8.721
15657WAT     H247214   7.319   6.294   8.760
15658WAT      O47215   5.663   9.505   5.499
15658WAT     H147216   5.663   9.501   5.599
15658WAT     H247217   5.588   9.449   5.463
15659WAT      O47218   0.264   0.191   6.174
15659WAT     H147219   0.221   0.143   6.098
15659WAT     H247220   0.259   0.289   6.159
15660WAT      O47221   1.045   6.580   6.531
15660WAT     H147222   1.108   6.593   6.607
15660WAT     H247223   1.001   6.666   6.509
15661WAT      O47224   8.278   5.963   8.319
15661WAT     H147225   8.288   5.865   8.306
15661WAT     H247226   8.183   5.989   8.304
15662WAT      O47227   7.542   1.495   3.453
15662WAT     H147228   7.523   1.529   3.361
15662WAT     H247229   7.563   1.397   3.448
15663WAT      O47230   7.941   3.066   5.776
15663WAT     H147231   7.890   3.015   5.707
15663WAT     H247232   8.023   3.015   5.802
15664WAT      O47233   8.089   0.120   2.961
15664WAT     H147234   8.057   0.183   3.033
15664WAT     H247235   8.062   0.027   2.984
15665WAT      O47236   3.239   2.260   3.642
15665WAT     H147237   3.210   2.227   3.552
15665WAT     H247238   3.302   2.336   3.631
15666WAT      O47239   7.519   3.204   1.263
15666WAT     H147240   7.497   3.166   1.173
15666WAT     H247241   7.500   3.303   1.262
15667WAT      O47242   6.638   7.796   0.715
15667WAT     H147243   6.733   7.815   0.690
15667WAT     H247244   6.634   7.771   0.812
15668WAT      O47245   4.539   3.565   9.114
15668WAT     H147246   4.603   3.636   9.086
15668WAT     H247247   4.446   3.592   9.088
15669WAT      O47248   8.439   8.048   5.562
15669WAT     H147249   8.494   8.070   5.643
15669WAT     H247250   8.500   8.036   5.483
15670WAT      O47251   4.080   4.144   0.622
15670WAT     H147252   4.167   4.172   0.663
15670WAT     H247253   4.096   4.110   0.529
15671WAT      O47254   1.053   7.227   5.075
15671WAT     H147255   1.113   7.281   5.016
15671WAT     H247256   1.024   7.145   5.026
15672WAT      O47257   5.878   7.194   5.713
15672WAT     H147258   5.828   7.279   5.694
15672WAT     H247259   5.976   7.213   5.716
15673WAT      O47260   4.342   5.450   1.059
15673WAT     H147261   4.289   5.366   1.075
15673WAT     H247262   4.293   5.528   1.098
15674WAT      O47263   4.050   5.571   6.981
15674WAT     H147264   4.089   5.628   7.054
15674WAT     H247265   4.097   5.483   6.978
15675WAT      O47266   9.325   3.629   6.142
15675WAT     H147267   9.275   3.715   6.151
15675WAT     H247268   9.398   3.625   6.210
15676WAT      O47269   4.242   0.402   9.586
15676WAT     H147270   4.266   0.414   9.490
15676WAT     H247271   4.302   0.458   9.643
15677WAT      O47272   0.077   8.571   0.554
15677WAT     H147273   0.059   8.473   0.558
15677WAT     H247274   0.009   8.620   0.610
15678WAT      O47275   0.469   3.375   9.164
15678WAT     H147276   0.441   3.327   9.247
15678WAT     H247277   0.403   3.446   9.143
15679WAT      O47278   6.042   9.456   4.534
15679WAT     H147279   5.997   9.472   4.622
15679WAT     H247280   6.141   9.456   4.547
15680WAT      O47281   7.736   6.278   6.279
15680WAT     H147282   7.834   6.264   6.287
15680WAT     H247283   7.718   6.369   6.243
15681WAT      O47284   7.288   8.128   8.685
15681WAT     H147285   7.204   8.114   8.738
15681WAT     H247286   7.346   8.195   8.731
15682WAT      O47287   5.554   2.979   5.957
15682WAT     H147288   5.468   3.002   6.004
15682WAT     H247289   5.546   2.999   5.860
15683WAT      O47290   5.497   1.665   8.481
15683WAT     H147291   5.462   1.572   8.485
15683WAT     H247292   5.467   1.715   8.562
15684WAT      O47293   6.688   9.729   9.058
15684WAT     H147294   6.727   9.651   9.010
15684WAT     H247295   6.724   9.732   9.151
15685WAT      O47296   2.380   3.830   6.313
15685WAT     H147297   2.375   3.873   6.223
15685WAT     H247298   2.288   3.821   6.352
15686WAT      O47299   6.852   2.608   3.631
15686WAT     H147300   6.913   2.530   3.645
15686WAT     H247301   6.764   2.589   3.674
15687WAT      O47302   3.172   2.075   1.448
15687WAT     H147303   3.167   2.154   1.510
15687WAT     H247304   3.266   2.063   1.418
15688WAT      O47305   2.306   0.524   8.113
15688WAT     H147306   2.377   0.545   8.046
15688WAT     H247307   2.335   0.448   8.171
15689WAT      O47308   7.850   8.286   5.492
15689WAT     H147309   7.766   8.300   5.440
15689WAT     H247310   7.927   8.276   5.429
15690WAT      O47311   8.898   6.063   8.265
15690WAT     H147312   8.802   6.090   8.263
15690WAT     H247313   8.951   6.123   8.204
15691WAT      O47314   2.672   8.113   8.614
15691WAT     H147315   2.611   8.062   8.552
15691WAT     H247316   2.765   8.079   8.603
15692WAT      O47317   1.509   2.530   8.870
15692WAT     H147318   1.454   2.586   8.808
15692WAT     H247319   1.578   2.587   8.914
15693WAT      O47320   4.976   7.267   3.705
15693WAT     H147321   5.026   7.307   3.628
15693WAT     H247322   4.880   7.296   3.701
15694WAT      O47323   9.005   8.573   8.051
15694WAT     H147324   8.985   8.540   8.144
15694WAT     H247325   8.947   8.523   7.986
15695WAT      O47326   0.157   4.997   9.748
15695WAT     H147327   0.069   4.956   9.723
15695WAT     H247328   0.157   5.019   9.846
15696WAT      O47329   6.637   3.191   6.062
15696WAT     H147330   6.703   3.266   6.059
15696WAT     H247331   6.601   3.173   5.971
15697WAT      O47332   7.875   3.256   0.565
15697WAT     H147333   7.831   3.190   0.504
15697WAT     H247334   7.809   3.326   0.591
15698WAT      O47335   1.483   7.279   7.371
15698WAT     H147336   1.539   7.347   7.419
15698WAT     H247337   1.390   7.280   7.408
15699WAT      O47338   7.461   1.216   3.222
15699WAT     H147339   7.398   1.293   3.209
15699WAT     H247340   7.555   1.247   3.209
15700WAT      O47341   8.181   8.696   9.027
15700WAT     H147342   8.208   8.784   8.989
15700WAT     H247343   8.082   8.685   9.021
15701WAT      O47344   2.019   6.035   2.484
15701WAT     H147345   1.977   6.073   2.567
15701WAT     H247346   2.086   6.100   2.447
15702WAT      O47347   3.003   0.534   0.634
15702WAT     H147348   3.014   0.438   0.610
15702WAT     H247349   2.966   0.584   0.555
15703WAT      O47350   4.992   6.751   3.014
15703WAT     H147351   4.971   6.661   3.052
15703WAT     H247352   4.938   6.766   2.931
15704WAT      O47353   5.077   0.914   3.002
15704WAT     H147354   5.000   0.874   2.952
15704WAT     H247355   5.042   0.971   3.077
15705WAT      O47356   0.239   4.707   8.704
15705WAT     H147357   0.159   4.763   8.725
15705WAT     H247358   0.267   4.724   8.610
15706WAT      O47359   1.545   6.817   9.249
15706WAT     H147360   1.624   6.787   9.303
15706WAT     H247361   1.462   6.811   9.304
15707WAT      O47362   7.861   2.635   3.458
15707WAT     H147363   7.864   2.663   3.362
15707WAT     H247364   7.773   2.659   3.498
15708WAT      O47365   5.480   0.389   7.978
15708WAT     H147366   5.411   0.316   7.984
15708WAT     H247367   5.436   0.473   7.945
15709WAT      O47368   2.969   0.957   7.281
15709WAT     H147369   2.940   0.884   7.344
15709WAT     H247370   3.067   0.946   7.262
15710WAT      O47371   4.044   0.277   6.824
15710WAT     H147372   4.057   0.246   6.918
15710WAT     H247373   4.125   0.255   6.770
15711WAT      O47374   3.929   4.620   8.899
15711WAT     H147375   3.853   4.648   8.841
15711WAT     H247376   4.008   4.596   8.843
15712WAT      O47377   6.428   0.679   6.061
15712WAT     H147378   6.509   0.644   6.108
15712WAT     H247379   6.352   0.615   6.074
15713WAT      O47380   7.222   1.585   6.911
15713WAT     H147381   7.200   1.682   6.909
15713WAT     H247382   7.322   1.573   6.908
15714WAT      O47383   6.315   9.555   7.002
15714WAT     H147384   6.264   9.556   7.088
15714WAT     H247385   6.359   9.644   6.988
15715WAT      O47386   5.098   7.053   8.721
15715WAT     H147387   5.145   7.141   8.713
15715WAT     H247388   5.099   7.023   8.816
15716WAT      O47389   7.677   4.148   8.169
15716WAT     H147390   7.750   4.193   8.118
15716WAT     H247391   7.705   4.055   8.191
15717WAT      O47392   1.446   3.652   8.195
15717WAT     H147393   1.443   3.647   8.095
15717WAT     H247394   1.380   3.720   8.227
15718WAT      O47395   9.627   7.943   6.069
15718WAT     H147396   9.595   7.908   6.157
15718WAT     H247397   9.725   7.926   6.060
15719WAT      O47398   2.140   6.967   2.998
15719WAT     H147399   2.194   6.940   3.078
15719WAT     H247400   2.043   6.953   3.018
15720WAT      O47401   6.742   9.567   6.326
15720WAT     H147402   6.745   9.632   6.250
15720WAT     H247403   6.656   9.578   6.376
15721WAT      O47404   5.300   5.926   7.508
15721WAT     H147405   5.271   5.989   7.580
15721WAT     H247406   5.225   5.865   7.483
15722WAT      O47407   2.430   2.600   4.000
15722WAT     H147408   2.394   2.593   3.907
15722WAT     H247409   2.493   2.524   4.017
15723WAT      O47410   4.049   5.114   3.919
15723WAT     H147411   4.010   5.024   3.937
15723WAT     H247412   4.055   5.165   4.005
15724WAT      O47413   0.818   7.851   7.034
15724WAT     H147414   0.887   7.895   7.093
15724WAT     H247415   0.861   7.821   6.949
15725WAT      O47416   1.514   2.578   0.163
15725WAT     H147417   1.432   2.614   0.208
15725WAT     H247418   1.544   2.641   0.092
15726WAT      O47419   2.675   8.593   2.916
15726WAT     H147420   2.662   8.686   2.950
15726WAT     H247421   2.768   8.562   2.938
15727WAT      O47422   5.999   4.796   7.301
15727WAT     H147423   6.002   4.752   7.212
15727WAT     H247424   6.030   4.891   7.292
15728WAT      O47425   9.265   5.255   7.776
15728WAT     H147426   9.322   5.268   7.695
15728WAT     H247427   9.179   5.211   7.749
15729WAT      O47428   2.195   1.158   3.796
15729WAT     H147429   2.133   1.234   3.773
15729WAT     H247430   2.174   1.125   3.888
15730WAT      O47431   3.732   6.820   3.003
15730WAT     H147432   3.684   6.881   3.065
15730WAT     H247433   3.716   6.725   3.029
15731WAT      O47434   8.971   9.356   2.521
15731WAT     H147435   8.985   9.333   2.425
15731WAT     H247436   8.898   9.424   2.529
15732WAT      O47437   1.476   5.409   0.887
15732WAT     H147438   1.448   5.432   0.980
15732WAT     H247439   1.395   5.391   0.831
15733WAT      O47440   4.778   0.781   0.762
15733WAT     H147441   4.792   0.806   0.858
15733WAT     H247442   4.754   0.684   0.756
15734WAT      O47443   7.532   5.245   6.799
15734WAT     H147444   7.619   5.293   6.800
15734WAT     H247445   7.510   5.218   6.705
15735WAT      O47446   1.264   8.144   2.982
15735WAT     H147447   1.213   8.075   3.033
15735WAT     H247448   1.290   8.106   2.893
15736WAT      O47449   7.099   4.463   9.146
15736WAT     H147450   7.035   4.448   9.221
15736WAT     H247451   7.051   4.456   9.059
15737WAT      O47452   5.991   9.721   1.523
15737WAT     H147453   6.059   9.765   1.583
15737WAT     H247454   5.901   9.762   1.538
15738WAT      O47455   3.344   8.054   5.932
15738WAT     H147456   3.259   8.059   5.880
15738WAT     H247457   3.413   8.112   5.888
15739WAT      O47458   6.917   2.633   4.317
15739WAT     H147459   7.005   2.669   4.347
15739WAT     H247460   6.871   2.588   4.394
15740WAT      O47461   2.842   2.879   1.646
15740WAT     H147462   2.879   2.882   1.553
15740WAT     H247463   2.814   2.786   1.669
15741WAT      O47464   4.728   5.514   6.925
15741WAT     H147465   4.760   5.519   6.830
15741WAT     H247466   4.792   5.563   6.984
15742WAT      O47467   6.044   9.483   5.182
15742WAT     H147468   6.011   9.422   5.254
15742WAT     H247469   5.970   9.504   5.119
15743WAT      O47470   8.288   6.122   5.480
15743WAT     H147471   8.287   6.140   5.382
15743WAT     H247472   8.237   6.038   5.499
15744WAT      O47473   4.422   4.434   1.291
15744WAT     H147474   4.508   4.470   1.254
15744WAT     H247475   4.418   4.336   1.276
15745WAT      O47476   8.617   6.423   6.056
15745WAT     H147477   8.606   6.515   6.093
15745WAT     H247478   8.714   6.406   6.038
15746WAT      O47479   7.865   5.606   8.737
15746WAT     H147480   7.904   5.624   8.646
15746WAT     H247481   7.834   5.511   8.742
15747WAT      O47482   3.714   0.441   7.514
15747WAT     H147483   3.775   0.494   7.455
15747WAT     H247484   3.669   0.370   7.460
15748WAT      O47485   0.669   0.217   6.103
15748WAT     H147486   0.626   0.299   6.066
15748WAT     H247487   0.643   0.205   6.199
15749WAT      O47488   3.492   4.828   1.033
15749WAT     H147489   3.482   4.840   1.131
15749WAT     H247490   3.574   4.774   1.014
15750WAT      O47491   9.457   4.625   5.394
15750WAT     H147492   9.440   4.563   5.471
15750WAT     H247493   9.556   4.641   5.386
15751WAT      O47494   2.456   5.195   3.770
15751WAT     H147495   2.449   5.267   3.701
15751WAT     H247496   2.402   5.220   3.850
15752WAT      O47497   9.791   6.868   5.690
15752WAT     H147498   9.826   6.822   5.771
15752WAT     H247499   9.860   6.867   5.618
15753WAT      O47500   4.648   0.495   0.749
15753WAT     H147501   4.711   0.418   0.736
15753WAT     H247502   4.598   0.481   0.834
15754WAT      O47503   8.948   0.547   7.424
15754WAT     H147504   8.945   0.510   7.517
15754WAT     H247505   9.018   0.619   7.419
15755WAT      O47506   9.182   0.331   4.322
15755WAT     H147507   9.107   0.273   4.291
15755WAT     H247508   9.214   0.388   4.246
15756WAT      O47509   5.224   0.076   5.677
15756WAT     H147510   5.207   0.094   5.773
15756WAT     H247511   5.176  -0.008   5.649
15757WAT      O47512   8.879   1.243   7.088
15757WAT     H147513   8.961   1.261   7.142
15757WAT     H247514   8.802   1.226   7.149
15758WAT      O47515   5.899   1.443   4.048
15758WAT     H147516   5.840   1.523   4.063
15758WAT     H247517   5.966   1.438   4.122
15759WAT      O47518   9.090   7.715   4.513
15759WAT     H147519   9.114   7.747   4.422
15759WAT     H247520   9.171   7.678   4.559
15760WAT      O47521   3.413   1.172  -0.000
15760WAT     H147522   3.389   1.108   0.073
15760WAT     H247523   3.513   1.179  -0.006
15761WAT      O47524   5.088   7.531   0.036
15761WAT     H147525   5.135   7.449   0.067
15761WAT     H247526   5.040   7.513  -0.050
15762WAT      O47527   6.819   3.357   8.449
15762WAT     H147528   6.840   3.392   8.357
15762WAT     H247529   6.825   3.432   8.515
15763WAT      O47530   2.331   6.328   6.192
15763WAT     H147531   2.349   6.410   6.139
15763WAT     H247532   2.258   6.275   6.147
15764WAT      O47533   2.303   5.371   7.437
15764WAT     H147534   2.273   5.419   7.355
15764WAT     H247535   2.351   5.435   7.497
15765WAT      O47536   1.012   1.332   5.869
15765WAT     H147537   0.958   1.400   5.821
15765WAT     H247538   1.099   1.373   5.898
15766WAT      O47539   3.683   3.494   4.568
15766WAT     H147540   3.666   3.558   4.643
15766WAT     H247541   3.779   3.499   4.541
15767WAT      O47542   0.334   2.567   3.105
15767WAT     H147543   0.323   2.663   3.081
15767WAT     H247544   0.426   2.551   3.140
15768WAT      O47545   8.409   1.233   9.755
15768WAT     H147546   8.346   1.156   9.765
15768WAT     H247547   8.371   1.298   9.689
15769WAT      O47548   3.322   8.741   7.128
15769WAT     H147549   3.416   8.737   7.094
15769WAT     H247550   3.262   8.778   7.058
15770WAT      O47551   8.559   7.041   2.006
15770WAT     H147552   8.483   6.996   1.958
15770WAT     H247553   8.622   7.079   1.939
15771WAT      O47554   5.010   6.168   9.790
15771WAT     H147555   5.034   6.147   9.885
15771WAT     H247556   4.915   6.198   9.786
15772WAT      O47557   7.633   2.927   6.452
15772WAT     H147558   7.720   2.896   6.491
15772WAT     H247559   7.578   2.847   6.426
15773WAT      O47560   6.015   5.886   6.907
15773WAT     H147561   6.013   5.875   6.808
15773WAT     H247562   6.006   5.796   6.951
15774WAT      O47563   1.527   1.053   8.893
15774WAT     H147564   1.534   1.034   8.795
15774WAT     H247565   1.549   1.149   8.910
15775WAT      O47566   0.206   8.101   3.051
15775WAT     H147567   0.176   8.084   3.145
15775WAT     H247568   0.202   8.015   2.999
15776WAT      O47569   4.434   8.155   4.256
15776WAT     H147570   4.361   8.125   4.318
15776WAT     H247571   4.416   8.120   4.164
15777WAT      O47572   5.784   3.008   7.414
15777WAT     H147573   5.759   3.097   7.376
15777WAT     H247574   5.878   2.986   7.389
15778WAT      O47575   0.387   2.504   5.135
15778WAT     H147576   0.424   2.569   5.069
15778WAT     H247577   0.444   2.422   5.137
15779WAT      O47578   6.043   0.358   9.361
15779WAT     H147579   6.043   0.438   9.300
15779WAT     H247580   6.104   0.288   9.324
15780WAT      O47581   3.068   2.645   0.347
15780WAT     H147582   2.994   2.712   0.352
15780WAT     H247583   3.032   2.555   0.373
15781WAT      O47584   0.980   4.793   4.656
15781WAT     H147585   1.070   4.768   4.690
15781WAT     H247586   0.985   4.809   4.557
15782WAT      O47587   6.843   4.706   0.736
15782WAT     H147588   6.861   4.608   0.729
15782WAT     H247589   6.813   4.742   0.648
15783WAT      O47590   3.275   8.348   1.695
15783WAT     H147591   3.198   8.302   1.651
15783WAT     H247592   3.255   8.360   1.792
15784WAT      O47593   6.351   4.773   0.378
15784WAT     H147594   6.358   4.791   0.280
15784WAT     H247595   6.425   4.712   0.407
15785WAT      O47596   6.739   8.107   3.798
15785WAT     H147597   6.808   8.100   3.870
15785WAT     H247598   6.784   8.121   3.709
15786WAT      O47599   6.965   9.643   7.966
15786WAT     H147600   6.965   9.632   8.065
15786WAT     H247601   7.030   9.579   7.925
15787WAT      O47602   4.139   2.741   5.591
15787WAT     H147603   4.167   2.837   5.598
15787WAT     H247604   4.074   2.720   5.664
15788WAT      O47605   5.276   5.159   4.456
15788WAT     H147606   5.238   5.102   4.384
15788WAT     H247607   5.375   5.150   4.457
15789WAT      O47608   6.502   1.426   8.885
15789WAT     H147609   6.442   1.378   8.821
15789WAT     H247610   6.460   1.424   8.976
15790WAT      O47611   6.724   3.483   7.716
15790WAT     H147612   6.744   3.389   7.744
15790WAT     H247613   6.660   3.525   7.780
15791WAT      O47614   1.755   6.688   7.334
15791WAT     H147615   1.835   6.679   7.393
15791WAT     H247616   1.749   6.781   7.300
15792WAT      O47617   4.027   9.110   5.303
15792WAT     H147618   4.073   9.033   5.348
15792WAT     H247619   3.942   9.131   5.352
15793WAT      O47620   2.311   7.805   3.461
15793WAT     H147621   2.361   7.743   3.521
15793WAT     H247622   2.252   7.752   3.399
15794WAT      O47623   4.464   4.458   3.917
15794WAT     H147624   4.414   4.472   4.002
15794WAT     H247625   4.505   4.367   3.916
15795WAT      O47626   8.152   3.553   3.978
15795WAT     H147627   8.074   3.613   3.993
15795WAT     H247628   8.138   3.500   3.894
15796WAT      O47629   7.400   5.877   8.524
15796WAT     H147630   7.454   5.815   8.580
15796WAT     H247631   7.446   5.966   8.519
15797WAT      O47632   7.739   7.739   2.886
15797WAT     H147633   7.677   7.806   2.845
15797WAT     H247634   7.733   7.653   2.834
15798WAT      O47635   4.040   7.808   1.217
15798WAT     H147636   4.051   7.787   1.120
15798WAT     H247637   3.952   7.853   1.231
15799WAT      O47638   0.958   4.583   3.375
15799WAT     H147639   0.877   4.556   3.322
15799WAT     H247640   1.031   4.611   3.313
15800WAT      O47641   6.960   7.358   5.489
15800WAT     H147642   6.946   7.454   5.467
15800WAT     H247643   6.943   7.343   5.586
15801WAT      O47644   2.366   1.343   6.822
15801WAT     H147645   2.271   1.321   6.845
15801WAT     H247646   2.374   1.439   6.798
15802WAT      O47647   6.112   4.792   1.551
15802WAT     H147648   6.048   4.720   1.578
15802WAT     H247649   6.189   4.752   1.501
15803WAT      O47650   9.769   2.102   6.354
15803WAT     H147651   9.699   2.042   6.391
15803WAT     H247652   9.833   2.127   6.427
15804WAT      O47653   6.545   5.620   0.033
15804WAT     H147654   6.466   5.669   0.068
15804WAT     H247655   6.592   5.573   0.108
15805WAT      O47656   8.555   7.419   0.264
15805WAT     H147657   8.549   7.434   0.165
15805WAT     H247658   8.554   7.321   0.283
15806WAT      O47659   7.747   8.509   8.070
15806WAT     H147660   7.693   8.566   8.131
15806WAT     H247661   7.777   8.427   8.118
15807WAT      O47662   9.796   2.219   8.072
15807WAT     H147663   9.850   2.171   8.003
15807WAT     H247664   9.705   2.238   8.035
15808WAT      O47665   9.223   3.418   3.716
15808WAT     H147666   9.147   3.482   3.706
15808WAT     H247667   9.205   3.336   3.662
15809WAT      O47668   2.052   1.084   9.665
15809WAT     H147669   1.977   1.100   9.729
15809WAT     H247670   2.126   1.150   9.682
15810WAT      O47671   0.138   4.498   7.272
15810WAT     H147672   0.231   4.489   7.308
15810WAT     H247673   0.142   4.532   7.178
15811WAT      O47674   8.445   1.885   5.767
15811WAT     H147675   8.482   1.974   5.737
15811WAT     H247676   8.520   1.822   5.783
15812WAT      O47677   5.404   8.122   0.785
15812WAT     H147678   5.305   8.115   0.797
15812WAT     H247679   5.439   8.200   0.836
15813WAT      O47680   5.245   8.556   4.693
15813WAT     H147681   5.221   8.471   4.647
15813WAT     H247682   5.334   8.588   4.660
15814WAT      O47683   3.351   3.569   3.296
15814WAT     H147684   3.333   3.609   3.206
15814WAT     H247685   3.395   3.638   3.354
15815WAT      O47686   7.722   0.587   9.572
15815WAT     H147687   7.631   0.599   9.532
15815WAT     H247688   7.767   0.676   9.582
15816WAT      O47689   1.224  -0.004   6.753
15816WAT     H147690   1.238   0.013   6.851
15816WAT     H247691   1.190   0.079   6.709
15817WAT      O47692   6.600   2.961   5.338
15817WAT     H147693   6.624   3.018   5.260
15817WAT     H247694   6.640   2.870   5.326
15818WAT      O47695   4.201   0.072   8.342
15818WAT     H147696   4.206   0.144   8.272
15818WAT     H247697   4.142   0.103   8.417
15819WAT      O47698   3.985   0.201   3.016
15819WAT     H147699   4.046   0.228   3.090
15819WAT     H247700   4.039   0.178   2.935
15820WAT      O47701   2.403   5.150   6.331
15820WAT     H147702   2.342   5.090   6.382
15820WAT     H247703   2.354   5.233   6.304
15821WAT      O47704   5.988   6.573   9.244
15821WAT     H147705   5.978   6.573   9.344
15821WAT     H247706   5.959   6.662   9.208
15822WAT      O47707   2.067   8.677   9.356
15822WAT     H147708   1.976   8.696   9.394
15822WAT     H247709   2.078   8.726   9.270
15823WAT      O47710   1.481   5.367   5.247
15823WAT     H147711   1.448   5.406   5.161
15823WAT     H247712   1.404   5.334   5.301
15824WAT      O47713   1.074   9.318   4.515
15824WAT     H147714   0.995   9.379   4.522
15824WAT     H247715   1.097   9.303   4.419
15825WAT      O47716   3.934   0.684   1.736
15825WAT     H147717   4.006   0.682   1.806
15825WAT     H247718   3.929   0.776   1.697
15826WAT      O47719   3.188   1.046   9.025
15826WAT     H147720   3.124   0.977   9.059
15826WAT     H247721   3.210   1.027   8.929
15827WAT      O47722   9.678   8.370   3.231
15827WAT     H147723   9.766   8.376   3.278
15827WAT     H247724   9.665   8.451   3.175
15828WAT      O47725   8.109   3.243   1.572
15828WAT     H147726   8.139   3.254   1.478
15828WAT     H247727   8.009   3.235   1.575
15829WAT      O47728   7.307   1.552   4.838
15829WAT     H147729   7.372   1.507   4.777
15829WAT     H247730   7.252   1.483   4.885
15830WAT      O47731   4.354   5.417   0.445
15830WAT     H147732   4.441   5.449   0.483
15830WAT     H247733   4.278   5.455   0.497
15831WAT      O47734   2.254   8.808   3.839
15831WAT     H147735   2.215   8.717   3.858
15831WAT     H247736   2.272   8.855   3.926
15832WAT      O47737   5.099   5.032   2.508
15832WAT     H147738   5.084   5.068   2.415
15832WAT     H247739   5.020   5.056   2.565
15833WAT      O47740   2.358   4.467   3.546
15833WAT     H147741   2.316   4.512   3.467
15833WAT     H247742   2.441   4.515   3.572
15834WAT      O47743   7.287   6.654   6.688
15834WAT     H147744   7.327   6.593   6.620
15834WAT     H247745   7.357   6.716   6.723
15835WAT      O47746   1.034   5.278   3.186
15835WAT     H147747   0.992   5.279   3.277
15835WAT     H247748   0.991   5.348   3.129
15836WAT      O47749   9.117   8.580   7.710
15836WAT     H147750   9.203   8.610   7.668
15836WAT     H247751   9.043   8.589   7.643
15837WAT      O47752   1.053   0.382   3.247
15837WAT     H147753   1.105   0.338   3.173
15837WAT     H247754   0.969   0.330   3.263
15838WAT      O47755   8.466   5.335   1.086
15838WAT     H147756   8.492   5.417   1.035
15838WAT     H247757   8.516   5.333   1.172
15839WAT      O47758   1.652   1.229   0.865
15839WAT     H147759   1.712   1.292   0.913
15839WAT     H247760   1.594   1.280   0.801
15840WAT      O47761   6.620   2.230   1.867
15840WAT     H147762   6.633   2.312   1.811
15840WAT     H247763   6.686   2.160   1.838
15841WAT      O47764   3.251   8.412   2.560
15841WAT     H147765   3.342   8.438   2.594
15841WAT     H247766   3.183   8.429   2.632
15842WAT      O47767   8.147   7.299   1.206
15842WAT     H147768   8.156   7.220   1.268
15842WAT     H247769   8.221   7.297   1.139
15843WAT      O47770   3.979   8.704   4.676
15843WAT     H147771   3.987   8.803   4.671
15843WAT     H247772   3.919   8.672   4.603
15844WAT      O47773   6.681   4.208   4.842
15844WAT     H147774   6.731   4.129   4.878
15844WAT     H247775   6.606   4.177   4.785
15845WAT      O47776   5.511   6.153   6.667
15845WAT     H147777   5.462   6.092   6.606
15845WAT     H247778   5.452   6.229   6.694
15846WAT      O47779   0.287   3.893   9.638
15846WAT     H147780   0.208   3.877   9.578
15846WAT     H247781   0.269   3.973   9.695
15847WAT      O47782   8.994   3.550   5.828
15847WAT     H147783   9.022   3.581   5.918
15847WAT     H247784   9.016   3.453   5.817
15848WAT      O47785   5.943   1.664   8.915
15848WAT     H147786   5.885   1.614   8.979
15848WAT     H247787   5.899   1.666   8.825
15849WAT      O47788   9.223   7.646   6.869
15849WAT     H147789   9.133   7.603   6.866
15849WAT     H247790   9.229   7.705   6.949
15850WAT      O47791   4.471   7.729   8.282
15850WAT     H147792   4.438   7.713   8.375
15850WAT     H247793   4.422   7.671   8.218
15851WAT      O47794   9.684   3.025   6.192
15851WAT     H147795   9.718   3.037   6.099
15851WAT     H247796   9.619   3.098   6.214
15852WAT      O47797   1.565   0.444   5.808
15852WAT     H147798   1.466   0.438   5.794
15852WAT     H247799   1.585   0.452   5.905
15853WAT      O47800   1.744   4.269   6.800
15853WAT     H147801   1.713   4.203   6.869
15853WAT     H247802   1.736   4.362   6.836
15854WAT      O47803   4.709   4.278   5.744
15854WAT     H147804   4.619   4.234   5.742
15854WAT     H247805   4.752   4.268   5.654
15855WAT      O47806   6.466   6.620   1.442
15855WAT     H147807   6.519   6.535   1.448
15855WAT     H247808   6.473   6.657   1.350
15856WAT      O47809   0.509   5.868   0.984
15856WAT     H147810   0.459   5.885   0.899
15856WAT     H247811   0.547   5.775   0.982
15857WAT      O47812   9.091   5.672   9.125
15857WAT     H147813   9.186   5.692   9.105
15857WAT     H247814   9.043   5.651   9.040
15858WAT      O47815   7.531   2.671   2.068
15858WAT     H147816   7.530   2.646   2.165
15858WAT     H247817   7.461   2.741   2.051
15859WAT      O47818   6.188   5.081   2.676
15859WAT     H147819   6.215   5.094   2.581
15859WAT     H247820   6.096   5.043   2.680
15860WAT      O47821   1.530   4.137   7.240
15860WAT     H147822   1.511   4.218   7.184
15860WAT     H247823   1.477   4.142   7.325
15861WAT      O47824   4.838   4.452   5.198
15861WAT     H147825   4.820   4.442   5.100
15861WAT     H247826   4.786   4.531   5.233
15862WAT      O47827   2.085   7.431   8.786
15862WAT     H147828   2.158   7.405   8.723
15862WAT     H247829   2.097   7.527   8.813
15863WAT      O47830   2.351   6.430   1.444
15863WAT     H147831   2.264   6.438   1.494
15863WAT     H247832   2.332   6.418   1.347
15864WAT      O47833   8.585   6.196   7.546
15864WAT     H147834   8.626   6.144   7.471
15864WAT     H247835   8.504   6.148   7.580
15865WAT      O47836   5.126   8.859   6.693
15865WAT     H147837   5.065   8.816   6.627
15865WAT     H247838   5.139   8.799   6.772
15866WAT      O47839   3.347   9.323   2.164
15866WAT     H147840   3.393   9.330   2.252
15866WAT     H247841   3.318   9.414   2.135
15867WAT      O47842   9.662   7.859   2.235
15867WAT     H147843   9.661   7.838   2.333
15867WAT     H247844   9.662   7.774   2.182
15868WAT      O47845   0.778   8.015   7.328
15868WAT     H147846   0.786   8.082   7.402
15868WAT     H247847   0.737   7.931   7.363
15869WAT      O47848   9.779   4.909   8.366
15869WAT     H147849   9.775   4.993   8.311
15869WAT     H247850   9.759   4.830   8.308
15870WAT      O47851   8.005   6.782   0.327
15870WAT     H147852   7.924   6.723   0.321
15870WAT     H247853   8.041   6.778   0.421
15871WAT      O47854   5.249   9.597   3.547
15871WAT     H147855   5.269   9.629   3.454
15871WAT     H247856   5.321   9.628   3.609
15872WAT      O47857   0.873   4.309   1.226
15872WAT     H147858   0.806   4.379   1.249
15872WAT     H247859   0.861   4.280   1.131
15873WAT      O47860   0.318   4.781   4.246
15873WAT     H147861   0.240   4.836   4.277
15873WAT     H247862   0.289   4.721   4.171
15874WAT      O47863   9.209   6.568   7.202
15874WAT     H147864   9.297   6.614   7.188
15874WAT     H247865   9.144   6.631   7.244
15875WAT      O47866   9.119   6.820   5.005
15875WAT     H147867   9.193   6.832   4.938
15875WAT     H247868   9.152   6.763   5.081
15876WAT      O47869   1.710   6.614   6.251
15876WAT     H147870   1.755   6.667   6.322
15876WAT     H247871   1.611   6.616   6.265
15877WAT      O47872   1.498   9.374   2.453
15877WAT     H147873   1.437   9.305   2.412
15877WAT     H247874   1.570   9.327   2.505
15878WAT      O47875   5.772   0.250   5.657
15878WAT     H147876   5.767   0.152   5.678
15878WAT     H247877   5.693   0.297   5.697
15879WAT      O47878   4.060   6.051   5.715
15879WAT     H147879   3.994   5.985   5.752
15879WAT     H247880   4.139   6.057   5.776
15880WAT      O47881   9.696   9.382   3.313
15880WAT     H147882   9.772   9.418   3.366
15880WAT     H247883   9.692   9.429   3.224
15881WAT      O47884   7.474   4.060   6.466
15881WAT     H147885   7.479   4.047   6.367
15881WAT     H247886   7.567   4.055   6.504
15882WAT      O47887   2.632   7.373   7.951
15882WAT     H147888   2.682   7.447   7.905
15882WAT     H247889   2.533   7.387   7.939
15883WAT      O47890   3.850   6.361   2.336
15883WAT     H147891   3.900   6.293   2.388
15883WAT     H247892   3.902   6.447   2.335
15884WAT      O47893   8.034   6.433   7.224
15884WAT     H147894   8.088   6.515   7.239
15884WAT     H247895   8.085   6.353   7.254
15885WAT      O47896   5.897   5.139   3.338
15885WAT     H147897   5.995   5.123   3.339
15885WAT     H247898   5.849   5.058   3.373
15886WAT      O47899   7.432   9.633   7.563
15886WAT     H147900   7.443   9.712   7.502
15886WAT     H247901   7.341   9.634   7.603
15887WAT      O47902   3.322   4.389   8.774
15887WAT     H147903   3.349   4.441   8.855
15887WAT     H247904   3.222   4.395   8.763
15888WAT      O47905   5.245   5.980   3.882
15888WAT     H147906   5.148   5.960   3.874
15888WAT     H247907   5.283   6.001   3.792
15889WAT      O47908   2.441   9.209   8.160
15889WAT     H147909   2.439   9.110   8.164
15889WAT     H247910   2.535   9.241   8.163
15890WAT      O47911   6.182   6.131   5.614
15890WAT     H147912   6.255   6.097   5.554
15890WAT     H247913   6.219   6.149   5.705
15891WAT      O47914   3.841   3.307   1.103
15891WAT     H147915   3.785   3.229   1.075
15891WAT     H247916   3.930   3.274   1.135
15892WAT      O47917   5.104   2.873   2.611
15892WAT     H147918   5.022   2.916   2.649
15892WAT     H247919   5.078   2.788   2.566
15893WAT      O47920   2.199   6.798   5.730
15893WAT     H147921   2.157   6.864   5.668
15893WAT     H247922   2.174   6.705   5.702
15894WAT      O47923   6.015   2.575   7.286
15894WAT     H147924   5.917   2.570   7.272
15894WAT     H247925   6.047   2.490   7.328
15895WAT      O47926   7.213   8.913   7.828
15895WAT     H147927   7.265   8.857   7.892
15895WAT     H247928   7.135   8.860   7.794
15896WAT      O47929   5.569   4.338   7.370
15896WAT     H147930   5.532   4.431   7.359
15896WAT     H247931   5.668   4.343   7.377
15897WAT      O47932   4.126   2.327   8.998
15897WAT     H147933   4.027   2.340   8.983
15897WAT     H247934   4.175   2.409   8.968
15898WAT      O47935   5.246   8.428   7.231
15898WAT     H147936   5.231   8.337   7.192
15898WAT     H247937   5.293   8.486   7.163
15899WAT      O47938   5.703   0.070   8.628
15899WAT     H147939   5.705   0.105   8.722
15899WAT     H247940   5.790   0.089   8.583
15900WAT      O47941   5.841   2.849   0.403
15900WAT     H147942   5.917   2.794   0.368
15900WAT     H247943   5.760   2.791   0.413
15901WAT      O47944   7.022   0.233   0.371
15901WAT     H147945   7.051   0.315   0.321
15901WAT     H247946   7.042   0.245   0.468
15902WAT      O47947   1.152   1.861   7.100
15902WAT     H147948   1.061   1.829   7.123
15902WAT     H247949   1.147   1.956   7.067
15903WAT      O47950   3.940   4.620   3.415
15903WAT     H147951   3.953   4.711   3.454
15903WAT     H247952   3.851   4.584   3.442
15904WAT      O47953   4.357   1.352   2.468
15904WAT     H147954   4.316   1.438   2.499
15904WAT     H247955   4.446   1.340   2.512
15905WAT      O47956   6.875   8.918   3.158
15905WAT     H147957   6.894   8.849   3.088
15905WAT     H247958   6.917   8.889   3.244
15906WAT      O47959   2.714   1.373   6.460
15906WAT     H147960   2.744   1.436   6.533
15906WAT     H247961   2.733   1.414   6.371
15907WAT      O47962   3.404   6.113   3.550
15907WAT     H147963   3.340   6.169   3.604
15907WAT     H247964   3.496   6.150   3.558
15908WAT      O47965   1.745   2.653   3.479
15908WAT     H147966   1.659   2.674   3.433
15908WAT     H247967   1.742   2.689   3.573
15909WAT      O47968   4.739   3.046   1.089
15909WAT     H147969   4.782   2.961   1.059
15909WAT     H247970   4.710   3.099   1.010
15910WAT      O47971   9.771   6.521   4.459
15910WAT     H147972   9.737   6.611   4.434
15910WAT     H247973   9.871   6.519   4.453
15911WAT      O47974   6.185   1.764   3.048
15911WAT     H147975   6.271   1.719   3.024
15911WAT     H247976   6.195   1.863   3.038
15912WAT      O47977   4.215   5.127   1.771
15912WAT     H147978   4.306   5.166   1.774
15912WAT     H247979   4.163   5.157   1.850
15913WAT      O47980   8.130   6.104   1.181
15913WAT     H147981   8.209   6.144   1.226
15913WAT     H247982   8.070   6.177   1.147
15914WAT      O47983   9.560   5.271   1.319
15914WAT     H147984   9.604   5.198   1.371
15914WAT     H247985   9.463   5.276   1.345
15915WAT      O47986   0.475   3.906   2.676
15915WAT     H147987   0.489   3.858   2.590
15915WAT     H247988   0.447   3.842   2.747
15916WAT      O47989   1.784   8.972   7.400
15916WAT     H147990   1.785   9.007   7.307
15916WAT     H247991   1.694   8.932   7.420
15917WAT      O47992   4.140   7.634   6.981
15917WAT     H147993   4.087   7.667   6.903
15917WAT     H247994   4.181   7.545   6.958
15918WAT      O47995   8.435   1.064   8.912
15918WAT     H147996   8.464   0.969   8.917
15918WAT     H247997   8.438   1.096   8.818
15919WAT      O47998   4.686   0.707   5.083
15919WAT     H147999   4.683   0.797   5.040
15919WAT     H248000   4.723   0.715   5.175
15920WAT      O48001   8.389   0.660   5.962
15920WAT     H148002   8.385   0.760   5.966
15920WAT     H248003   8.481   0.632   5.933
15921WAT      O48004   1.043   2.971   8.191
15921WAT     H148005   1.080   2.879   8.174
15921WAT     H248006   1.067   3.031   8.114
15922WAT      O48007   8.872   8.723   5.763
15922WAT     H148008   8.774   8.713   5.780
15922WAT     H248009   8.908   8.796   5.820
15923WAT      O48010   5.698   3.501   6.863
15923WAT     H148011   5.792   3.531   6.847
15923WAT     H248012   5.676   3.426   6.801
15924WAT      O48013   5.989   5.547   6.616
15924WAT     H148014   5.927   5.509   6.685
15924WAT     H248015   6.015   5.640   6.642
15925WAT      O48016   7.760   1.725   5.719
15925WAT     H148017   7.735   1.628   5.712
15925WAT     H248018   7.679   1.778   5.743
15926WAT      O48019   7.783   6.536   6.035
15926WAT     H148020   7.796   6.634   6.054
15926WAT     H248021   7.871   6.492   6.025
15927WAT      O48022   1.983   7.996   2.319
15927WAT     H148023   1.968   8.094   2.326
15927WAT     H248024   2.030   7.963   2.401
15928WAT      O48025   3.000   0.713   8.481
15928WAT     H148026   2.958   0.702   8.571
15928WAT     H248027   3.064   0.637   8.464
15929WAT      O48028   2.156   6.066   4.041
15929WAT     H148029   2.067   6.021   4.044
15929WAT     H248030   2.215   6.017   3.976
15930WAT      O48031   2.278   7.909   4.715
15930WAT     H148032   2.190   7.886   4.673
15930WAT     H248033   2.310   7.833   4.771
15931WAT      O48034   7.989   3.388   6.693
15931WAT     H148035   8.031   3.442   6.620
15931WAT     H248036   7.959   3.449   6.767
15932WAT      O48037   9.543   9.253   4.777
15932WAT     H148038   9.443   9.252   4.782
15932WAT     H248039   9.575   9.166   4.740
15933WAT      O48040   5.517   4.250   0.590
15933WAT     H148041   5.554   4.193   0.516
15933WAT     H248042   5.553   4.343   0.582
15934WAT      O48043   0.626   1.199   9.720
15934WAT     H148044   0.717   1.159   9.724
15934WAT     H248045   0.597   1.224   9.813
15935WAT      O48046   8.962   5.365   9.435
15935WAT     H148047   8.939   5.334   9.527
15935WAT     H248048   9.051   5.412   9.436
15936WAT      O48049   0.966   3.635   6.194
15936WAT     H148050   1.025   3.562   6.161
15936WAT     H248051   0.984   3.652   6.291
15937WAT      O48052   7.650   3.265   4.559
15937WAT     H148053   7.633   3.282   4.462
15937WAT     H248054   7.618   3.343   4.613
15938WAT      O48055   5.822   8.204   8.898
15938WAT     H148056   5.848   8.146   8.975
15938WAT     H248057   5.808   8.297   8.931
15939WAT      O48058   1.192   3.320   6.333
15939WAT     H148059   1.263   3.316   6.403
15939WAT     H248060   1.146   3.231   6.327
15940WAT      O48061   3.666   2.976   6.163
15940WAT     H148062   3.654   2.878   6.151
15940WAT     H248063   3.661   3.022   6.074
15941WAT      O48064   7.526   4.930   5.163
15941WAT     H148065   7.467   5.005   5.136
15941WAT     H248066   7.474   4.845   5.163
15942WAT      O48067   1.935   9.535   0.117
15942WAT     H148068   1.927   9.459   0.053
15942WAT     H248069   1.931   9.500   0.211
15943WAT      O48070   8.575   4.570   3.222
15943WAT     H148071   8.615   4.657   3.191
15943WAT     H248072   8.566   4.508   3.145
15944WAT      O48073   5.366   0.637   7.891
15944WAT     H148074   5.303   0.703   7.933
15944WAT     H248075   5.455   0.681   7.877
15945WAT      O48076   3.453   9.821   6.498
15945WAT     H148077   3.407   9.845   6.583
15945WAT     H248078   3.459   9.902   6.439
15946WAT      O48079   0.807   5.921   1.061
15946WAT     H148080   0.712   5.900   1.082
15946WAT     H248081   0.825   6.017   1.080
15947WAT      O48082   6.209   2.499   2.285
15947WAT     H148083   6.183   2.508   2.381
15947WAT     H248084   6.266   2.417   2.274
15948WAT      O48085   1.456   2.022   8.516
15948WAT     H148086   1.529   2.070   8.468
15948WAT     H248087   1.477   2.017   8.613
15949WAT      O48088   2.521   1.377   7.053
15949WAT     H148089   2.510   1.477   7.057
15949WAT     H248090   2.498   1.345   6.961
15950WAT      O48091   5.578   3.010   2.857
15950WAT     H148092   5.657   2.960   2.821
15950WAT     H248093   5.543   2.964   2.939
15951WAT      O48094   2.062   4.045   9.659
15951WAT     H148095   2.023   4.017   9.572
15951WAT     H248096   2.027   3.987   9.732
15952WAT      O48097   8.842   4.195   6.595
15952WAT     H148098   8.809   4.287   6.575
15952WAT     H248099   8.792   4.129   6.538
15953WAT      O48100   6.792   3.200   4.139
15953WAT     H148101   6.878   3.206   4.089
15953WAT     H248102   6.744   3.288   4.132
15954WAT      O48103   8.362   7.532   6.352
15954WAT     H148104   8.303   7.609   6.327
15954WAT     H248105   8.360   7.521   6.452
15955WAT      O48106   2.302   7.077   4.804
15955WAT     H148107   2.287   7.166   4.762
15955WAT     H248108   2.318   7.009   4.732
15956WAT      O48109   7.158   0.257   0.611
15956WAT     H148110   7.170   0.192   0.686
15956WAT     H248111   7.247   0.295   0.586
15957WAT      O48112   8.131   7.739   6.686
15957WAT     H148113   8.109   7.768   6.593
15957WAT     H248114   8.053   7.691   6.726
15958WAT      O48115   8.908   1.381   1.011
15958WAT     H148116   8.957   1.327   1.079
15958WAT     H248117   8.969   1.404   0.936
15959WAT      O48118   2.875   2.888   9.104
15959WAT     H148119   2.963   2.853   9.138
15959WAT     H248120   2.821   2.921   9.181
15960WAT      O48121   0.591   8.346   7.665
15960WAT     H148122   0.590   8.427   7.723
15960WAT     H248123   0.644   8.364   7.582
15961WAT      O48124   5.274   2.662   0.513
15961WAT     H148125   5.348   2.710   0.560
15961WAT     H248126   5.191   2.718   0.514
15962WAT      O48127   0.170   4.410   9.869
15962WAT     H148128   0.143   4.374   9.958
15962WAT     H248129   0.092   4.454   9.825
15963WAT      O48130   6.333   2.833   8.733
15963WAT     H148131   6.276   2.762   8.691
15963WAT     H248132   6.369   2.893   8.662
15964WAT      O48133   6.586   2.461   3.639
15964WAT     H148134   6.564   2.363   3.644
15964WAT     H248135   6.529   2.511   3.704
15965WAT      O48136   8.805   7.949   7.962
15965WAT     H148137   8.751   7.932   7.879
15965WAT     H248138   8.750   7.926   8.042
15966WAT      O48139   4.260   4.454   8.429
15966WAT     H148140   4.323   4.524   8.465
15966WAT     H248141   4.198   4.496   8.363
15967WAT      O48142   8.417   1.568   3.692
15967WAT     H148143   8.401   1.512   3.611
15967WAT     H248144   8.350   1.544   3.763
15968WAT      O48145   7.799   5.138   6.315
15968WAT     H148146   7.826   5.228   6.350
15968WAT     H248147   7.860   5.113   6.240
15969WAT      O48148   1.662   3.957   1.167
15969WAT     H148149   1.679   4.046   1.125
15969WAT     H248150   1.575   3.961   1.217
15970WAT      O48151   9.553   8.405   0.418
15970WAT     H148152   9.549   8.398   0.517
15970WAT     H248153   9.635   8.359   0.385
15971WAT      O48154   5.320   7.895   0.617
15971WAT     H148155   5.358   7.983   0.646
15971WAT     H248156   5.393   7.838   0.578
15972WAT      O48157   9.177   2.797   0.712
15972WAT     H148158   9.132   2.885   0.695
15972WAT     H248159   9.126   2.745   0.781
15973WAT      O48160   7.397   0.689   5.906
15973WAT     H148161   7.352   0.601   5.893
15973WAT     H248162   7.375   0.750   5.830
15974WAT      O48163   7.743   5.571   4.620
15974WAT     H148164   7.776   5.508   4.550
15974WAT     H248165   7.800   5.653   4.620
15975WAT      O48166   2.328   4.258   7.769
15975WAT     H148167   2.394   4.191   7.736
15975WAT     H248168   2.332   4.264   7.868
15976WAT      O48169   7.382   9.380   6.920
15976WAT     H148170   7.349   9.290   6.890
15976WAT     H248171   7.452   9.368   6.990
15977WAT      O48172   7.247   3.369   7.718
15977WAT     H148173   7.337   3.404   7.742
15977WAT     H248174   7.188   3.369   7.799
15978WAT      O48175   0.112   8.415   8.493
15978WAT     H148176   0.081   8.484   8.427
15978WAT     H248177   0.192   8.449   8.542
15979WAT      O48178   7.338   1.014   6.644
15979WAT     H148179   7.388   1.093   6.678
15979WAT     H248180   7.361   0.999   6.548
15980WAT      O48181   7.486   4.491   3.685
15980WAT     H148182   7.434   4.430   3.625
15980WAT     H248183   7.461   4.586   3.667
15981WAT      O48184   5.803   5.479   6.808
15981WAT     H148185   5.824   5.404   6.871
15981WAT     H248186   5.716   5.461   6.763
15982WAT      O48187   6.990   6.972   5.565
15982WAT     H148188   6.930   6.959   5.486
15982WAT     H248189   6.961   7.052   5.617
15983WAT      O48190   5.799   8.544   1.053
15983WAT     H148191   5.776   8.622   0.994
15983WAT     H248192   5.878   8.496   1.014
15984WAT      O48193   6.391   3.760   5.885
15984WAT     H148194   6.329   3.777   5.961
15984WAT     H248195   6.346   3.704   5.816
15985WAT      O48196   3.173   8.013   8.407
15985WAT     H148197   3.113   8.093   8.406
15985WAT     H248198   3.118   7.930   8.399
15986WAT      O48199   0.784   8.293   8.012
15986WAT     H148200   0.833   8.250   8.088
15986WAT     H248201   0.685   8.290   8.030
15987WAT      O48202   8.018   1.422   3.696
15987WAT     H148203   7.924   1.412   3.728
15987WAT     H248204   8.017   1.440   3.598
15988WAT      O48205   4.335   8.171   6.713
15988WAT     H148206   4.407   8.116   6.754
15988WAT     H248207   4.289   8.224   6.784
15989WAT      O48208   6.581   3.344   7.454
15989WAT     H148209   6.529   3.271   7.498
15989WAT     H248210   6.562   3.431   7.498
15990WAT      O48211   7.252   3.194   5.100
15990WAT     H148212   7.206   3.107   5.083
15990WAT     H248213   7.313   3.215   5.024
15991WAT      O48214   7.644   8.519   3.011
15991WAT     H148215   7.715   8.449   3.019
15991WAT     H248216   7.676   8.605   3.051
15992WAT      O48217   6.833   7.294   9.269
15992WAT     H148218   6.779   7.375   9.248
15992WAT     H248219   6.858   7.295   9.366
15993WAT      O48220   6.425   3.128   7.551
15993WAT     H148221   6.361   3.051   7.549
15993WAT     H248222   6.373   3.213   7.560
15994WAT      O48223   0.262   9.608   2.238
15994WAT     H148224   0.211   9.582   2.156
15994WAT     H248225   0.310   9.695   2.221
15995WAT      O48226   4.777   6.910   4.303
15995WAT     H148227   4.856   6.966   4.330
15995WAT     H248228   4.788   6.880   4.208
15996WAT      O48229   7.782   7.361   7.266
15996WAT     H148230   7.830   7.274   7.255
15996WAT     H248231   7.752   7.371   7.360
15997WAT      O48232   2.324   5.193   8.027
15997WAT     H148233   2.343   5.109   7.977
15997WAT     H248234   2.346   5.180   8.124
15998WAT      O48235   1.162   6.134   4.177
15998WAT     H148236   1.070   6.165   4.151
15998WAT     H248237   1.156   6.077   4.258
15999WAT      O48238   2.536   7.436   9.495
15999WAT     H148239   2.565   7.340   9.504
15999WAT     H248240   2.437   7.441   9.501
16000WAT      O48241   1.429   0.550   8.584
16000WAT     H148242   1.526   0.552   8.558
16000WAT     H248243   1.416   0.605   8.666
16001WAT      O48244   4.810   7.483   3.310
16001WAT     H148245   4.826   7.466   3.213
16001WAT     H248246   4.720   7.526   3.322
16002WAT      O48247   0.461   0.556   4.523
16002WAT     H148248   0.463   0.582   4.426
16002WAT     H248249   0.420   0.466   4.532
16003WAT      O48250   3.747   3.502   2.899
16003WAT     H148251   3.678   3.447   2.853
16003WAT     H248252   3.707   3.587   2.931
16004WAT      O48253   6.581   2.334   0.327
16004WAT     H148254   6.547   2.326   0.234
16004WAT     H248255   6.587   2.431   0.352
16005WAT      O48256   3.584   9.085   1.189
16005WAT     H148257   3.486   9.081   1.171
16005WAT     H248258   3.626   9.154   1.129
16006WAT      O48259   8.164   4.413   3.632
16006WAT     H148260   8.191   4.327   3.675
16006WAT     H248261   8.087   4.396   3.570
16007WAT      O48262   8.577   8.180   7.695
16007WAT     H148263   8.601   8.083   7.701
16007WAT     H248264   8.533   8.209   7.779
16008WAT      O48265   9.549   2.668   0.379
16008WAT     H148266   9.535   2.616   0.463
16008WAT     H248267   9.476   2.645   0.314
16009WAT      O48268   6.089   5.686   8.832
16009WAT     H148269   6.066   5.782   8.816
16009WAT     H248270   6.119   5.675   8.927
16010WAT      O48271   3.556   8.249   3.457
16010WAT     H148272   3.495   8.187   3.506
16010WAT     H248273   3.593   8.203   3.376
16011WAT      O48274   7.800   0.749   1.772
16011WAT     H148275   7.869   0.765   1.843
16011WAT     H248276   7.835   0.782   1.684
16012WAT      O48277   5.074   2.213   7.766
16012WAT     H148278   5.040   2.178   7.853
16012WAT     H248279   5.134   2.145   7.724
16013WAT      O48280   9.435   8.639   7.955
16013WAT     H148281   9.427   8.691   8.040
16013WAT     H248282   9.386   8.552   7.965
16014WAT      O48283   2.883   4.068   8.592
16014WAT     H148284   2.867   4.163   8.567
16014WAT     H248285   2.960   4.032   8.539
16015WAT      O48286   1.141   6.743   6.930
16015WAT     H148287   1.071   6.814   6.921
16015WAT     H248288   1.215   6.776   6.989
16016WAT      O48289   7.948   4.784   4.574
16016WAT     H148290   8.044   4.759   4.562
16016WAT     H248291   7.891   4.703   4.566
16017WAT      O48292   9.228   4.480   8.433
16017WAT     H148293   9.152   4.526   8.478
16017WAT     H248294   9.244   4.391   8.475
16018WAT      O48295   8.835   3.802   9.022
16018WAT     H148296   8.781   3.820   8.939
16018WAT     H248297   8.932   3.813   9.001
16019WAT      O48298   5.812   8.182   0.572
16019WAT     H148299   5.885   8.114   0.579
16019WAT     H248300   5.783   8.208   0.664
16020WAT      O48301   2.844   7.464   0.541
16020WAT     H148302   2.915   7.421   0.598
16020WAT     H248303   2.827   7.557   0.574
16021WAT      O48304   1.659   0.896   0.030
16021WAT     H148305   1.584   0.959   0.049
16021WAT     H248306   1.629   0.802   0.045
16022WAT      O48307   1.036   4.486   0.228
16022WAT     H148308   0.943   4.521   0.234
16022WAT     H248309   1.052   4.422   0.303
16023WAT      O48310   2.203   3.528   3.096
16023WAT     H148311   2.253   3.573   3.021
16023WAT     H248312   2.246   3.440   3.116
16024WAT      O48313   3.075   6.545   0.572
16024WAT     H148314   3.024   6.629   0.554
16024WAT     H248315   3.173   6.565   0.577
16025WAT      O48316   1.966   2.493   5.147
16025WAT     H148317   2.005   2.434   5.076
16025WAT     H248318   1.883   2.451   5.183
16026WAT      O48319   2.345   1.552   7.632
16026WAT     H148320   2.280   1.481   7.607
16026WAT     H248321   2.297   1.630   7.673
16027WAT      O48322   1.977   7.933   0.497
16027WAT     H148323   2.057   7.874   0.509
16027WAT     H248324   2.007   8.024   0.469
16028WAT      O48325   2.150   8.386   1.802
16028WAT     H148326   2.052   8.403   1.803
16028WAT     H248327   2.194   8.446   1.735
16029WAT      O48328   9.135   1.796   2.245
16029WAT     H148329   9.058   1.786   2.183
16029WAT     H248330   9.101   1.808   2.339
16030WAT      O48331   8.358   6.868   5.224
16030WAT     H148332   8.409   6.821   5.295
16030WAT     H248333   8.419   6.892   5.149
16031WAT      O48334   7.084   3.080   3.022
16031WAT     H148335   7.054   3.147   3.089
16031WAT     H248336   7.025   3.085   2.941
16032WAT      O48337   0.674   8.690   1.246
16032WAT     H148338   0.578   8.717   1.258
16032WAT     H248339   0.679   8.591   1.237
16033WAT      O48340   3.566   4.531   3.952
16033WAT     H148341   3.579   4.579   4.039
16033WAT     H248342   3.648   4.477   3.931
16034WAT      O48343   1.873   1.398   0.692
16034WAT     H148344   1.779   1.427   0.674
16034WAT     H248345   1.934   1.438   0.624
16035WAT      O48346   5.584   0.765   8.535
16035WAT     H148347   5.650   0.745   8.462
16035WAT     H248348   5.546   0.680   8.570
16036WAT      O48349   6.454   2.229   9.264
16036WAT     H148350   6.439   2.189   9.173
16036WAT     H248351   6.552   2.241   9.279
16037WAT      O48352   8.123   3.299   7.720
16037WAT     H148353   8.027   3.306   7.693
16037WAT     H248354   8.131   3.240   7.801
16038WAT      O48355   8.554   5.075   2.642
16038WAT     H148356   8.599   5.137   2.706
16038WAT     H248357   8.621   5.012   2.604
16039WAT      O48358   9.863   6.251   8.696
16039WAT     H148359   9.922   6.213   8.768
16039WAT     H248360   9.798   6.314   8.736
16040WAT      O48361   1.645   4.185   7.665
16040WAT     H148362   1.628   4.278   7.698
16040WAT     H248363   1.634   4.120   7.741
16041WAT      O48364   6.444   8.305   9.813
16041WAT     H148365   6.448   8.379   9.747
16041WAT     H248366   6.495   8.226   9.779
16042WAT      O48367   0.140   0.689   4.498
16042WAT     H148368   0.149   0.702   4.597
16042WAT     H248369   0.046   0.665   4.476
16043WAT      O48370   7.008   0.348   1.207
16043WAT     H148371   6.952   0.265   1.208
16043WAT     H248372   6.989   0.402   1.289
16044WAT      O48373   6.537   4.706   2.321
16044WAT     H148374   6.592   4.724   2.403
16044WAT     H248375   6.571   4.625   2.275
16045WAT      O48376   3.135   8.350   5.998
16045WAT     H148377   3.205   8.340   6.069
16045WAT     H248378   3.049   8.310   6.031
16046WAT      O48379   2.385   8.874   0.684
16046WAT     H148380   2.426   8.814   0.614
16046WAT     H248381   2.293   8.840   0.706
16047WAT      O48382   7.620   8.879   0.782
16047WAT     H148383   7.687   8.950   0.761
16047WAT     H248384   7.605   8.874   0.881
16048WAT      O48385   9.352   6.181   0.054
16048WAT     H148386   9.340   6.083   0.039
16048WAT     H248387   9.272   6.218   0.101
16049WAT      O48388   5.848   8.342   3.814
16049WAT     H148389   5.898   8.355   3.900
16049WAT     H248390   5.857   8.246   3.785
16050WAT      O48391   1.426   0.221   2.654
16050WAT     H148392   1.502   0.189   2.598
16050WAT     H248393   1.348   0.242   2.595
16051WAT      O48394   8.955   7.475   0.786
16051WAT     H148395   8.914   7.463   0.695
16051WAT     H248396   8.893   7.528   0.843
16052WAT      O48397   8.615   4.817   9.132
16052WAT     H148398   8.628   4.890   9.200
16052WAT     H248399   8.612   4.729   9.178
16053WAT      O48400   3.177   9.471   6.630
16053WAT     H148401   3.121   9.541   6.675
16053WAT     H248402   3.269   9.507   6.614
16054WAT      O48403   3.249   1.967   5.390
16054WAT     H148404   3.215   2.012   5.308
16054WAT     H248405   3.334   2.012   5.420
16055WAT      O48406   3.468   4.679   3.731
16055WAT     H148407   3.490   4.614   3.805
16055WAT     H248408   3.409   4.634   3.664
16056WAT      O48409   3.696   9.049   9.789
16056WAT     H148410   3.607   9.044   9.744
16056WAT     H248411   3.734   8.957   9.800
16057WAT      O48412   6.726   4.173   1.224
16057WAT     H148413   6.684   4.128   1.303
16057WAT     H248414   6.731   4.271   1.240
16058WAT      O48415   2.735   4.691   4.847
16058WAT     H148416   2.685   4.617   4.803
16058WAT     H248417   2.708   4.779   4.806
16059WAT      O48418   9.387   7.255   1.478
16059WAT     H148419   9.480   7.290   1.490
16059WAT     H248420   9.321   7.330   1.487
16060WAT      O48421   7.132   0.131   1.447
16060WAT     H148422   7.076   0.049   1.442
16060WAT     H248423   7.072   0.211   1.454
16061WAT      O48424   3.523   4.315   3.518
16061WAT     H148425   3.446   4.265   3.479
16061WAT     H248426   3.525   4.303   3.617
16062WAT      O48427   3.911   7.228   1.247
16062WAT     H148428   3.936   7.324   1.261
16062WAT     H248429   3.993   7.171   1.249
16063WAT      O48430   5.709   3.573   5.187
16063WAT     H148431   5.780   3.644   5.183
16063WAT     H248432   5.624   3.609   5.149
16064WAT      O48433   7.991   8.676   3.202
16064WAT     H148434   8.023   8.768   3.177
16064WAT     H248435   7.892   8.672   3.191
16065WAT      O48436   5.152   1.515   7.500
16065WAT     H148437   5.172   1.575   7.421
16065WAT     H248438   5.090   1.562   7.562
16066WAT      O48439   5.324   7.738   1.989
16066WAT     H148440   5.356   7.662   2.046
16066WAT     H248441   5.367   7.823   2.019
16067WAT      O48442   9.578   4.263   2.948
16067WAT     H148443   9.666   4.239   2.988
16067WAT     H248444   9.504   4.222   3.001
16068WAT      O48445   1.609   8.335   9.715
16068WAT     H148446   1.614   8.386   9.801
16068WAT     H248447   1.674   8.259   9.717
16069WAT      O48448   5.397   8.313   9.732
16069WAT     H148449   5.459   8.351   9.801
16069WAT     H248450   5.399   8.214   9.737
16070WAT      O48451   2.764   7.629   5.872
16070WAT     H148452   2.781   7.726   5.890
16070WAT     H248453   2.840   7.591   5.819
16071WAT      O48454   0.237   3.517   1.827
16071WAT     H148455   0.265   3.433   1.781
16071WAT     H248456   0.188   3.494   1.911
16072WAT      O48457   1.641   3.223   5.632
16072WAT     H148458   1.679   3.234   5.724
16072WAT     H248459   1.605   3.130   5.623
16073WAT      O48460   6.981   0.630   7.184
16073WAT     H148461   6.992   0.534   7.159
16073WAT     H248462   6.911   0.672   7.126
16074WAT      O48463   5.812   7.519   9.644
16074WAT     H148464   5.844   7.585   9.713
16074WAT     H248465   5.743   7.563   9.586
16075WAT      O48466   6.298   8.903   4.674
16075WAT     H148467   6.246   8.864   4.751
16075WAT     H248468   6.382   8.945   4.709
16076WAT      O48469   2.213   4.157   0.926
16076WAT     H148470   2.285   4.088   0.926
16076WAT     H248471   2.254   4.248   0.920
16077WAT      O48472   5.587   4.936   4.590
16077WAT     H148473   5.609   4.927   4.493
16077WAT     H248474   5.585   5.033   4.615
16078WAT      O48475   5.287   9.698   8.953
16078WAT     H148476   5.206   9.661   8.909
16078WAT     H248477   5.315   9.782   8.906
16079WAT      O48478   5.669   8.782   3.735
16079WAT     H148479   5.671   8.868   3.684
16079WAT     H248480   5.749   8.728   3.711
16080WAT      O48481   4.423   6.539   1.311
16080WAT     H148482   4.418   6.606   1.237
16080WAT     H248483   4.345   6.550   1.372
16081WAT      O48484   8.045   4.274   0.228
16081WAT     H148485   7.970   4.223   0.186
16081WAT     H248486   8.053   4.364   0.184
16082WAT      O48487   7.488   0.619   7.241
16082WAT     H148488   7.557   0.688   7.261
16082WAT     H248489   7.414   0.660   7.187
16083WAT      O48490   5.075   8.318   2.038
16083WAT     H148491   4.981   8.287   2.050
16083WAT     H248492   5.138   8.254   2.081
16084WAT      O48493   1.170   6.512   7.217
16084WAT     H148494   1.254   6.566   7.212
16084WAT     H248495   1.138   6.491   7.125
16085WAT      O48496   2.499   9.514   6.843
16085WAT     H148497   2.416   9.462   6.827
16085WAT     H248498   2.480   9.588   6.908
16086WAT      O48499   5.731   9.416   0.808
16086WAT     H148500   5.679   9.339   0.770
16086WAT     H248501   5.757   9.395   0.902
16087WAT      O48502   6.259   0.436   2.130
16087WAT     H148503   6.229   0.495   2.205
16087WAT     H248504   6.212   0.348   2.136
16088WAT      O48505   8.217   3.362   4.168
16088WAT     H148506   8.314   3.362   4.145
16088WAT     H248507   8.168   3.426   4.109
16089WAT      O48508   5.951   2.447   2.202
16089WAT     H148509   6.047   2.470   2.182
16089WAT     H248510   5.942   2.349   2.216
16090WAT      O48511   7.471   1.101   5.689
16090WAT     H148512   7.555   1.108   5.742
16090WAT     H248513   7.405   1.169   5.720
16091WAT      O48514   5.795   5.542   0.229
16091WAT     H148515   5.864   5.536   0.302
16091WAT     H248516   5.731   5.615   0.250
16092WAT      O48517   9.600   5.907   9.839
16092WAT     H148518   9.502   5.899   9.857
16092WAT     H248519   9.651   5.883   9.922
16093WAT      O48520   1.015   5.464   9.165
16093WAT     H148521   1.090   5.398   9.154
16093WAT     H248522   1.047   5.540   9.221
16094WAT      O48523   3.144   7.013   0.264
16094WAT     H148524   3.183   6.936   0.315
16094WAT     H248525   3.210   7.088   0.262
16095WAT      O48526   0.693   3.933   3.705
16095WAT     H148527   0.741   4.021   3.694
16095WAT     H248528   0.647   3.931   3.794
16096WAT      O48529   2.470   1.980   3.339
16096WAT     H148530   2.529   1.910   3.380
16096WAT     H248531   2.375   1.950   3.344
16097WAT      O48532   0.366   2.221   4.929
16097WAT     H148533   0.307   2.279   4.872
16097WAT     H248534   0.384   2.135   4.882
16098WAT      O48535   7.011   6.786   0.847
16098WAT     H148536   6.958   6.702   0.852
16098WAT     H248537   7.099   6.774   0.894
16099WAT      O48538   0.337   3.257   8.891
16099WAT     H148539   0.324   3.202   8.973
16099WAT     H248540   0.254   3.310   8.874
16100WAT      O48541   0.829   6.546   2.530
16100WAT     H148542   0.820   6.646   2.537
16100WAT     H248543   0.816   6.518   2.435
16101WAT      O48544   3.737   1.668   2.926
16101WAT     H148545   3.800   1.621   2.865
16101WAT     H248546   3.743   1.767   2.912
16102WAT      O48547   5.854   2.461   2.449
16102WAT     H148548   5.883   2.542   2.501
16102WAT     H248549   5.881   2.471   2.354
16103WAT      O48550   4.471   5.826   3.587
16103WAT     H148551   4.456   5.803   3.491
16103WAT     H248552   4.455   5.924   3.601
16104WAT      O48553   6.197   6.650   6.183
16104WAT     H148554   6.219   6.584   6.255
16104WAT     H248555   6.115   6.620   6.135
16105WAT      O48556   8.400   8.246   8.998
16105WAT     H148557   8.362   8.327   9.043
16105WAT     H248558   8.331   8.205   8.938
16106WAT      O48559   0.114   7.407   2.725
16106WAT     H148560   0.198   7.393   2.777
16106WAT     H248561   0.062   7.482   2.766
16107WAT      O48562   3.051   4.334   4.953
16107WAT     H148563   3.052   4.296   5.046
16107WAT     H248564   3.043   4.433   4.958
16108WAT      O48565   5.500   5.879   7.868
16108WAT     H148566   5.575   5.853   7.807
16108WAT     H248567   5.436   5.939   7.819
16109WAT      O48568   0.624   3.563   1.410
16109WAT     H148569   0.674   3.477   1.396
16109WAT     H248570   0.604   3.605   1.321
16110WAT      O48571   2.790   6.881   9.544
16110WAT     H148572   2.828   6.790   9.532
16110WAT     H248573   2.818   6.940   9.469
16111WAT      O48574   3.529   3.474   5.080
16111WAT     H148575   3.455   3.539   5.070
16111WAT     H248576   3.553   3.464   5.176
16112WAT      O48577   3.808   0.393   6.228
16112WAT     H148578   3.788   0.412   6.324
16112WAT     H248579   3.862   0.309   6.221
16113WAT      O48580   4.195   2.888   0.614
16113WAT     H148581   4.230   2.794   0.613
16113WAT     H248582   4.208   2.927   0.705
16114WAT      O48583   3.589   5.072   1.976
16114WAT     H148584   3.686   5.051   1.967
16114WAT     H248585   3.556   5.114   1.892
16115WAT      O48586   3.142   2.351   1.875
16115WAT     H148587   3.062   2.298   1.902
16115WAT     H248588   3.224   2.294   1.882
16116WAT      O48589   9.228   3.882   8.180
16116WAT     H148590   9.144   3.926   8.148
16116WAT     H248591   9.205   3.797   8.228
16117WAT      O48592   5.594   2.198   2.207
16117WAT     H148593   5.610   2.241   2.119
16117WAT     H248594   5.497   2.205   2.231
16118WAT      O48595   6.597   9.588   9.620
16118WAT     H148596   6.550   9.554   9.539
16118WAT     H248597   6.682   9.538   9.633
16119WAT      O48598   8.456   8.262   0.081
16119WAT     H148599   8.409   8.346   0.054
16119WAT     H248600   8.388   8.191   0.102
16120WAT      O48601   5.440   7.251   7.694
16120WAT     H148602   5.493   7.333   7.671
16120WAT     H248603   5.357   7.278   7.743
16121WAT      O48604   5.981   7.786   4.005
16121WAT     H148605   5.993   7.884   4.022
16121WAT     H248606   6.050   7.735   4.056
16122WAT      O48607   9.838   5.614   3.098
16122WAT     H148608   9.799   5.656   3.016
16122WAT     H248609   9.779   5.538   3.128
16123WAT      O48610   0.305   6.139   2.265
16123WAT     H148611   0.270   6.057   2.311
16123WAT     H248612   0.229   6.189   2.223
16124WAT      O48613   8.234   1.877   5.583
16124WAT     H148614   8.306   1.872   5.652
16124WAT     H248615   8.265   1.932   5.505
16125WAT      O48616   9.858   1.963   2.833
16125WAT     H148617   9.794   1.977   2.909
16125WAT     H248618   9.898   1.871   2.840
16126WAT      O48619   8.909   5.975   6.721
16126WAT     H148620   8.943   6.025   6.801
16126WAT     H248621   8.845   5.905   6.750
16127WAT      O48622   2.994   9.275   4.435
16127WAT     H148623   2.999   9.289   4.534
16127WAT     H248624   3.061   9.334   4.390
16128WAT      O48625   8.829   4.116   2.783
16128WAT     H148626   8.848   4.144   2.688
16128WAT     H248627   8.848   4.192   2.844
16129WAT      O48628   5.606   3.129   5.076
16129WAT     H148629   5.592   3.206   5.138
16129WAT     H248630   5.552   3.141   4.993
16130WAT      O48631   1.893   6.471   9.861
16130WAT     H148632   1.951   6.549   9.840
16130WAT     H248633   1.932   6.421   9.938
16131WAT      O48634   1.411   2.757   2.167
16131WAT     H148635   1.378   2.848   2.189
16131WAT     H248636   1.481   2.730   2.233
16132WAT      O48637   7.306   9.131   8.539
16132WAT     H148638   7.353   9.159   8.623
16132WAT     H248639   7.299   9.031   8.536
16133WAT      O48640   5.645   9.321   2.467
16133WAT     H148641   5.560   9.331   2.415
16133WAT     H248642   5.657   9.401   2.526
16134WAT      O48643   0.090   6.651   1.365
16134WAT     H148644   0.165   6.634   1.429
16134WAT     H248645   0.108   6.604   1.279
16135WAT      O48646   4.777   8.400   6.073
16135WAT     H148647   4.742   8.313   6.106
16135WAT     H248648   4.874   8.407   6.092
16136WAT      O48649   0.825   1.344   0.662
16136WAT     H148650   0.770   1.372   0.740
16136WAT     H248651   0.781   1.375   0.577
16137WAT      O48652   2.017   1.746   0.431
16137WAT     H148653   2.096   1.783   0.383
16137WAT     H248654   2.022   1.647   0.433
16138WAT      O48655   5.943   9.269   0.221
16138WAT     H148656   6.022   9.290   0.164
16138WAT     H248657   5.960   9.187   0.274
16139WAT      O48658   6.334   5.178   7.225
16139WAT     H148659   6.299   5.260   7.271
16139WAT     H248660   6.365   5.202   7.133
16140WAT      O48661   7.564   7.301   7.133
16140WAT     H148662   7.647   7.333   7.179
16140WAT     H248663   7.569   7.202   7.121
16141WAT      O48664   4.647   8.673   2.384
16141WAT     H148665   4.558   8.664   2.428
16141WAT     H248666   4.635   8.710   2.292
16142WAT      O48667   8.497   7.669   6.951
16142WAT     H148668   8.562   7.625   7.013
16142WAT     H248669   8.524   7.649   6.856
16143WAT      O48670   1.916   5.407   1.225
16143WAT     H148671   1.874   5.319   1.206
16143WAT     H248672   1.961   5.403   1.314
16144WAT      O48673   4.737   6.009   2.804
16144WAT     H148674   4.717   6.036   2.710
16144WAT     H248675   4.652   6.003   2.856
16145WAT      O48676   1.063   1.195   7.455
16145WAT     H148677   0.978   1.237   7.485
16145WAT     H248678   1.127   1.189   7.532
16146WAT      O48679   1.143   8.365   3.204
16146WAT     H148680   1.195   8.451   3.201
16146WAT     H248681   1.188   8.301   3.266
16147WAT      O48682   6.307   2.469   3.023
16147WAT     H148683   6.403   2.483   3.045
16147WAT     H248684   6.252   2.480   3.106
16148WAT      O48685   6.279   9.084   3.271
16148WAT     H148686   6.351   9.132   3.222
16148WAT     H248687   6.319   9.013   3.330
16149WAT      O48688   5.189   0.189   7.408
16149WAT     H148689   5.215   0.164   7.501
16149WAT     H248690   5.226   0.123   7.343
16150WAT      O48691   2.622   1.038   6.992
16150WAT     H148692   2.586   0.946   7.000
16150WAT     H248693   2.555   1.097   6.947
16151WAT      O48694   8.856   6.624   2.211
16151WAT     H148695   8.854   6.687   2.134
16151WAT     H248696   8.947   6.626   2.253
16152WAT      O48697   7.786   4.159   2.812
16152WAT     H148698   7.880   4.127   2.825
16152WAT     H248699   7.751   4.123   2.726
16153WAT      O48700   1.225   6.436   1.256
16153WAT     H148701   1.317   6.449   1.293
16153WAT     H248702   1.204   6.510   1.192
16154WAT      O48703   0.721   7.276   7.418
16154WAT     H148704   0.696   7.346   7.352
16154WAT     H248705   0.661   7.197   7.406
16155WAT      O48706   0.229   4.096   5.676
16155WAT     H148707   0.239   4.192   5.652
16155WAT     H248708   0.146   4.059   5.633
16156WAT      O48709   5.041   1.040   6.066
16156WAT     H148710   5.136   1.069   6.055
16156WAT     H248711   5.035   0.975   6.143
16157WAT      O48712   7.202   1.794   6.123
16157WAT     H148713   7.244   1.772   6.211
16157WAT     H248714   7.122   1.852   6.139
16158WAT      O48715   0.837   1.796   6.926
16158WAT     H148716   0.924   1.750   6.939
16158WAT     H248717   0.775   1.773   7.001
16159WAT      O48718   7.530   1.693   6.271
16159WAT     H148719   7.550   1.790   6.283
16159WAT     H248720   7.443   1.671   6.314
16160WAT      O48721   5.997   4.255   4.487
16160WAT     H148722   6.029   4.350   4.477
16160WAT     H248723   6.038   4.199   4.415
16161WAT      O48724   5.927   6.765   7.565
16161WAT     H148725   5.952   6.798   7.474
16161WAT     H248726   6.004   6.778   7.627
16162WAT      O48727   4.350   5.660   4.294
16162WAT     H148728   4.347   5.604   4.376
16162WAT     H248729   4.288   5.623   4.225
16163WAT      O48730   0.262   9.173   7.954
16163WAT     H148731   0.337   9.127   8.002
16163WAT     H248732   0.298   9.215   7.870
16164WAT      O48733   2.622   5.800   2.350
16164WAT     H148734   2.634   5.701   2.346
16164WAT     H248735   2.595   5.834   2.259
16165WAT      O48736   6.331   0.336   0.460
16165WAT     H148737   6.395   0.397   0.413
16165WAT     H248738   6.378   0.250   0.483
16166WAT      O48739   8.779   8.313   1.445
16166WAT     H148740   8.870   8.340   1.412
16166WAT     H248741   8.766   8.346   1.538
16167WAT      O48742   3.431   1.504   8.373
16167WAT     H148743   3.498   1.562   8.327
16167WAT     H248744   3.375   1.560   8.434
16168WAT      O48745   9.195   2.707   5.799
16168WAT     H148746   9.277   2.749   5.838
16168WAT     H248747   9.180   2.744   5.707
16169WAT      O48748   2.059   5.852   6.730
16169WAT     H148749   2.048   5.862   6.631
16169WAT     H248750   1.970   5.839   6.772
16170WAT      O48751   4.259   2.345   6.412
16170WAT     H148752   4.297   2.400   6.338
16170WAT     H248753   4.232   2.405   6.488
16171WAT      O48754   7.557   0.725   0.733
16171WAT     H148755   7.464   0.748   0.759
16171WAT     H248756   7.619   0.746   0.809
16172WAT      O48757   0.694   0.231   9.447
16172WAT     H148758   0.655   0.276   9.527
16172WAT     H248759   0.752   0.155   9.475
16173WAT      O48760   0.688   2.329   5.061
16173WAT     H148761   0.615   2.265   5.085
16173WAT     H248762   0.767   2.314   5.120
16174WAT      O48763   3.796   6.805   4.546
16174WAT     H148764   3.862   6.745   4.589
16174WAT     H248765   3.842   6.885   4.508
16175WAT      O48766   3.836   5.441   3.663
16175WAT     H148767   3.921   5.396   3.690
16175WAT     H248768   3.792   5.482   3.743
16176WAT      O48769   7.803   4.266   4.046
16176WAT     H148770   7.837   4.345   4.098
16176WAT     H248771   7.740   4.297   3.975
16177WAT      O48772   1.046   2.946   6.851
16177WAT     H148773   1.056   2.852   6.882
16177WAT     H248774   0.970   2.952   6.786
16178WAT      O48775   6.420   5.381   0.749
16178WAT     H148776   6.507   5.362   0.703
16178WAT     H248777   6.367   5.445   0.693
16179WAT      O48778   0.968   7.490   8.722
16179WAT     H148779   0.946   7.482   8.820
16179WAT     H248780   0.886   7.473   8.668
16180WAT      O48781   3.661   6.537   5.031
16180WAT     H148782   3.700   6.446   5.026
16180WAT     H248783   3.600   6.552   4.954
16181WAT      O48784   7.776   0.682   3.809
16181WAT     H148785   7.694   0.695   3.754
16181WAT     H248786   7.823   0.598   3.781
16182WAT      O48787   6.665   5.168   2.761
16182WAT     H148788   6.643   5.227   2.839
16182WAT     H248789   6.754   5.193   2.724
16183WAT      O48790   5.869   8.629   2.999
16183WAT     H148791   5.816   8.707   3.031
16183WAT     H248792   5.825   8.588   2.919
16184WAT      O48793   5.409   2.997   5.665
16184WAT     H148794   5.394   3.046   5.579
16184WAT     H248795   5.371   2.905   5.657
16185WAT      O48796   6.054   4.424   6.858
16185WAT     H148797   6.037   4.510   6.907
16185WAT     H248798   5.989   4.355   6.888
16186WAT      O48799   3.971   4.546   7.197
16186WAT     H148800   3.872   4.560   7.199
16186WAT     H248801   3.997   4.504   7.110
16187WAT      O48802   1.275   3.999   8.766
16187WAT     H148803   1.239   4.068   8.830
16187WAT     H248804   1.355   3.956   8.806
16188WAT      O48805   8.427   3.461   5.941
16188WAT     H148806   8.521   3.477   5.969
16188WAT     H248807   8.413   3.498   5.849
16189WAT      O48808   4.741   9.202   6.772
16189WAT     H148809   4.829   9.173   6.809
16189WAT     H248810   4.679   9.223   6.847
16190WAT      O48811   6.573   0.218   4.981
16190WAT     H148812   6.487   0.207   4.932
16190WAT     H248813   6.565   0.178   5.072
16191WAT      O48814   6.179   8.034   7.179
16191WAT     H148815   6.213   8.120   7.218
16191WAT     H248816   6.107   7.997   7.237
16192WAT      O48817   3.759   8.538   5.221
16192WAT     H148818   3.696   8.579   5.154
16192WAT     H248819   3.850   8.532   5.182
16193WAT      O48820   8.700   6.781   1.209
16193WAT     H148821   8.634   6.756   1.138
16193WAT     H248822   8.665   6.753   1.299
16194WAT      O48823   1.426   0.531   3.453
16194WAT     H148824   1.326   0.534   3.445
16194WAT     H248825   1.452   0.549   3.547
16195WAT      O48826   5.592   3.466   5.667
16195WAT     H148827   5.613   3.388   5.608
16195WAT     H248828   5.677   3.504   5.703
16196WAT      O48829   4.765   8.220   0.845
16196WAT     H148830   4.824   8.227   0.764
16196WAT     H248831   4.708   8.302   0.851
16197WAT      O48832   7.368   5.810   0.852
16197WAT     H148833   7.290   5.836   0.908
16197WAT     H248834   7.438   5.766   0.909
16198WAT      O48835   8.172   9.576   8.859
16198WAT     H148836   8.168   9.570   8.759
16198WAT     H248837   8.244   9.640   8.885
16199WAT      O48838   7.640   5.090   3.895
16199WAT     H148839   7.626   5.102   3.797
16199WAT     H248840   7.668   4.996   3.914
16200WAT      O48841   9.628   9.732   3.395
16200WAT     H148842   9.695   9.663   3.422
16200WAT     H248843   9.547   9.687   3.357
16201WAT      O48844   6.971   0.434   5.502
16201WAT     H148845   6.975   0.401   5.596
16201WAT     H248846   6.962   0.533   5.501
16202WAT      O48847   3.114   4.079   3.717
16202WAT     H148848   3.136   3.982   3.730
16202WAT     H248849   3.042   4.088   3.648
16203WAT      O48850   0.396   8.429   2.202
16203WAT     H148851   0.475   8.404   2.147
16203WAT     H248852   0.409   8.397   2.296
16204WAT      O48853   7.118   5.019   9.353
16204WAT     H148854   7.053   4.975   9.290
16204WAT     H248855   7.078   5.023   9.444
16205WAT      O48856   2.882   1.184   9.220
16205WAT     H148857   2.917   1.250   9.153
16205WAT     H248858   2.815   1.125   9.176
16206WAT      O48859   2.779   5.522   7.406
16206WAT     H148860   2.750   5.536   7.312
16206WAT     H248861   2.879   5.511   7.409
16207WAT      O48862   3.232   5.404   3.234
16207WAT     H148863   3.268   5.439   3.320
16207WAT     H248864   3.145   5.449   3.212
16208WAT      O48865   7.431   0.165   6.045
16208WAT     H148866   7.451   0.177   5.948
16208WAT     H248867   7.369   0.087   6.056
16209WAT      O48868   3.385   5.047   8.388
16209WAT     H148869   3.369   4.984   8.312
16209WAT     H248870   3.324   5.126   8.378
16210WAT      O48871   4.330   7.785   1.763
16210WAT     H148872   4.231   7.772   1.770
16210WAT     H248873   4.351   7.831   1.677
16211WAT      O48874   5.542   3.101   9.244
16211WAT     H148875   5.527   3.118   9.147
16211WAT     H248876   5.477   3.032   9.276
16212WAT      O48877   8.687   0.458   7.440
16212WAT     H148878   8.619   0.531   7.428
16212WAT     H248879   8.773   0.486   7.397
16213WAT      O48880   9.096   5.499   1.382
16213WAT     H148881   9.118   5.523   1.288
16213WAT     H248882   9.024   5.428   1.382
16214WAT      O48883   5.967   4.381   5.151
16214WAT     H148884   6.026   4.319   5.099
16214WAT     H248885   6.004   4.392   5.244
16215WAT      O48886   0.627   5.384   2.628
16215WAT     H148887   0.527   5.377   2.632
16215WAT     H248888   0.666   5.343   2.710
16216WAT      O48889   8.154   2.234   7.173
16216WAT     H148890   8.238   2.240   7.119
16216WAT     H248891   8.096   2.161   7.136
16217WAT      O48892   5.472   4.778   7.645
16217WAT     H148893   5.572   4.789   7.641
16217WAT     H248894   5.451   4.686   7.680
16218WAT      O48895   2.944   9.751   6.117
16218WAT     H148896   2.984   9.715   6.032
16218WAT     H248897   2.861   9.700   6.138
16219WAT      O48898   4.950   0.833   6.992
16219WAT     H148899   4.874   0.782   7.033
16219WAT     H248900   5.001   0.773   6.932
16220WAT      O48901   9.528   9.044   3.499
16220WAT     H148902   9.528   9.078   3.405
16220WAT     H248903   9.616   9.064   3.542
16221WAT      O48904   6.553   5.168   5.606
16221WAT     H148905   6.540   5.081   5.654
16221WAT     H248906   6.471   5.190   5.554
16222WAT      O48907   6.911   0.158   4.211
16222WAT     H148908   6.853   0.149   4.130
16222WAT     H248909   6.989   0.217   4.189
16223WAT      O48910   8.176   7.425   4.866
16223WAT     H148911   8.267   7.437   4.906
16223WAT     H248912   8.178   7.454   4.770
16224WAT      O48913   4.209   4.131   0.991
16224WAT     H148914   4.109   4.132   0.989
16224WAT     H248915   4.244   4.186   0.915
16225WAT      O48916   0.951   2.019   3.098
16225WAT     H148917   0.990   2.066   3.177
16225WAT     H248918   0.857   1.990   3.119
16226WAT      O48919   7.781   5.716   5.346
16226WAT     H148920   7.691   5.675   5.330
16226WAT     H248921   7.815   5.688   5.436
16227WAT      O48922   4.231   4.572   7.858
16227WAT     H148923   4.226   4.498   7.925
16227WAT     H248924   4.322   4.574   7.817
16228WAT      O48925   1.736   8.592   3.268
16228WAT     H148926   1.704   8.589   3.362
16228WAT     H248927   1.831   8.624   3.265
16229WAT      O48928   2.472   2.343   9.859
16229WAT     H148929   2.572   2.339   9.858
16229WAT     H248930   2.435   2.254   9.834
16230WAT      O48931   7.380   7.992   1.134
16230WAT     H148932   7.479   7.984   1.140
16230WAT     H248933   7.342   7.911   1.090
16231WAT      O48934   3.853   8.764   9.749
16231WAT     H148935   3.759   8.749   9.719
16231WAT     H248936   3.911   8.689   9.718
16232WAT      O48937   4.705   4.346   2.575
16232WAT     H148938   4.773   4.355   2.648
16232WAT     H248939   4.696   4.250   2.549
16233WAT      O48940   8.542   4.046   4.515
16233WAT     H148941   8.480   3.998   4.577
16233WAT     H248942   8.631   4.058   4.559
16234WAT      O48943   9.208   2.386   4.434
16234WAT     H148944   9.131   2.370   4.372
16234WAT     H248945   9.192   2.469   4.486
16235WAT      O48946   6.961   7.781   1.230
16235WAT     H148947   7.032   7.847   1.256
16235WAT     H248948   6.998   7.719   1.161
16236WAT      O48949   9.501   0.664   5.714
16236WAT     H148950   9.472   0.707   5.629
16236WAT     H248951   9.472   0.568   5.714
16237WAT      O48952   2.013   9.057   8.090
16237WAT     H148953   1.941   9.064   8.159
16237WAT     H248954   2.101   9.043   8.135
16238WAT      O48955   7.186   5.707   9.749
16238WAT     H148956   7.230   5.776   9.692
16238WAT     H248957   7.255   5.665   9.809
16239WAT      O48958   0.774   8.557   0.967
16239WAT     H148959   0.768   8.625   1.039
16239WAT     H248960   0.785   8.466   1.008
16240WAT      O48961   5.785   5.957   2.485
16240WAT     H148962   5.759   6.037   2.432
16240WAT     H248963   5.764   5.972   2.582
16241WAT      O48964   5.097   9.016   9.582
16241WAT     H148965   5.052   9.063   9.658
16241WAT     H248966   5.099   8.918   9.600
16242WAT      O48967   3.730   6.082   5.148
16242WAT     H148968   3.814   6.125   5.116
16242WAT     H248969   3.654   6.109   5.089
16243WAT      O48970   4.858   5.010   0.753
16243WAT     H148971   4.842   5.063   0.836
16243WAT     H248972   4.945   4.960   0.762
16244WAT      O48973   7.534   4.452   7.826
16244WAT     H148974   7.580   4.487   7.745
16244WAT     H248975   7.485   4.367   7.803
16245WAT      O48976   6.835   6.254   5.581
16245WAT     H148977   6.895   6.195   5.634
16245WAT     H248978   6.740   6.230   5.600
16246WAT      O48979   7.963   7.308   3.913
16246WAT     H148980   7.912   7.285   3.829
16246WAT     H248981   7.944   7.402   3.938
16247WAT      O48982   6.072   5.826   1.121
16247WAT     H148983   6.007   5.888   1.076
16247WAT     H248984   6.062   5.834   1.220
16248WAT      O48985   5.151   8.632   6.267
16248WAT     H148986   5.117   8.543   6.235
16248WAT     H248987   5.126   8.703   6.201
16249WAT      O48988   8.600   7.175   8.335
16249WAT     H148989   8.680   7.218   8.377
16249WAT     H248990   8.627   7.088   8.293
16250WAT      O48991   0.060   9.083   8.592
16250WAT     H148992   0.028   9.167   8.546
16250WAT     H248993   0.077   9.013   8.523
16251WAT      O48994   2.045   3.359   9.871
16251WAT     H148995   2.099   3.356   9.955
16251WAT     H248996   1.978   3.433   9.877
16252WAT      O48997   5.676   0.624   0.309
16252WAT     H148998   5.582   0.605   0.337
16252WAT     H248999   5.738   0.603   0.384
16253WAT      O49000   8.724   1.198   7.316
16253WAT     H149001   8.806   1.163   7.363
16253WAT     H249002   8.643   1.157   7.358
16254WAT      O49003   0.528   4.738   8.787
16254WAT     H149004   0.550   4.700   8.877
16254WAT     H249005   0.429   4.735   8.772
16255WAT      O49006   5.195   3.939   0.163
16255WAT     H149007   5.162   3.881   0.088
16255WAT     H249008   5.233   3.881   0.235
16256WAT      O49009   7.665   6.417   5.654
16256WAT     H149010   7.668   6.345   5.723
16256WAT     H249011   7.636   6.378   5.566
16257WAT      O49012   6.227   1.558   9.011
16257WAT     H149013   6.162   1.483   8.998
16257WAT     H249014   6.225   1.617   8.931
16258WAT      O49015   1.018   4.881   3.360
16258WAT     H149016   0.970   4.794   3.370
16258WAT     H249017   1.065   4.884   3.272
16259WAT      O49018   8.961   8.810   4.474
16259WAT     H149019   8.959   8.901   4.516
16259WAT     H249020   8.869   8.772   4.471
16260WAT      O49021   5.084   4.952   4.586
16260WAT     H149022   5.123   5.000   4.507
16260WAT     H249023   4.998   4.908   4.559
16261WAT      O49024   3.997   8.640   5.938
16261WAT     H149025   3.992   8.731   5.979
16261WAT     H249026   3.921   8.584   5.970
16262WAT      O49027   4.686   0.267   8.319
16262WAT     H149028   4.622   0.330   8.363
16262WAT     H249029   4.741   0.316   8.251
16263WAT      O49030   2.750   1.982   7.666
16263WAT     H149031   2.842   2.010   7.638
16263WAT     H249032   2.724   1.898   7.617
16264WAT      O49033   7.269   3.722   8.131
16264WAT     H149034   7.351   3.777   8.147
16264WAT     H249035   7.199   3.778   8.087
16265WAT      O49036   9.795   4.710   5.098
16265WAT     H149037   9.713   4.762   5.072
16265WAT     H249038   9.772   4.646   5.172
16266WAT      O49039   3.593   9.461   7.519
16266WAT     H149040   3.669   9.503   7.469
16266WAT     H249041   3.586   9.502   7.610
16267WAT      O49042   1.672   1.917   8.230
16267WAT     H149043   1.733   1.928   8.151
16267WAT     H249044   1.726   1.922   8.314
16268WAT      O49045   7.419   9.715   5.540
16268WAT     H149046   7.335   9.730   5.593
16268WAT     H249047   7.499   9.727   5.599
16269WAT      O49048   6.369   3.878   0.741
16269WAT     H149049   6.394   3.786   0.771
16269WAT     H249050   6.404   3.893   0.648
16270WAT      O49051   6.840   4.831   9.558
16270WAT     H149052   6.823   4.776   9.640
16270WAT     H249053   6.765   4.816   9.493
16271WAT      O49054   1.697   3.315   7.610
16271WAT     H149055   1.622   3.249   7.610
16271WAT     H249056   1.763   3.292   7.682
16272WAT      O49057   0.582   2.563   5.656
16272WAT     H149058   0.641   2.639   5.681
16272WAT     H249059   0.604   2.532   5.564
16273WAT      O49060   8.402   4.693   4.849
16273WAT     H149061   8.461   4.747   4.789
16273WAT     H249062   8.440   4.601   4.861
16274WAT      O49063   0.211   3.731   8.661
16274WAT     H149064   0.245   3.743   8.755
16274WAT     H249065   0.140   3.799   8.643
16275WAT      O49066   3.489   9.564   1.246
16275WAT     H149067   3.421   9.551   1.318
16275WAT     H249068   3.576   9.592   1.286
16276WAT      O49069   9.608   7.078   5.702
16276WAT     H149070   9.674   7.105   5.632
16276WAT     H249071   9.628   6.985   5.732
16277WAT      O49072   8.216   3.933   8.125
16277WAT     H149073   8.221   3.909   8.223
16277WAT     H249074   8.306   3.964   8.094
16278WAT      O49075   7.015   0.473   4.085
16278WAT     H149076   7.088   0.408   4.103
16278WAT     H249077   6.996   0.477   3.987
16279WAT      O49078   7.197   7.177   2.377
16279WAT     H149079   7.216   7.272   2.399
16279WAT     H249080   7.187   7.125   2.461
16280WAT      O49081   6.631   3.108   8.919
16280WAT     H149082   6.561   3.038   8.909
16280WAT     H249083   6.639   3.133   9.016
16281WAT      O49084   6.371   4.698   6.106
16281WAT     H149085   6.373   4.603   6.075
16281WAT     H249086   6.346   4.702   6.202
16282WAT      O49087   5.338   3.189   4.421
16282WAT     H149088   5.388   3.107   4.394
16282WAT     H249089   5.249   3.164   4.458
16283WAT      O49090   5.209   4.691   5.362
16283WAT     H149091   5.309   4.686   5.372
16283WAT     H249092   5.169   4.603   5.385
16284WAT      O49093   9.154   9.828   6.967
16284WAT     H149094   9.250   9.838   6.993
16284WAT     H249095   9.107   9.768   7.032
16285WAT      O49096   7.192   4.132   7.619
16285WAT     H149097   7.115   4.067   7.613
16285WAT     H249098   7.277   4.081   7.634
16286WAT      O49099   7.966   1.151   7.443
16286WAT     H149100   7.904   1.229   7.430
16286WAT     H249101   8.006   1.156   7.534
16287WAT      O49102   5.067   7.561   3.363
16287WAT     H149103   5.112   7.582   3.277
16287WAT     H249104   4.972   7.536   3.346
16288WAT      O49105   2.343   2.571   4.251
16288WAT     H149106   2.269   2.638   4.256
16288WAT     H249107   2.391   2.582   4.163
16289WAT      O49108   1.862   0.350   8.044
16289WAT     H149109   1.837   0.445   8.060
16289WAT     H249110   1.961   0.344   8.033
16290WAT      O49111   5.894   1.364   5.766
16290WAT     H149112   5.809   1.417   5.764
16290WAT     H249113   5.907   1.327   5.858
16291WAT      O49114   0.110   4.586   2.375
16291WAT     H149115   0.040   4.611   2.442
16291WAT     H249116   0.094   4.492   2.344
16292WAT      O49117   9.060   1.939   8.373
16292WAT     H149118   8.997   1.868   8.405
16292WAT     H249119   9.011   2.026   8.367
16293WAT      O49120   0.869   9.309   8.929
16293WAT     H149121   0.886   9.325   8.831
16293WAT     H249122   0.907   9.220   8.954
16294WAT      O49123   3.184   4.364   8.310
16294WAT     H149124   3.274   4.359   8.267
16294WAT     H249125   3.114   4.338   8.243
16295WAT      O49126   1.668   1.857   1.401
16295WAT     H149127   1.723   1.903   1.331
16295WAT     H249128   1.698   1.887   1.492
16296WAT      O49129   4.928   8.886   2.536
16296WAT     H149130   4.971   8.900   2.625
16296WAT     H249131   4.970   8.807   2.490
16297WAT      O49132   5.171   1.682   9.674
16297WAT     H149133   5.270   1.689   9.683
16297WAT     H249134   5.135   1.767   9.635
16298WAT      O49135   2.174   1.611   1.610
16298WAT     H149136   2.200   1.680   1.543
16298WAT     H249137   2.257   1.568   1.647
16299WAT      O49138   5.849   3.568   5.714
16299WAT     H149139   5.874   3.609   5.626
16299WAT     H249140   5.893   3.620   5.788
16300WAT      O49141   3.996   0.471   0.356
16300WAT     H149142   3.991   0.484   0.455
16300WAT     H249143   3.923   0.522   0.311
16301WAT      O49144   0.448   9.043   8.109
16301WAT     H149145   0.484   9.073   8.197
16301WAT     H249146   0.368   8.984   8.123
16302WAT      O49147   4.971   4.458   7.512
16302WAT     H149148   5.012   4.367   7.503
16302WAT     H249149   4.871   4.449   7.512
16303WAT      O49150   5.512   4.378   0.176
16303WAT     H149151   5.430   4.321   0.169
16303WAT     H249152   5.508   4.451   0.108
16304WAT      O49153   9.556   4.214   0.282
16304WAT     H149154   9.475   4.225   0.340
16304WAT     H249155   9.609   4.136   0.315
16305WAT      O49156   6.443   4.992   0.910
16305WAT     H149157   6.483   4.982   0.820
16305WAT     H249158   6.515   4.991   0.980
16306WAT      O49159   4.389   0.974   6.946
16306WAT     H149160   4.407   0.961   6.848
16306WAT     H249161   4.450   1.044   6.982
16307WAT      O49162   8.506   2.688   2.942
16307WAT     H149163   8.509   2.628   3.022
16307WAT     H249164   8.591   2.740   2.936
16308WAT      O49165   8.339   8.943   9.578
16308WAT     H149166   8.432   8.906   9.584
16308WAT     H249167   8.293   8.906   9.497
16309WAT      O49168   3.703   9.174   1.712
16309WAT     H149169   3.695   9.183   1.613
16309WAT     H249170   3.786   9.122   1.734
16310WAT      O49171   8.186   7.946   9.054
16310WAT     H149172   8.089   7.963   9.038
16310WAT     H249173   8.236   7.952   8.968
16311WAT      O49174   7.203   2.854   2.364
16311WAT     H149175   7.301   2.864   2.346
16311WAT     H249176   7.156   2.828   2.279
16312WAT      O49177   3.338   2.476   6.027
16312WAT     H149178   3.333   2.393   6.081
16312WAT     H249179   3.246   2.510   6.008
16313WAT      O49180   7.285   7.853   2.438
16313WAT     H149181   7.198   7.840   2.390
16313WAT     H249182   7.356   7.876   2.372
16314WAT      O49183   5.040   9.581   8.283
16314WAT     H149184   5.104   9.508   8.306
16314WAT     H249185   5.004   9.567   8.191
16315WAT      O49186   4.762   3.213   8.163
16315WAT     H149187   4.817   3.290   8.194
16315WAT     H249188   4.801   3.175   8.079
16316WAT      O49189   8.282   0.109   6.053
16316WAT     H149190   8.203   0.143   6.002
16316WAT     H249191   8.254   0.084   6.146
16317WAT      O49192   2.302   7.086   3.542
16317WAT     H149193   2.256   7.143   3.610
16317WAT     H249194   2.377   7.036   3.586
16318WAT      O49195   8.994   0.110   3.384
16318WAT     H149196   9.059   0.184   3.403
16318WAT     H249197   8.958   0.121   3.292
16319WAT      O49198   3.077   2.575   6.035
16319WAT     H149199   3.036   2.524   6.110
16319WAT     H249200   3.100   2.668   6.066
16320WAT      O49201   2.038   6.107   0.077
16320WAT     H149202   2.114   6.139   0.133
16320WAT     H249203   2.038   6.156  -0.010
16321WAT      O49204   1.555   0.509   3.939
16321WAT     H149205   1.638   0.474   3.981
16321WAT     H249206   1.512   0.576   4.000
16322WAT      O49207   9.373   9.150   5.379
16322WAT     H149208   9.343   9.064   5.420
16322WAT     H249209   9.433   9.130   5.301
16323WAT      O49210   7.930   0.065   7.830
16323WAT     H149211   7.998   0.118   7.778
16323WAT     H249212   7.864   0.025   7.766
16324WAT      O49213   6.731   8.727   1.845
16324WAT     H149214   6.674   8.807   1.863
16324WAT     H249215   6.711   8.692   1.753
16325WAT      O49216   1.819   2.911   4.236
16325WAT     H149217   1.740   2.945   4.185
16325WAT     H249218   1.877   2.857   4.175
16326WAT      O49219   0.612   9.480   6.557
16326WAT     H149220   0.612   9.422   6.475
16326WAT     H249221   0.533   9.458   6.614
16327WAT      O49222   6.942   6.315   3.096
16327WAT     H149223   6.933   6.362   3.008
16327WAT     H249224   7.039   6.297   3.113
16328WAT      O49225   7.204   8.972   4.365
16328WAT     H149226   7.165   8.888   4.328
16328WAT     H249227   7.205   8.968   4.465
16329WAT      O49228   5.119   1.620   5.398
16329WAT     H149229   5.107   1.532   5.444
16329WAT     H249230   5.217   1.637   5.384
16330WAT      O49231   8.562   5.778   2.380
16330WAT     H149232   8.592   5.733   2.295
16330WAT     H249233   8.567   5.877   2.368
16331WAT      O49234   0.335   1.961   3.788
16331WAT     H149235   0.429   1.931   3.773
16331WAT     H249236   0.322   1.986   3.884
16332WAT      O49237   1.714   7.642   0.139
16332WAT     H149238   1.769   7.561   0.157
16332WAT     H249239   1.667   7.670   0.222
16333WAT      O49240   1.669   8.270   7.590
16333WAT     H149241   1.692   8.354   7.540
16333WAT     H249242   1.591   8.289   7.650
16334WAT      O49243   3.166   7.116   5.996
16334WAT     H149244   3.151   7.017   5.997
16334WAT     H249245   3.087   7.160   5.952
16335WAT      O49246   0.931   6.594   8.277
16335WAT     H149247   1.022   6.584   8.318
16335WAT     H249248   0.866   6.617   8.349
16336WAT      O49249   8.799   3.216   7.287
16336WAT     H149250   8.869   3.199   7.217
16336WAT     H249251   8.824   3.166   7.370
16337WAT      O49252   9.535   5.534   6.543
16337WAT     H149253   9.619   5.515   6.594
16337WAT     H249254   9.479   5.600   6.594
16338WAT      O49255   6.929   3.348   2.012
16338WAT     H149256   6.884   3.403   1.941
16338WAT     H249257   7.019   3.318   1.978
16339WAT      O49258   7.861   7.685   6.525
16339WAT     H149259   7.906   7.760   6.476
16339WAT     H249260   7.778   7.720   6.570
16340WAT      O49261   5.592   6.472   3.791
16340WAT     H149262   5.508   6.518   3.820
16340WAT     H249263   5.596   6.470   3.691
16341WAT      O49264   7.435   2.005   6.559
16341WAT     H149265   7.365   1.934   6.560
16341WAT     H249266   7.492   1.994   6.478
16342WAT      O49267   9.593   3.822   5.379
16342WAT     H149268   9.672   3.773   5.417
16342WAT     H249269   9.530   3.756   5.337
16343WAT      O49270   6.299   4.911   9.386
16343WAT     H149271   6.379   4.882   9.332
16343WAT     H249272   6.228   4.841   9.380
16344WAT      O49273   4.902   1.737   6.993
16344WAT     H149274   4.948   1.794   7.062
16344WAT     H249275   4.894   1.644   7.028
16345WAT      O49276   3.164   3.769   6.976
16345WAT     H149277   3.068   3.786   7.001
16345WAT     H249278   3.174   3.674   6.945
16346WAT      O49279   8.749   7.745   6.421
16346WAT     H149280   8.735   7.743   6.322
16346WAT     H249281   8.780   7.836   6.448
16347WAT      O49282   0.661   6.966   2.008
16347WAT     H149283   0.686   6.944   1.915
16347WAT     H249284   0.607   7.051   2.009
16348WAT      O49285   6.309   5.710   3.506
16348WAT     H149286   6.275   5.706   3.412
16348WAT     H249287   6.404   5.742   3.506
16349WAT      O49288   8.610   0.180   6.954
16349WAT     H149289   8.550   0.122   6.898
16349WAT     H249290   8.601   0.155   7.050
16350WAT      O49291   8.129   6.748   1.161
16350WAT     H149292   8.164   6.667   1.209
16350WAT     H249293   8.205   6.801   1.124
16351WAT      O49294   9.382   3.603   6.433
16351WAT     H149295   9.396   3.658   6.515
16351WAT     H249296   9.464   3.549   6.414
16352WAT      O49297   3.347   7.095   7.676
16352WAT     H149298   3.311   7.002   7.668
16352WAT     H249299   3.369   7.131   7.585
16353WAT      O49300   4.509   6.880   4.378
16353WAT     H149301   4.500   6.781   4.391
16353WAT     H249302   4.602   6.902   4.351
16354WAT      O49303   5.749   0.394   9.299
16354WAT     H149304   5.836   0.373   9.254
16354WAT     H249305   5.714   0.311   9.343
16355WAT      O49306   7.213   0.426   4.952
16355WAT     H149307   7.215   0.490   5.029
16355WAT     H249308   7.143   0.455   4.887
16356WAT      O49309   6.124   0.839   1.903
16356WAT     H149310   6.032   0.857   1.937
16356WAT     H249311   6.181   0.805   1.979
16357WAT      O49312   4.517   0.132   8.163
16357WAT     H149313   4.550   0.180   8.244
16357WAT     H249314   4.582   0.143   8.088
16358WAT      O49315   3.061   2.064   9.298
16358WAT     H149316   3.149   2.024   9.326
16358WAT     H249317   3.047   2.150   9.347
16359WAT      O49318   8.309   3.094   2.044
16359WAT     H149319   8.243   3.022   2.064
16359WAT     H249320   8.283   3.142   1.961
16360WAT      O49321   6.703   1.680   8.531
16360WAT     H149322   6.660   1.684   8.621
16360WAT     H249323   6.733   1.586   8.513
16361WAT      O49324   8.848   4.339   3.960
16361WAT     H149325   8.792   4.262   3.929
16361WAT     H249326   8.908   4.370   3.886
16362WAT      O49327   8.826   6.720   7.138
16362WAT     H149328   8.742   6.753   7.180
16362WAT     H249329   8.842   6.771   7.053
16363WAT      O49330   1.231   2.141   6.473
16363WAT     H149331   1.200   2.068   6.534
16363WAT     H249332   1.152   2.186   6.431
16364WAT      O49333   9.348   0.076   4.498
16364WAT     H149334   9.427   0.027   4.536
16364WAT     H249335   9.342   0.167   4.540
16365WAT      O49336   3.324   0.952   0.521
16365WAT     H149337   3.296   0.891   0.447
16365WAT     H249338   3.276   0.927   0.605
16366WAT      O49339   9.326   4.527   1.146
16366WAT     H149340   9.261   4.553   1.217
16366WAT     H249341   9.378   4.446   1.176
16367WAT      O49342   8.251   8.431   1.889
16367WAT     H149343   8.238   8.363   1.961
16367WAT     H249344   8.162   8.455   1.849
16368WAT      O49345   9.081   4.417   0.442
16368WAT     H149346   9.092   4.433   0.540
16368WAT     H249347   9.069   4.504   0.395
16369WAT      O49348   2.212   9.031   8.303
16369WAT     H149349   2.224   9.122   8.342
16369WAT     H249350   2.298   9.001   8.261
16370WAT      O49351   1.297   3.301   0.337
16370WAT     H149352   1.386   3.285   0.295
16370WAT     H249353   1.307   3.307   0.436
16371WAT      O49354   4.485   2.340   4.149
16371WAT     H149355   4.428   2.347   4.067
16371WAT     H249356   4.464   2.256   4.198
16372WAT      O49357   6.302   7.748   1.382
16372WAT     H149358   6.215   7.755   1.429
16372WAT     H249359   6.373   7.794   1.435
16373WAT      O49360   2.482   9.328   3.742
16373WAT     H149361   2.539   9.383   3.682
16373WAT     H249362   2.540   9.276   3.805
16374WAT      O49363   8.150   2.242   6.597
16374WAT     H149364   8.243   2.250   6.633
16374WAT     H249365   8.116   2.150   6.613
16375WAT      O49366   2.250   0.662   0.867
16375WAT     H149367   2.177   0.595   0.852
16375WAT     H249368   2.301   0.676   0.782
16376WAT      O49369   1.618   7.738   9.756
16376WAT     H149370   1.687   7.697   9.815
16376WAT     H249371   1.527   7.703   9.782
16377WAT      O49372   4.536   5.062   8.370
16377WAT     H149373   4.611   5.128   8.365
16377WAT     H249374   4.451   5.109   8.393
16378WAT      O49375   3.842   4.071   4.893
16378WAT     H149376   3.810   3.987   4.849
16378WAT     H249377   3.940   4.066   4.909
16379WAT      O49378   4.956   6.980   7.626
16379WAT     H149379   4.919   6.893   7.659
16379WAT     H249380   5.027   7.012   7.689
16380WAT      O49381   1.886   1.466   8.380
16380WAT     H149382   1.914   1.421   8.296
16380WAT     H249383   1.967   1.488   8.435
16381WAT      O49384   2.600   0.279   5.683
16381WAT     H149385   2.594   0.207   5.752
16381WAT     H249386   2.525   0.344   5.696
16382WAT      O49387   6.944   7.855   2.729
16382WAT     H149388   6.985   7.946   2.726
16382WAT     H249389   7.015   7.787   2.749
16383WAT      O49390   2.342   1.992   4.913
16383WAT     H149391   2.273   2.026   4.978
16383WAT     H249392   2.385   1.910   4.950
16384WAT      O49393   9.220   3.145   3.605
16384WAT     H149394   9.161   3.088   3.662
16384WAT     H249395   9.273   3.087   3.543
16385WAT      O49396   3.551   6.625   2.289
16385WAT     H149397   3.636   6.650   2.242
16385WAT     H249398   3.553   6.528   2.312
16386WAT      O49399   7.256   8.440   2.813
16386WAT     H149400   7.201   8.465   2.733
16386WAT     H249401   7.315   8.517   2.838
16387WAT      O49402   5.307   1.376   2.094
16387WAT     H149403   5.244   1.333   2.030
16387WAT     H249404   5.345   1.459   2.053
16388WAT      O49405   6.056   2.963   7.387
16388WAT     H149406   6.123   2.993   7.319
16388WAT     H249407   6.035   2.866   7.373
16389WAT      O49408   6.360   0.340   1.022
16389WAT     H149409   6.298   0.263   1.034
16389WAT     H249410   6.317   0.409   0.965
16390WAT      O49411   9.066   1.440   1.562
16390WAT     H149412   9.021   1.512   1.614
16390WAT     H249413   9.028   1.436   1.469
16391WAT      O49414   6.958   0.421   1.498
16391WAT     H149415   6.962   0.520   1.489
16391WAT     H249416   6.900   0.397   1.576
16392WAT      O49417   1.806   7.301   3.234
16392WAT     H149418   1.797   7.318   3.332
16392WAT     H249419   1.763   7.376   3.183
16393WAT      O49420   7.495   2.167   4.227
16393WAT     H149421   7.440   2.243   4.191
16393WAT     H249422   7.530   2.113   4.151
16394WAT      O49423   8.107   7.498   0.596
16394WAT     H149424   8.128   7.421   0.656
16394WAT     H249425   8.094   7.464   0.503
16395WAT      O49426   5.260   7.930   6.262
16395WAT     H149427   5.337   7.906   6.204
16395WAT     H249428   5.175   7.914   6.212
16396WAT      O49429   4.092   9.487   8.443
16396WAT     H149430   4.018   9.471   8.508
16396WAT     H249431   4.136   9.399   8.421
16397WAT      O49432   9.615   5.056   0.869
16397WAT     H149433   9.596   4.979   0.808
16397WAT     H249434   9.543   5.125   0.859
16398WAT      O49435   5.330   9.038   3.930
16398WAT     H149436   5.246   9.006   3.975
16398WAT     H249437   5.351   9.131   3.962
16399WAT      O49438   2.853   5.285   3.357
16399WAT     H149439   2.933   5.229   3.334
16399WAT     H249440   2.784   5.227   3.400
16400WAT      O49441   8.149   9.441   9.834
16400WAT     H149442   8.181   9.347   9.822
16400WAT     H249443   8.227   9.500   9.852
16401WAT      O49444   7.624   8.719   3.439
16401WAT     H149445   7.567   8.760   3.510
16401WAT     H249446   7.720   8.728   3.464
16402WAT      O49447   8.768   7.669   8.334
16402WAT     H149448   8.671   7.693   8.321
16402WAT     H249449   8.821   7.752   8.346
16403WAT      O49450   1.034   2.428   4.246
16403WAT     H149451   1.001   2.333   4.244
16403WAT     H249452   1.128   2.430   4.279
16404WAT      O49453   0.841   5.544   0.442
16404WAT     H149454   0.772   5.523   0.373
16404WAT     H249455   0.815   5.627   0.492
16405WAT      O49456   3.018   6.635   4.836
16405WAT     H149457   3.039   6.598   4.927
16405WAT     H249458   3.076   6.714   4.818
16406WAT      O49459   7.633   7.905   7.648
16406WAT     H149460   7.715   7.849   7.648
16406WAT     H249461   7.634   7.967   7.727
16407WAT      O49462   1.541   8.987   0.636
16407WAT     H149463   1.600   9.067   0.650
16407WAT     H249464   1.594   8.904   0.653
16408WAT      O49465   8.946   3.638   8.685
16408WAT     H149466   8.923   3.590   8.600
16408WAT     H249467   8.886   3.717   8.695
16409WAT      O49468   0.546   0.678   4.776
16409WAT     H149469   0.541   0.610   4.849
16409WAT     H249470   0.506   0.639   4.693
16410WAT      O49471   5.629   7.572   9.009
16410WAT     H149472   5.724   7.578   9.041
16410WAT     H249473   5.622   7.497   8.943
16411WAT      O49474   6.231   6.111   4.169
16411WAT     H149475   6.138   6.073   4.167
16411WAT     H249476   6.227   6.208   4.147
16412WAT      O49477   5.252   6.573   1.216
16412WAT     H149478   5.172   6.612   1.172
16412WAT     H249479   5.334   6.622   1.186
16413WAT      O49480   0.678   4.838   9.453
16413WAT     H149481   0.675   4.844   9.553
16413WAT     H249482   0.647   4.747   9.424
16414WAT      O49483   7.185   3.928   6.177
16414WAT     H149484   7.107   3.941   6.116
16414WAT     H249485   7.152   3.922   6.272
16415WAT      O49486   3.941   7.268   9.212
16415WAT     H149487   3.921   7.282   9.309
16415WAT     H249488   3.991   7.346   9.176
16416WAT      O49489   2.458   9.208   3.433
16416WAT     H149490   2.431   9.302   3.456
16416WAT     H249491   2.379   9.159   3.397
16417WAT      O49492   5.269   1.965   7.975
16417WAT     H149493   5.292   1.901   7.901
16417WAT     H249494   5.323   2.048   7.965
16418WAT      O49495   3.620   2.725   7.241
16418WAT     H149496   3.584   2.818   7.235
16418WAT     H249497   3.611   2.680   7.151
16419WAT      O49498   1.822   5.323   6.910
16419WAT     H149499   1.920   5.333   6.924
16419WAT     H249500   1.773   5.373   6.982
16420WAT      O49501   1.116   5.205   7.180
16420WAT     H149502   1.049   5.131   7.179
16420WAT     H249503   1.186   5.186   7.249
16421WAT      O49504   2.390   9.088   9.013
16421WAT     H149505   2.380   9.081   9.113
16421WAT     H249506   2.405   9.184   8.988
16422WAT      O49507   6.679   1.524   7.523
16422WAT     H149508   6.776   1.505   7.510
16422WAT     H249509   6.639   1.453   7.581
16423WAT      O49510   3.878   6.424   7.723
16423WAT     H149511   3.945   6.469   7.663
16423WAT     H249512   3.787   6.431   7.682
16424WAT      O49513   7.857   7.265   1.510
16424WAT     H149514   7.825   7.316   1.429
16424WAT     H249515   7.848   7.167   1.493
16425WAT      O49516   3.342   3.391   6.549
16425WAT     H149517   3.256   3.345   6.525
16425WAT     H249518   3.419   3.331   6.527
16426WAT      O49519   3.249   4.705   2.416
16426WAT     H149520   3.259   4.664   2.507
16426WAT     H249521   3.335   4.696   2.366
16427WAT      O49522   5.687   7.858   5.811
16427WAT     H149523   5.672   7.952   5.781
16427WAT     H249524   5.727   7.858   5.903
16428WAT      O49525   0.434   4.717   7.405
16428WAT     H149526   0.522   4.758   7.427
16428WAT     H249527   0.390   4.771   7.332
16429WAT      O49528   2.874   5.139   5.772
16429WAT     H149529   2.865   5.042   5.795
16429WAT     H249530   2.918   5.187   5.848
16430WAT      O49531   7.041   5.743   4.222
16430WAT     H149532   7.072   5.828   4.265
16430WAT     H249533   7.067   5.742   4.126
16431WAT      O49534   1.511   6.040   2.020
16431WAT     H149535   1.484   6.113   1.957
16431WAT     H249536   1.449   6.038   2.098
16432WAT      O49537   3.989   1.412   8.174
16432WAT     H149538   4.029   1.351   8.243
16432WAT     H249539   3.891   1.422   8.192
16433WAT      O49540   4.396   8.496   5.319
16433WAT     H149541   4.416   8.577   5.265
16433WAT     H249542   4.369   8.523   5.412
16434WAT      O49543   6.672   5.504   3.479
16434WAT     H149544   6.657   5.406   3.464
16434WAT     H249545   6.768   5.521   3.498
16435WAT      O49546   0.696   6.968   1.708
16435WAT     H149547   0.696   7.049   1.649
16435WAT     H249548   0.790   6.943   1.730
16436WAT      O49549   6.941   0.395   8.138
16436WAT     H149550   6.847   0.407   8.169
16436WAT     H249551   6.942   0.376   8.040
16437WAT      O49552   0.391   2.149   9.642
16437WAT     H149553   0.468   2.101   9.684
16437WAT     H249554   0.343   2.202   9.713
16438WAT      O49555   6.832   6.250   8.715
16438WAT     H149556   6.913   6.308   8.706
16438WAT     H249557   6.817   6.229   8.812
16439WAT      O49558   6.010   3.632   5.956
16439WAT     H149559   6.030   3.675   6.044
16439WAT     H249560   6.070   3.553   5.943
16440WAT      O49561   6.815   9.719   2.614
16440WAT     H149562   6.740   9.758   2.668
16440WAT     H249563   6.898   9.718   2.669
16441WAT      O49564   7.425   2.779   8.004
16441WAT     H149565   7.342   2.774   8.059
16441WAT     H249566   7.426   2.866   7.954
16442WAT      O49567   4.330   8.713   6.575
16442WAT     H149568   4.336   8.767   6.659
16442WAT     H249569   4.383   8.757   6.503
16443WAT      O49570   2.240   8.889   4.392
16443WAT     H149571   2.232   8.794   4.362
16443WAT     H249572   2.337   8.913   4.400
16444WAT      O49573   8.988   2.837   6.018
16444WAT     H149574   8.943   2.753   6.050
16444WAT     H249575   9.063   2.813   5.957
16445WAT      O49576   1.677   3.717   3.485
16445WAT     H149577   1.746   3.771   3.437
16445WAT     H249578   1.717   3.674   3.565
16446WAT      O49579   5.670   2.246   7.037
16446WAT     H149580   5.688   2.184   6.960
16446WAT     H249581   5.740   2.232   7.107
16447WAT      O49582   6.643   3.634   3.852
16447WAT     H149583   6.664   3.729   3.830
16447WAT     H249584   6.613   3.627   3.947
16448WAT      O49585   9.520   1.954   3.970
16448WAT     H149586   9.440   1.918   4.018
16448WAT     H249587   9.499   1.964   3.873
16449WAT      O49588   2.753   9.482   6.388
16449WAT     H149589   2.755   9.522   6.296
16449WAT     H249590   2.670   9.512   6.436
16450WAT      O49591   0.478   6.381   8.807
16450WAT     H149592   0.436   6.295   8.836
16450WAT     H249593   0.426   6.418   8.730
16451WAT      O49594   8.375   5.797   0.651
16451WAT     H149595   8.403   5.885   0.613
16451WAT     H249596   8.299   5.760   0.597
16452WAT      O49597   1.262   3.009   0.167
16452WAT     H149598   1.357   3.009   0.136
16452WAT     H249599   1.242   2.924   0.216
16453WAT      O49600   2.853   2.829   0.355
16453WAT     H149601   2.908   2.909   0.380
16453WAT     H249602   2.818   2.840   0.262
16454WAT      O49603   4.018   7.144   3.397
16454WAT     H149604   3.986   7.224   3.347
16454WAT     H249605   3.999   7.157   3.495
16455WAT      O49606   4.840   0.412   8.162
16455WAT     H149607   4.909   0.350   8.125
16455WAT     H249608   4.813   0.478   8.092
16456WAT      O49609   6.868   1.901   7.954
16456WAT     H149610   6.790   1.844   7.930
16456WAT     H249611   6.885   1.967   7.881
16457WAT      O49612   0.462   4.094   6.717
16457WAT     H149613   0.515   4.034   6.777
16457WAT     H249614   0.379   4.046   6.687
16458WAT      O49615   8.373   3.439   7.624
16458WAT     H149616   8.381   3.512   7.692
16458WAT     H249617   8.298   3.378   7.650
16459WAT      O49618   6.912   2.352   3.279
16459WAT     H149619   6.880   2.332   3.187
16459WAT     H249620   6.878   2.283   3.343
16460WAT      O49621   3.980   9.204   5.630
16460WAT     H149622   3.968   9.302   5.616
16460WAT     H249623   4.077   9.184   5.644
16461WAT      O49624   8.245   0.978   5.028
16461WAT     H149625   8.329   1.009   4.983
16461WAT     H249626   8.189   0.926   4.963
16462WAT      O49627   0.101   4.918   6.717
16462WAT     H149628   0.061   4.915   6.809
16462WAT     H249629   0.065   4.997   6.668
16463WAT      O49630   8.903   4.930   3.327
16463WAT     H149631   8.950   4.959   3.244
16463WAT     H249632   8.951   4.851   3.367
16464WAT      O49633   4.313   7.286   0.915
16464WAT     H149634   4.305   7.262   1.012
16464WAT     H249635   4.241   7.351   0.891
16465WAT      O49636   9.224   6.501   6.332
16465WAT     H149637   9.131   6.465   6.339
16465WAT     H249638   9.222   6.600   6.324
16466WAT      O49639   6.856   2.779   4.099
16466WAT     H149640   6.833   2.720   4.022
16466WAT     H249641   6.871   2.723   4.181
16467WAT      O49642   1.159   8.309   6.806
16467WAT     H149643   1.070   8.265   6.814
16467WAT     H249644   1.151   8.406   6.827
16468WAT      O49645   1.955   0.599   3.359
16468WAT     H149646   1.894   0.569   3.285
16468WAT     H249647   1.916   0.572   3.447
16469WAT      O49648   1.702   8.358   5.425
16469WAT     H149649   1.756   8.295   5.480
16469WAT     H249650   1.637   8.306   5.370
16470WAT      O49651   4.163   3.808   4.356
16470WAT     H149652   4.065   3.797   4.375
16470WAT     H249653   4.206   3.853   4.434
16471WAT      O49654   7.617   1.279   1.770
16471WAT     H149655   7.582   1.362   1.814
16471WAT     H249656   7.542   1.214   1.757
16472WAT      O49657   6.519   3.580   8.515
16472WAT     H149658   6.485   3.634   8.438
16472WAT     H249659   6.479   3.489   8.513
16473WAT      O49660   7.229   9.249   4.853
16473WAT     H149661   7.322   9.267   4.822
16473WAT     H249662   7.172   9.329   4.835
16474WAT      O49663   8.314   2.590   1.853
16474WAT     H149664   8.280   2.661   1.792
16474WAT     H249665   8.238   2.554   1.908
16475WAT      O49666   8.903   4.412   1.421
16475WAT     H149667   8.825   4.408   1.358
16475WAT     H249668   8.896   4.337   1.487
16476WAT      O49669   5.055   8.330   5.486
16476WAT     H149670   5.113   8.347   5.407
16476WAT     H249671   5.090   8.381   5.565
16477WAT      O49672   7.541   6.955   8.737
16477WAT     H149673   7.630   6.987   8.770
16477WAT     H249674   7.469   7.014   8.773
16478WAT      O49675   8.029   8.586   0.298
16478WAT     H149676   7.993   8.582   0.205
16478WAT     H249677   8.081   8.503   0.318
16479WAT      O49678   1.206   8.614   4.175
16479WAT     H149679   1.126   8.620   4.115
16479WAT     H249680   1.177   8.623   4.270
16480WAT      O49681   8.947   0.267   6.474
16480WAT     H149682   8.963   0.178   6.515
16480WAT     H249683   9.026   0.294   6.419
16481WAT      O49684   6.299   5.398   3.530
16481WAT     H149685   6.393   5.425   3.550
16481WAT     H249686   6.239   5.431   3.604
16482WAT      O49687   6.043   2.404   8.105
16482WAT     H149688   6.108   2.474   8.076
16482WAT     H249689   6.083   2.313   8.091
16483WAT      O49690   1.620   3.714   9.632
16483WAT     H149691   1.638   3.752   9.541
16483WAT     H249692   1.705   3.708   9.683
16484WAT      O49693   7.427   5.861   7.239
16484WAT     H149694   7.514   5.826   7.206
16484WAT     H249695   7.413   5.953   7.202
16485WAT      O49696   8.187   1.383   7.409
16485WAT     H149697   8.091   1.387   7.437
16485WAT     H249698   8.196   1.418   7.316
16486WAT      O49699   9.685   3.580   1.880
16486WAT     H149700   9.690   3.609   1.976
16486WAT     H249701   9.675   3.481   1.875
16487WAT      O49702   8.074   9.693   0.545
16487WAT     H149703   8.052   9.601   0.578
16487WAT     H249704   8.007   9.758   0.581
16488WAT      O49705   5.835   5.352   9.102
16488WAT     H149706   5.800   5.259   9.107
16488WAT     H249707   5.924   5.351   9.056
16489WAT      O49708   0.744   3.992   6.281
16489WAT     H149709   0.804   4.043   6.220
16489WAT     H249710   0.781   3.997   6.374
16490WAT      O49711   4.021   6.499   5.014
16490WAT     H149712   4.026   6.579   5.075
16490WAT     H249713   4.106   6.492   4.962
16491WAT      O49714   9.500   7.952   0.858
16491WAT     H149715   9.414   7.921   0.898
16491WAT     H249716   9.488   8.044   0.819
16492WAT      O49717   9.233   0.751   0.134
16492WAT     H149718   9.150   0.714   0.093
16492WAT     H249719   9.308   0.746   0.069
16493WAT      O49720   4.275   2.614   0.622
16493WAT     H149721   4.288   2.547   0.550
16493WAT     H249722   4.316   2.581   0.707
16494WAT      O49723   9.870   1.713   0.744
16494WAT     H149724   9.949   1.713   0.805
16494WAT     H249725   9.823   1.625   0.750
16495WAT      O49726   3.346   1.018   9.286
16495WAT     H149727   3.260   1.011   9.336
16495WAT     H249728   3.328   1.038   9.190
16496WAT      O49729   2.072   6.897   4.103
16496WAT     H149730   2.103   6.920   4.195
16496WAT     H249731   1.991   6.839   4.108
16497WAT      O49732   9.274   0.350   4.567
16497WAT     H149733   9.197   0.367   4.628
16497WAT     H249734   9.240   0.334   4.474
16498WAT      O49735   1.109   6.716   9.067
16498WAT     H149736   1.021   6.762   9.054
16498WAT     H249737   1.182   6.784   9.072
16499WAT      O49738   3.259   5.493   5.727
16499WAT     H149739   3.184   5.518   5.665
16499WAT     H249740   3.331   5.447   5.675
16500WAT      O49741   9.634   2.209   8.329
16500WAT     H149742   9.573   2.288   8.332
16500WAT     H249743   9.710   2.228   8.266
16501WAT      O49744   1.626   3.731   5.523
16501WAT     H149745   1.634   3.647   5.578
16501WAT     H249746   1.715   3.750   5.480
16502WAT      O49747   9.110   8.155   7.025
16502WAT     H149748   9.111   8.096   7.106
16502WAT     H249749   9.196   8.205   7.019
16503WAT      O49750   2.033   0.765   6.426
16503WAT     H149751   2.076   0.854   6.439
16503WAT     H249752   2.004   0.754   6.331
16504WAT      O49753   7.262   2.880   6.296
16504WAT     H149754   7.208   2.924   6.225
16504WAT     H249755   7.263   2.781   6.280
16505WAT      O49756   7.103   7.545   1.092
16505WAT     H149757   7.100   7.446   1.076
16505WAT     H249758   7.097   7.594   1.005
16506WAT      O49759   4.997   2.870   4.699
16506WAT     H149760   5.051   2.954   4.706
16506WAT     H249761   4.948   2.869   4.612
16507WAT      O49762   5.452   6.800   3.817
16507WAT     H149763   5.495   6.831   3.732
16507WAT     H249764   5.417   6.707   3.806
16508WAT      O49765   1.516   3.326   9.550
16508WAT     H149766   1.426   3.367   9.560
16508WAT     H249767   1.579   3.393   9.511
16509WAT      O49768   6.665   6.266   4.472
16509WAT     H149769   6.660   6.356   4.516
16509WAT     H249770   6.652   6.276   4.374
16510WAT      O49771   7.661   6.874   3.901
16510WAT     H149772   7.697   6.963   3.930
16510WAT     H249773   7.568   6.863   3.937
16511WAT      O49774   8.244   2.000   0.191
16511WAT     H149775   8.151   1.989   0.155
16511WAT     H249776   8.267   1.922   0.249
16512WAT      O49777   4.492   7.395   7.810
16512WAT     H149778   4.547   7.323   7.769
16512WAT     H249779   4.465   7.461   7.739
16513WAT      O49780   0.678   7.640   6.806
16513WAT     H149781   0.758   7.597   6.764
16513WAT     H249782   0.634   7.574   6.868
16514WAT      O49783   4.839   3.025   6.877
16514WAT     H149784   4.938   3.038   6.871
16514WAT     H249785   4.819   2.930   6.901
16515WAT      O49786   2.336   2.861   1.520
16515WAT     H149787   2.282   2.943   1.539
16515WAT     H249788   2.342   2.848   1.421
16516WAT      O49789   1.597   0.213   4.258
16516WAT     H149790   1.605   0.300   4.307
16516WAT     H249791   1.686   0.186   4.224
16517WAT      O49792   8.881   7.327   9.437
16517WAT     H149793   8.807   7.330   9.370
16517WAT     H249794   8.881   7.412   9.490
16518WAT      O49795   2.775   9.366   5.871
16518WAT     H149796   2.801   9.389   5.777
16518WAT     H249797   2.836   9.295   5.906
16519WAT      O49798   4.704   8.770   0.405
16519WAT     H149799   4.691   8.851   0.347
16519WAT     H249800   4.752   8.796   0.489
16520WAT      O49801   6.044   8.383   7.808
16520WAT     H149802   6.115   8.321   7.841
16520WAT     H249803   6.055   8.473   7.851
16521WAT      O49804   7.361   7.158   5.752
16521WAT     H149805   7.335   7.105   5.671
16521WAT     H249806   7.366   7.255   5.728
16522WAT      O49807   1.933   0.229   2.206
16522WAT     H149808   1.954   0.251   2.111
16522WAT     H249809   2.017   0.227   2.260
16523WAT      O49810   1.681   3.412   7.994
16523WAT     H149811   1.769   3.445   7.959
16523WAT     H249812   1.656   3.327   7.947
16524WAT      O49813   7.560   1.742   8.456
16524WAT     H149814   7.596   1.762   8.365
16524WAT     H249815   7.621   1.678   8.503
16525WAT      O49816   1.930   3.932   8.648
16525WAT     H149817   1.894   3.920   8.740
16525WAT     H249818   1.940   3.842   8.604
16526WAT      O49819   8.376   7.920   2.337
16526WAT     H149820   8.383   7.907   2.238
16526WAT     H249821   8.460   7.887   2.381
16527WAT      O49822   0.256   7.317   8.868
16527WAT     H149823   0.257   7.259   8.949
16527WAT     H249824   0.310   7.400   8.885
16528WAT      O49825   2.119   3.834   7.061
16528WAT     H149826   2.147   3.795   7.149
16528WAT     H249827   2.084   3.762   7.002
16529WAT      O49828   1.995   4.548   7.122
16529WAT     H149829   2.083   4.530   7.079
16529WAT     H249830   1.990   4.499   7.210
16530WAT      O49831   1.973   9.115   1.176
16530WAT     H149832   2.035   9.153   1.107
16530WAT     H249833   1.972   9.174   1.257
16531WAT      O49834   8.389   6.668   1.515
16531WAT     H149835   8.376   6.680   1.614
16531WAT     H249836   8.401   6.757   1.472
16532WAT      O49837   6.586   9.078   9.081
16532WAT     H149838   6.557   9.018   9.007
16532WAT     H249839   6.568   9.173   9.056
16533WAT      O49840   0.377   8.273   8.840
16533WAT     H149841   0.421   8.218   8.911
16533WAT     H249842   0.352   8.214   8.764
16534WAT      O49843   4.233   1.923   8.660
16534WAT     H149844   4.289   1.858   8.713
16534WAT     H249845   4.293   1.986   8.611
16535WAT      O49846   6.399   2.627   0.191
16535WAT     H149847   6.387   2.722   0.162
16535WAT     H249848   6.493   2.613   0.221
16536WAT      O49849   3.789   9.049   9.297
16536WAT     H149850   3.716   9.092   9.351
16536WAT     H249851   3.752   9.022   9.208
16537WAT      O49852   0.693   0.929   0.533
16537WAT     H149853   0.668   0.881   0.617
16537WAT     H249854   0.750   1.009   0.555
16538WAT      O49855   0.486   4.776   5.041
16538WAT     H149856   0.488   4.683   5.078
16538WAT     H249857   0.469   4.841   5.115
16539WAT      O49858   6.622   1.442   9.814
16539WAT     H149859   6.594   1.506   9.886
16539WAT     H249860   6.721   1.450   9.799
16540WAT      O49861   3.092   9.000   6.716
16540WAT     H149862   3.079   8.942   6.797
16540WAT     H249863   3.032   8.967   6.642
16541WAT      O49864   0.248   2.226   7.725
16541WAT     H149865   0.313   2.162   7.684
16541WAT     H249866   0.200   2.181   7.800
16542WAT      O49867   1.787   3.802   0.691
16542WAT     H149868   1.766   3.811   0.788
16542WAT     H249869   1.837   3.717   0.675
16543WAT      O49870   9.176   7.914   5.167
16543WAT     H149871   9.216   7.933   5.257
16543WAT     H249872   9.129   7.996   5.133
16544WAT      O49873   6.272   5.158   3.430
16544WAT     H149874   6.215   5.174   3.349
16544WAT     H249875   6.275   5.242   3.485
16545WAT      O49876   7.178   2.568   5.344
16545WAT     H149877   7.150   2.481   5.303
16545WAT     H249878   7.245   2.551   5.416
16546WAT      O49879   7.109   0.871   0.558
16546WAT     H149880   7.071   0.781   0.540
16546WAT     H249881   7.204   0.875   0.528
16547WAT      O49882   1.427   8.343   2.912
16547WAT     H149883   1.361   8.269   2.926
16547WAT     H249884   1.459   8.377   3.000
16548WAT      O49885   2.817   2.491   3.033
16548WAT     H149886   2.728   2.448   3.049
16548WAT     H249887   2.805   2.571   2.974
16549WAT      O49888   4.832   4.950   3.751
16549WAT     H149889   4.930   4.952   3.766
16549WAT     H249890   4.811   4.888   3.675
16550WAT      O49891   9.156   9.800   1.425
16550WAT     H149892   9.235   9.743   1.401
16550WAT     H249893   9.188   9.893   1.447
16551WAT      O49894   8.634   3.632   0.042
16551WAT     H149895   8.609   3.628   0.138
16551WAT     H249896   8.699   3.707   0.027
16552WAT      O49897   2.622   0.219   6.121
16552WAT     H149898   2.701   0.176   6.166
16552WAT     H249899   2.633   0.318   6.123
16553WAT      O49900   4.753   5.556   4.413
16553WAT     H149901   4.727   5.648   4.442
16553WAT     H249902   4.801   5.561   4.326
16554WAT      O49903   0.022   0.073   1.843
16554WAT     H149904   0.114   0.099   1.813
16554WAT     H249905  -0.044   0.100   1.773
16555WAT      O49906   9.274   1.104   8.773
16555WAT     H149907   9.346   1.042   8.741
16555WAT     H249908   9.278   1.189   8.720
16556WAT      O49909   3.634   0.922   2.761
16556WAT     H149910   3.617   1.015   2.794
16556WAT     H249911   3.551   0.867   2.773
16557WAT      O49912   5.755   8.741   5.011
16557WAT     H149913   5.811   8.757   5.092
16557WAT     H249914   5.676   8.802   5.013
16558WAT      O49915   0.358   6.046   5.000
16558WAT     H149916   0.358   6.139   4.963
16558WAT     H249917   0.265   6.009   4.998
16559WAT      O49918   3.288   1.846   3.318
16559WAT     H149919   3.324   1.769   3.372
16559WAT     H249920   3.315   1.834   3.222
16560WAT      O49921   3.706   7.177   1.517
16560WAT     H149922   3.668   7.267   1.493
16560WAT     H249923   3.659   7.106   1.465
16561WAT      O49924   4.758   7.870   0.559
16561WAT     H149925   4.725   7.875   0.654
16561WAT     H249926   4.857   7.866   0.558
16562WAT      O49927   2.941   9.630   0.163
16562WAT     H149928   2.957   9.728   0.169
16562WAT     H249929   3.027   9.583   0.145
16563WAT      O49930   9.474   6.790   2.465
16563WAT     H149931   9.490   6.857   2.392
16563WAT     H249932   9.517   6.822   2.550
16564WAT      O49933   4.041   0.123   0.804
16564WAT     H149934   4.065   0.057   0.733
16564WAT     H249935   3.942   0.136   0.806
16565WAT      O49936   9.791   7.197   4.859
16565WAT     H149937   9.700   7.222   4.827
16565WAT     H249938   9.807   7.236   4.950
16566WAT      O49939   6.133   1.171   8.722
16566WAT     H149940   6.225   1.170   8.683
16566WAT     H249941   6.066   1.185   8.649
16567WAT      O49942   1.880   3.601   7.526
16567WAT     H149943   1.791   3.591   7.571
16567WAT     H249944   1.942   3.652   7.586
16568WAT      O49945   7.705   3.755   2.152
16568WAT     H149946   7.738   3.763   2.246
16568WAT     H249947   7.615   3.798   2.145
16569WAT      O49948   0.611   1.695   5.998
16569WAT     H149949   0.568   1.784   5.981
16569WAT     H249950   0.687   1.681   5.934
16570WAT      O49951   3.450   0.993   2.264
16570WAT     H149952   3.533   0.944   2.237
16570WAT     H249953   3.460   1.027   2.357
16571WAT      O49954   0.674   7.593   6.143
16571WAT     H149955   0.764   7.581   6.185
16571WAT     H249956   0.610   7.627   6.212
16572WAT      O49957   6.954   1.430   9.796
16572WAT     H149958   7.041   1.410   9.841
16572WAT     H249959   6.956   1.396   9.702
16573WAT      O49960   9.615   7.672   0.395
16573WAT     H149961   9.668   7.757   0.396
16573WAT     H249962   9.536   7.681   0.454
16574WAT      O49963   8.895   9.790   9.479
16574WAT     H149964   8.961   9.801   9.553
16574WAT     H249965   8.860   9.696   9.479
16575WAT      O49966   0.187   8.084   4.394
16575WAT     H149967   0.196   8.181   4.417
16575WAT     H249968   0.241   8.063   4.313
16576WAT      O49969   4.501   0.467   8.417
16576WAT     H149970   4.570   0.539   8.413
16576WAT     H249971   4.412   0.506   8.439
16577WAT      O49972   1.073   3.595   6.448
16577WAT     H149973   1.134   3.516   6.436
16577WAT     H249974   1.125   3.670   6.488
16578WAT      O49975   2.759   8.414   2.394
16578WAT     H149976   2.793   8.439   2.304
16578WAT     H249977   2.680   8.470   2.417
16579WAT      O49978   9.609   0.756   7.173
16579WAT     H149979   9.681   0.817   7.206
16579WAT     H249980   9.613   0.669   7.223
16580WAT      O49981   1.830   4.471   0.529
16580WAT     H149982   1.835   4.504   0.434
16580WAT     H249983   1.858   4.375   0.532
16581WAT      O49984   2.040   4.811   7.744
16581WAT     H149985   2.049   4.791   7.841
16581WAT     H249986   2.116   4.770   7.694
16582WAT      O49987   2.195   8.389   5.805
16582WAT     H149988   2.174   8.395   5.903
16582WAT     H249989   2.165   8.473   5.759
16583WAT      O49990   1.604   8.955   3.393
16583WAT     H149991   1.567   8.947   3.300
16583WAT     H249992   1.593   9.050   3.424
16584WAT      O49993   3.129   3.991   2.509
16584WAT     H149994   3.197   3.992   2.436
16584WAT     H249995   3.047   4.042   2.480
16585WAT      O49996   4.279   5.413   1.958
16585WAT     H149997   4.193   5.364   1.963
16585WAT     H249998   4.342   5.379   2.027
16586WAT      O49999   1.309   7.938   2.807
16586WAT     H150000   1.296   7.978   2.717
16586WAT     H250001   1.383   7.871   2.804
16587WAT      O50002   7.059   4.092   3.465
16587WAT     H150003   7.017   4.149   3.536
16587WAT     H250004   7.122   4.147   3.411
16588WAT      O50005   7.945   0.931   6.904
16588WAT     H150006   7.991   0.967   6.986
16588WAT     H250007   7.919   1.007   6.845
16589WAT      O50008   8.617   1.699   5.831
16589WAT     H150009   8.662   1.621   5.788
16589WAT     H250010   8.560   1.667   5.906
16590WAT      O50011   2.390   0.849   9.598
16590WAT     H150012   2.441   0.935   9.601
16590WAT     H250013   2.425   0.791   9.524
16591WAT      O50014   8.876   8.525   1.647
16591WAT     H150015   8.927   8.441   1.627
16591WAT     H250016   8.883   8.547   1.744
16592WAT      O50017   9.161   4.849   4.344
16592WAT     H150018   9.153   4.806   4.433
16592WAT     H250019   9.093   4.922   4.336
16593WAT      O50020   8.548   3.828   9.447
16593WAT     H150021   8.599   3.847   9.531
16593WAT     H250022   8.585   3.746   9.403
16594WAT      O50023   2.769   1.099   7.437
16594WAT     H150024   2.762   1.195   7.462
16594WAT     H250025   2.776   1.090   7.338
16595WAT      O50026   7.895   0.897   0.295
16595WAT     H150027   7.814   0.843   0.270
16595WAT     H250028   7.959   0.838   0.346
16596WAT      O50029   7.934   5.408   0.059
16596WAT     H150030   7.869   5.472   0.018
16596WAT     H250031   7.991   5.457   0.125
16597WAT      O50032   1.336   8.346   4.488
16597WAT     H150033   1.372   8.281   4.554
16597WAT     H250034   1.361   8.439   4.516
16598WAT      O50035   2.842   4.225   1.135
16598WAT     H150036   2.864   4.144   1.080
16598WAT     H250037   2.783   4.286   1.083
16599WAT      O50038   9.478   6.819   2.940
16599WAT     H150039   9.531   6.848   2.860
16599WAT     H250040   9.539   6.807   3.018
16600WAT      O50041   0.993   2.874   8.732
16600WAT     H150042   1.004   2.869   8.831
16600WAT     H250043   0.898   2.859   8.707
16601WAT      O50044   5.721   0.172   8.137
16601WAT     H150045   5.762   0.142   8.051
16601WAT     H250046   5.657   0.103   8.170
16602WAT      O50047   6.850   4.426   5.316
16602WAT     H150048   6.812   4.341   5.353
16602WAT     H250049   6.811   4.444   5.226
16603WAT      O50050   0.255   2.477   1.995
16603WAT     H150051   0.183   2.491   2.063
16603WAT     H250052   0.262   2.557   1.936
16604WAT      O50053   6.668   0.250   4.685
16604WAT     H150054   6.629   0.280   4.598
16604WAT     H250055   6.612   0.177   4.724
16605WAT      O50056   8.373   7.000   1.793
16605WAT     H150057   8.434   7.029   1.718
16605WAT     H250058   8.281   7.034   1.776
16606WAT      O50059   7.482   9.759   0.230
16606WAT     H150060   7.433   9.821   0.291
16606WAT     H250061   7.580   9.774   0.239
16607WAT      O50062   6.489   8.066   4.964
16607WAT     H150063   6.408   8.040   4.911
16607WAT     H250064   6.570   8.026   4.921
16608WAT      O50065   1.648   6.884   2.502
16608WAT     H150066   1.608   6.863   2.412
16608WAT     H250067   1.725   6.946   2.490
16609WAT      O50068   1.963   0.528   1.210
16609WAT     H150069   1.934   0.570   1.296
16609WAT     H250070   2.055   0.562   1.186
16610WAT      O50071   5.088   1.471   9.526
16610WAT     H150072   4.999   1.489   9.484
16610WAT     H250073   5.115   1.548   9.584
16611WAT      O50074   4.245   3.654   9.109
16611WAT     H150075   4.203   3.609   9.187
16611WAT     H250076   4.306   3.727   9.141
16612WAT      O50077   3.164   1.100   3.251
16612WAT     H150078   3.065   1.107   3.257
16612WAT     H250079   3.206   1.187   3.277
16613WAT      O50080   7.643   1.436   4.235
16613WAT     H150081   7.635   1.431   4.335
16613WAT     H250082   7.571   1.495   4.199
16614WAT      O50083   4.197   3.025   0.854
16614WAT     H150084   4.101   3.053   0.858
16614WAT     H250085   4.251   3.097   0.811
16615WAT      O50086   6.824   1.446   9.123
16615WAT     H150087   6.730   1.480   9.121
16615WAT     H250088   6.848   1.421   9.217
16616WAT      O50089   1.431   0.356   7.918
16616WAT     H150090   1.465   0.447   7.892
16616WAT     H250091   1.345   0.338   7.870
16617WAT      O50092   9.413   7.674   3.530
16617WAT     H150093   9.490   7.611   3.515
16617WAT     H250094   9.409   7.740   3.455
16618WAT      O50095   1.678   5.179   8.026
16618WAT     H150096   1.771   5.150   8.049
16618WAT     H250097   1.645   5.126   7.948
16619WAT      O50098   0.971   6.842   4.445
16619WAT     H150099   0.935   6.750   4.434
16619WAT     H250100   1.065   6.845   4.413
16620WAT      O50101   4.581   1.431   5.796
16620WAT     H150102   4.556   1.361   5.863
16620WAT     H250103   4.557   1.521   5.831
16621WAT      O50104   5.965   7.712   7.698
16621WAT     H150105   6.032   7.786   7.690
16621WAT     H250106   6.013   7.625   7.706
16622WAT      O50107   8.613   1.207   5.981
16622WAT     H150108   8.586   1.111   5.970
16622WAT     H250109   8.641   1.222   6.076
16623WAT      O50110   8.283   0.904   3.305
16623WAT     H150111   8.210   0.973   3.303
16623WAT     H250112   8.242   0.814   3.317
16624WAT      O50113   7.026   2.206   1.433
16624WAT     H150114   7.013   2.108   1.418
16624WAT     H250115   7.115   2.234   1.396
16625WAT      O50116   8.273   7.914   3.280
16625WAT     H150117   8.186   7.941   3.240
16625WAT     H250118   8.258   7.880   3.373
16626WAT      O50119   2.777   4.246   4.032
16626WAT     H150120   2.840   4.299   3.976
16626WAT     H250121   2.753   4.298   4.114
16627WAT      O50122   2.220   3.507   7.979
16627WAT     H150123   2.131   3.548   8.002
16627WAT     H250124   2.274   3.497   8.062
16628WAT      O50125   3.834   2.125   3.106
16628WAT     H150126   3.756   2.173   3.147
16628WAT     H250127   3.885   2.187   3.047
16629WAT      O50128   8.236   2.687   8.403
16629WAT     H150129   8.310   2.751   8.424
16629WAT     H250130   8.171   2.731   8.340
16630WAT      O50131   3.438   7.589   9.102
16630WAT     H150132   3.508   7.540   9.153
16630WAT     H250133   3.479   7.665   9.052
16631WAT      O50134   5.669   7.754   6.386
16631WAT     H150135   5.716   7.841   6.401
16631WAT     H250136   5.669   7.701   6.471
16632WAT      O50137   9.517   3.838   9.601
16632WAT     H150138   9.566   3.753   9.584
16632WAT     H250139   9.430   3.818   9.646
16633WAT      O50140   3.321   0.085   3.338
16633WAT     H150141   3.311  -0.015   3.342
16633WAT     H250142   3.397   0.108   3.277
16634WAT      O50143   7.653   9.382   8.037
16634WAT     H150144   7.682   9.471   8.071
16634WAT     H250145   7.713   9.354   7.962
16635WAT      O50146   7.225   1.311   0.647
16635WAT     H150147   7.184   1.238   0.592
16635WAT     H250148   7.156   1.349   0.709
16636WAT      O50149   3.907   5.419   4.745
16636WAT     H150150   3.859   5.359   4.810
16636WAT     H250151   3.894   5.514   4.772
16637WAT      O50152   2.041   4.620   1.832
16637WAT     H150153   1.996   4.676   1.763
16637WAT     H250154   2.002   4.639   1.922
16638WAT      O50155   9.020   4.251   9.687
16638WAT     H150156   8.933   4.296   9.708
16638WAT     H250157   9.075   4.245   9.770
16639WAT      O50158   8.665   8.366   3.474
16639WAT     H150159   8.730   8.380   3.400
16639WAT     H250160   8.663   8.447   3.533
16640WAT      O50161   6.264   8.078   0.420
16640WAT     H150162   6.334   8.038   0.479
16640WAT     H250163   6.258   8.025   0.335
16641WAT      O50164   0.197   9.560   7.185
16641WAT     H150165   0.169   9.470   7.217
16641WAT     H250166   0.297   9.564   7.179
16642WAT      O50167   9.395   3.168   6.463
16642WAT     H150168   9.330   3.245   6.467
16642WAT     H250169   9.446   3.164   6.548
16643WAT      O50170   0.511   2.229   5.280
16643WAT     H150171   0.563   2.179   5.349
16643WAT     H250172   0.419   2.189   5.272
16644WAT      O50173   2.808   8.662   4.512
16644WAT     H150174   2.771   8.686   4.423
16644WAT     H250175   2.899   8.621   4.501
16645WAT      O50176   3.537   3.814   5.104
16645WAT     H150177   3.531   3.871   5.022
16645WAT     H250178   3.452   3.763   5.116
16646WAT      O50179   4.354   6.531   4.308
16646WAT     H150180   4.272   6.564   4.261
16646WAT     H250181   4.341   6.538   4.407
16647WAT      O50182   0.773   2.176   6.994
16647WAT     H150183   0.697   2.238   7.012
16647WAT     H250184   0.847   2.196   7.059
16648WAT      O50185   6.006   1.356   0.944
16648WAT     H150186   5.940   1.422   0.980
16648WAT     H250187   6.035   1.294   1.017
16649WAT      O50188   1.579   2.248   9.473
16649WAT     H150189   1.640   2.309   9.523
16649WAT     H250190   1.486   2.255   9.510
16650WAT      O50191   1.371   3.578   2.465
16650WAT     H150192   1.322   3.614   2.544
16650WAT     H250193   1.326   3.610   2.381
16651WAT      O50194   7.262   8.080   2.626
16651WAT     H150195   7.165   8.080   2.651
16651WAT     H250196   7.287   7.990   2.589
16652WAT      O50197   2.384   4.817   9.005
16652WAT     H150198   2.311   4.872   9.045
16652WAT     H250199   2.381   4.825   8.906
16653WAT      O50200   5.456   3.650   7.399
16653WAT     H150201   5.470   3.564   7.351
16653WAT     H250202   5.450   3.633   7.497
16654WAT      O50203   9.208   1.403   4.558
16654WAT     H150204   9.204   1.463   4.639
16654WAT     H250205   9.180   1.311   4.584
16655WAT      O50206   4.445   5.932   0.211
16655WAT     H150207   4.392   5.851   0.237
16655WAT     H250208   4.507   5.957   0.286
16656WAT      O50209   0.737   1.484   3.294
16656WAT     H150210   0.751   1.465   3.197
16656WAT     H250211   0.824   1.474   3.343
16657WAT      O50212   8.687   6.464   2.025
16657WAT     H150213   8.756   6.495   2.091
16657WAT     H250214   8.665   6.538   1.962
16658WAT      O50215   7.234   6.051   1.080
16658WAT     H150216   7.149   6.100   1.060
16658WAT     H250217   7.257   6.060   1.177
16659WAT      O50218   1.324   4.377   7.711
16659WAT     H150219   1.294   4.291   7.753
16659WAT     H250220   1.316   4.370   7.612
16660WAT      O50221   5.587   8.754   0.951
16660WAT     H150222   5.628   8.822   1.011
16660WAT     H250223   5.550   8.799   0.869
16661WAT      O50224   7.783   4.532   3.760
16661WAT     H150225   7.799   4.460   3.692
16661WAT     H250226   7.693   4.573   3.743
16662WAT      O50227   1.419   7.012   4.104
16662WAT     H150228   1.384   6.979   4.017
16662WAT     H250229   1.416   7.112   4.105
16663WAT      O50230   1.609   7.788   8.970
16663WAT     H150231   1.706   7.798   8.948
16663WAT     H250232   1.577   7.700   8.936
16664WAT      O50233   7.075   0.776   9.466
16664WAT     H150234   7.020   0.857   9.486
16664WAT     H250235   7.171   0.800   9.460
16665WAT      O50236   8.750   0.655   2.511
16665WAT     H150237   8.797   0.616   2.433
16665WAT     H250238   8.662   0.609   2.524
16666WAT      O50239   4.724   9.224   7.353
16666WAT     H150240   4.626   9.207   7.363
16666WAT     H250241   4.744   9.251   7.259
16667WAT      O50242   3.205   7.674   6.792
16667WAT     H150243   3.209   7.576   6.808
16667WAT     H250244   3.146   7.693   6.714
16668WAT      O50245   8.790   7.244   3.834
16668WAT     H150246   8.844   7.171   3.877
16668WAT     H250247   8.844   7.288   3.763
16669WAT      O50248   8.652   8.636   0.841
16669WAT     H150249   8.623   8.670   0.930
16669WAT     H250250   8.752   8.629   0.840
16670WAT      O50251   2.210   9.767   1.869
16670WAT     H150252   2.169   9.685   1.909
16670WAT     H250253   2.150   9.802   1.796
16671WAT      O50254   5.340   4.231   7.455
16671WAT     H150255   5.373   4.137   7.443
16671WAT     H250256   5.408   4.295   7.421
16672WAT      O50257   6.129   7.971   7.694
16672WAT     H150258   6.201   7.933   7.636
16672WAT     H250259   6.068   8.027   7.638
16673WAT      O50260   8.479   4.734   1.214
16673WAT     H150261   8.470   4.796   1.291
16673WAT     H250262   8.576   4.717   1.194
16674WAT      O50263   9.728   1.935   9.213
16674WAT     H150264   9.775   1.850   9.191
16674WAT     H250265   9.630   1.923   9.198
16675WAT      O50266   9.693   4.615   8.715
16675WAT     H150267   9.667   4.709   8.697
16675WAT     H250268   9.690   4.562   8.630
16676WAT      O50269   8.524   6.246   5.640
16676WAT     H150270   8.595   6.296   5.591
16676WAT     H250271   8.459   6.209   5.574
16677WAT      O50272   3.202   3.665   8.548
16677WAT     H150273   3.143   3.705   8.619
16677WAT     H250274   3.186   3.712   8.462
16678WAT      O50275   0.488   7.302   4.825
16678WAT     H150276   0.530   7.374   4.770
16678WAT     H250277   0.552   7.226   4.837
16679WAT      O50278   1.884   4.443   3.310
16679WAT     H150279   1.926   4.366   3.262
16679WAT     H250280   1.878   4.522   3.249
16680WAT      O50281   7.291   1.175   2.080
16680WAT     H150282   7.299   1.161   1.981
16680WAT     H250283   7.308   1.271   2.101
16681WAT      O50284   4.567   3.686   0.456
16681WAT     H150285   4.510   3.662   0.534
16681WAT     H250286   4.636   3.752   0.486
16682WAT      O50287   0.939   0.851   7.450
16682WAT     H150288   0.978   0.944   7.453
16682WAT     H250289   0.915   0.828   7.356
16683WAT      O50290   0.823   2.998   8.344
16683WAT     H150291   0.837   3.065   8.417
16683WAT     H250292   0.905   2.994   8.286
16684WAT      O50293   3.677   3.508   0.694
16684WAT     H150294   3.605   3.526   0.761
16684WAT     H250295   3.659   3.559   0.611
16685WAT      O50296   6.073   6.604   1.103
16685WAT     H150297   5.976   6.615   1.083
16685WAT     H250298   6.087   6.520   1.156
16686WAT      O50299   0.208   2.220   1.966
16686WAT     H150300   0.146   2.186   1.896
16686WAT     H250301   0.237   2.313   1.943
16687WAT      O50302   3.171   8.762   0.363
16687WAT     H150303   3.081   8.739   0.401
16687WAT     H250304   3.241   8.753   0.434
16688WAT      O50305   0.407   1.742   4.281
16688WAT     H150306   0.471   1.717   4.353
16688WAT     H250307   0.457   1.766   4.198
16689WAT      O50308   5.281   0.673   5.593
16689WAT     H150309   5.208   0.620   5.635
16689WAT     H250310   5.350   0.695   5.663
16690WAT      O50311   3.411   3.749   2.444
16690WAT     H150312   3.352   3.695   2.504
16690WAT     H250313   3.495   3.699   2.425
16691WAT      O50314   1.215   1.449   7.689
16691WAT     H150315   1.233   1.355   7.718
16691WAT     H250316   1.208   1.508   7.770
16692WAT      O50317   7.431   7.894   0.425
16692WAT     H150318   7.501   7.955   0.389
16692WAT     H250319   7.456   7.799   0.406
16693WAT      O50320   2.015   1.548   9.095
16693WAT     H150321   1.994   1.495   9.012
16693WAT     H250322   1.947   1.529   9.165
16694WAT      O50323   9.464   3.777   2.727
16694WAT     H150324   9.473   3.850   2.795
16694WAT     H250325   9.554   3.755   2.690
16695WAT      O50326   9.285   0.171   9.868
16695WAT     H150327   9.375   0.164   9.824
16695WAT     H250328   9.214   0.150   9.801
16696WAT      O50329   6.030   2.606   0.854
16696WAT     H150330   6.007   2.621   0.758
16696WAT     H250331   6.122   2.568   0.861
16697WAT      O50332   3.822   7.767   1.482
16697WAT     H150333   3.824   7.817   1.395
16697WAT     H250334   3.859   7.826   1.554
16698WAT      O50335   0.176   0.928   5.126
16698WAT     H150336   0.270   0.947   5.099
16698WAT     H250337   0.114   0.948   5.050
16699WAT      O50338   8.678   7.091   5.269
16699WAT     H150339   8.686   7.000   5.229
16699WAT     H250340   8.760   7.144   5.249
16700WAT      O50341   8.929   8.029   7.669
16700WAT     H150342   8.935   8.125   7.642
16700WAT     H250343   9.020   7.987   7.661
16701WAT      O50344   5.357   1.993   1.513
16701WAT     H150345   5.292   1.918   1.502
16701WAT     H250346   5.306   2.079   1.525
16702WAT      O50347   6.443   7.321   3.256
16702WAT     H150348   6.435   7.233   3.302
16702WAT     H250349   6.462   7.392   3.324
16703WAT      O50350   4.140   5.236   2.473
16703WAT     H150351   4.126   5.303   2.401
16703WAT     H250352   4.078   5.158   2.459
16704WAT      O50353   4.510   0.206   6.413
16704WAT     H150354   4.450   0.157   6.349
16704WAT     H250355   4.546   0.288   6.368
16705WAT      O50356   1.039   1.371   0.884
16705WAT     H150357   0.962   1.361   0.821
16705WAT     H250358   1.124   1.380   0.832
16706WAT      O50359   7.114   5.752   0.123
16706WAT     H150360   7.198   5.702   0.144
16706WAT     H250361   7.100   5.756   0.024
16707WAT      O50362   1.245   4.534   1.458
16707WAT     H150363   1.158   4.574   1.430
16707WAT     H250364   1.260   4.448   1.409
16708WAT      O50365   9.236   9.595   0.026
16708WAT     H150366   9.263   9.651   0.104
16708WAT     H250367   9.257   9.499   0.046
16709WAT      O50368   3.790   9.213   7.631
16709WAT     H150369   3.848   9.171   7.561
16709WAT     H250370   3.713   9.153   7.651
16710WAT      O50371   5.148   0.104   3.519
16710WAT     H150372   5.145   0.203   3.531
16710WAT     H250373   5.094   0.059   3.590
16711WAT      O50374   2.137   9.515   8.533
16711WAT     H150375   2.115   9.449   8.461
16711WAT     H250376   2.162   9.467   8.617
16712WAT      O50377   2.475   9.778   3.899
16712WAT     H150378   2.451   9.838   3.823
16712WAT     H250379   2.398   9.771   3.962
16713WAT      O50380   4.414   6.136   7.237
16713WAT     H150381   4.467   6.220   7.251
16713WAT     H250382   4.398   6.123   7.140
16714WAT      O50383   6.823   8.533   5.792
16714WAT     H150384   6.767   8.505   5.714
16714WAT     H250385   6.875   8.615   5.768
16715WAT      O50386   7.120   3.101   4.390
16715WAT     H150387   7.134   3.067   4.297
16715WAT     H250388   7.180   3.053   4.453
16716WAT      O50389   7.189   9.706   0.505
16716WAT     H150390   7.223   9.717   0.599
16716WAT     H250391   7.188   9.608   0.482
16717WAT      O50392   8.467   6.107   1.965
16717WAT     H150393   8.402   6.162   1.913
16717WAT     H250394   8.520   6.166   2.025
16718WAT      O50395   7.352   2.375   1.127
16718WAT     H150396   7.338   2.460   1.178
16718WAT     H250397   7.270   2.354   1.074
16719WAT      O50398   0.254   2.468   5.367
16719WAT     H150399   0.290   2.495   5.278
16719WAT     H250400   0.158   2.440   5.357
16720WAT      O50401   7.782   7.038   8.835
16720WAT     H150402   7.842   6.959   8.850
16720WAT     H250403   7.778   7.092   8.919
16721WAT      O50404   4.972   9.450   2.636
16721WAT     H150405   4.916   9.388   2.691
16721WAT     H250406   4.912   9.512   2.584
16722WAT      O50407   9.732   2.900   1.552
16722WAT     H150408   9.810   2.915   1.492
16722WAT     H250409   9.678   2.984   1.559
16723WAT      O50410   8.563   2.501   3.540
16723WAT     H150411   8.509   2.525   3.620
16723WAT     H250412   8.506   2.453   3.474
16724WAT      O50413   4.578   6.418   6.167
16724WAT     H150414   4.634   6.492   6.132
16724WAT     H250415   4.525   6.451   6.245
16725WAT      O50416   0.013   4.499   1.343
16725WAT     H150417   0.084   4.429   1.352
16725WAT     H250418  -0.057   4.484   1.413
16726WAT      O50419   8.498   4.001   1.363
16726WAT     H150420   8.455   3.992   1.454
16726WAT     H250421   8.431   4.038   1.299
16727WAT      O50422   5.617   9.047   7.528
16727WAT     H150423   5.589   9.006   7.441
16727WAT     H250424   5.709   9.084   7.520
16728WAT      O50425   9.067   5.434   3.805
16728WAT     H150426   9.089   5.499   3.878
16728WAT     H250427   8.970   5.438   3.784
16729WAT      O50428   8.742   9.831   1.834
16729WAT     H150429   8.789   9.763   1.777
16729WAT     H250430   8.652   9.850   1.795
16730WAT      O50431   9.846   3.292   0.555
16730WAT     H150432   9.877   3.201   0.529
16730WAT     H250433   9.923   3.357   0.550
16731WAT      O50434   8.307   1.142   9.154
16731WAT     H150435   8.341   1.234   9.171
16731WAT     H250436   8.363   1.097   9.084
16732WAT      O50437   3.735   4.185   5.135
16732WAT     H150438   3.782   4.130   5.066
16732WAT     H250439   3.751   4.145   5.226
16733WAT      O50440   9.611   0.276   8.025
16733WAT     H150441   9.579   0.195   7.976
16733WAT     H250442   9.634   0.250   8.119
16734WAT      O50443   1.626   4.700   8.038
16734WAT     H150444   1.697   4.718   7.969
16734WAT     H250445   1.663   4.717   8.129
16735WAT      O50446   7.728   6.971   2.395
16735WAT     H150447   7.631   6.951   2.378
16735WAT     H250448   7.781   6.888   2.383
16736WAT      O50449   5.389   2.708   5.091
16736WAT     H150450   5.423   2.717   4.998
16736WAT     H250451   5.424   2.623   5.131
16737WAT      O50452   5.252   4.095   0.534
16737WAT     H150453   5.350   4.107   0.549
16737WAT     H250454   5.214   4.178   0.494
16738WAT      O50455   2.300   5.691   1.843
16738WAT     H150456   2.322   5.785   1.817
16738WAT     H250457   2.312   5.680   1.942
16739WAT      O50458   9.752   7.155   8.700
16739WAT     H150459   9.655   7.144   8.680
16739WAT     H250460   9.792   7.065   8.720
16740WAT      O50461   5.445   0.531   8.610
16740WAT     H150462   5.350   0.551   8.587
16740WAT     H250463   5.479   0.459   8.550
16741WAT      O50464   6.326   7.287   9.735
16741WAT     H150465   6.322   7.387   9.736
16741WAT     H250466   6.233   7.251   9.744
16742WAT      O50467   3.746   6.929   2.392
16742WAT     H150468   3.741   6.943   2.294
16742WAT     H250469   3.654   6.938   2.432
16743WAT      O50470   0.144   7.867   2.854
16743WAT     H150471   0.229   7.833   2.812
16743WAT     H250472   0.067   7.816   2.817
16744WAT      O50473   5.041   8.191   9.791
16744WAT     H150474   5.058   8.266   9.854
16744WAT     H250475   5.057   8.222   9.697
16745WAT      O50476   5.739   2.553   6.478
16745WAT     H150477   5.787   2.543   6.565
16745WAT     H250478   5.754   2.471   6.422
16746WAT      O50479   8.822   2.238   1.100
16746WAT     H150480   8.780   2.186   1.026
16746WAT     H250481   8.793   2.333   1.095
16747WAT      O50482   3.232   1.643   8.500
16747WAT     H150483   3.212   1.736   8.531
16747WAT     H250484   3.191   1.577   8.563
16748WAT      O50485   6.083   4.896   6.800
16748WAT     H150486   6.086   4.973   6.864
16748WAT     H250487   6.077   4.811   6.852
16749WAT      O50488   1.211   4.740   2.180
16749WAT     H150489   1.191   4.657   2.234
16749WAT     H250490   1.146   4.746   2.104
16750WAT      O50491   8.877   4.170   5.258
16750WAT     H150492   8.874   4.238   5.331
16750WAT     H250493   8.877   4.217   5.169
16751WAT      O50494   1.773   5.381   6.168
16751WAT     H150495   1.845   5.330   6.216
16751WAT     H250496   1.783   5.368   6.069
16752WAT      O50497   8.175   5.881   1.045
16752WAT     H150498   8.102   5.889   0.977
16752WAT     H250499   8.188   5.968   1.091
16753WAT      O50500   3.003   6.006   5.426
16753WAT     H150501   3.026   5.932   5.490
16753WAT     H250502   2.957   5.967   5.346
16754WAT      O50503   4.544   0.092   0.079
16754WAT     H150504   4.617   0.024   0.069
16754WAT     H250505   4.497   0.077   0.167
16755WAT      O50506   6.535   0.831   6.881
16755WAT     H150507   6.597   0.754   6.863
16755WAT     H250508   6.512   0.875   6.794
16756WAT      O50509   2.747   8.141   3.468
16756WAT     H150510   2.683   8.206   3.509
16756WAT     H250511   2.812   8.190   3.410
16757WAT      O50512   8.796   0.977   7.844
16757WAT     H150513   8.779   0.979   7.746
16757WAT     H250514   8.852   0.897   7.867
16758WAT      O50515   8.615   2.127   4.401
16758WAT     H150516   8.616   2.089   4.309
16758WAT     H250517   8.522   2.155   4.425
16759WAT      O50518   1.877   7.285   1.464
16759WAT     H150519   1.860   7.335   1.549
16759WAT     H250520   1.942   7.337   1.408
16760WAT      O50521   1.095   2.573   8.812
16760WAT     H150522   1.081   2.494   8.872
16760WAT     H250523   1.020   2.638   8.825
16761WAT      O50524   3.552   6.670   3.532
16761WAT     H150525   3.637   6.651   3.581
16761WAT     H250526   3.500   6.586   3.520
16762WAT      O50527   4.380   0.262   6.018
16762WAT     H150528   4.367   0.347   6.069
16762WAT     H250529   4.476   0.255   5.991
16763WAT      O50530   8.886   7.980   6.526
16763WAT     H150531   8.796   8.023   6.516
16763WAT     H250532   8.957   8.049   6.511
16764WAT      O50533   6.110   3.769   2.028
16764WAT     H150534   6.167   3.821   1.964
16764WAT     H250535   6.028   3.736   1.979
16765WAT      O50536   2.452   0.287   5.392
16765WAT     H150537   2.544   0.320   5.413
16765WAT     H250538   2.411   0.344   5.322
16766WAT      O50539   0.592   8.524   5.400
16766WAT     H150540   0.639   8.602   5.441
16766WAT     H250541   0.590   8.448   5.466
16767WAT      O50542   2.413   0.457   1.791
16767WAT     H150543   2.378   0.386   1.730
16767WAT     H250544   2.398   0.547   1.750
16768WAT      O50545   8.745   6.060   1.504
16768WAT     H150546   8.776   6.153   1.488
16768WAT     H250547   8.734   6.045   1.602
16769WAT      O50548   6.737   4.544   4.570
16769WAT     H150549   6.717   4.621   4.630
16769WAT     H250550   6.653   4.494   4.550
16770WAT      O50551   6.743   7.862   6.713
16770WAT     H150552   6.660   7.915   6.698
16770WAT     H250553   6.718   7.767   6.734
16771WAT      O50554   5.094   7.888   1.502
16771WAT     H150555   5.181   7.909   1.458
16771WAT     H250556   5.101   7.801   1.550
16772WAT      O50557   5.506   2.992   7.260
16772WAT     H150558   5.530   2.897   7.242
16772WAT     H250559   5.461   2.999   7.349
16773WAT      O50560   7.587   7.403   2.378
16773WAT     H150561   7.530   7.355   2.312
16773WAT     H250562   7.582   7.358   2.467
16774WAT      O50563   6.985   9.491   1.873
16774WAT     H150564   6.999   9.520   1.778
16774WAT     H250565   7.061   9.525   1.929
16775WAT      O50566   8.695   7.882   7.718
16775WAT     H150567   8.775   7.941   7.707
16775WAT     H250568   8.670   7.843   7.629
16776WAT      O50569   9.463   9.267   6.288
16776WAT     H150570   9.436   9.305   6.376
16776WAT     H250571   9.527   9.329   6.243
16777WAT      O50572   4.166   2.215   9.691
16777WAT     H150573   4.195   2.172   9.776
16777WAT     H250574   4.172   2.149   9.616
16778WAT      O50575   9.348   6.862   9.646
16778WAT     H150576   9.358   6.884   9.549
16778WAT     H250577   9.368   6.765   9.660
16779WAT      O50578   4.078   3.249   8.744
16779WAT     H150579   4.074   3.331   8.688
16779WAT     H250580   3.991   3.199   8.737
16780WAT      O50581   0.942   7.275   7.086
16780WAT     H150582   0.842   7.271   7.096
16780WAT     H250583   0.984   7.270   7.176
16781WAT      O50584   9.637   6.351   4.302
16781WAT     H150585   9.691   6.413   4.358
16781WAT     H250586   9.601   6.400   4.222
16782WAT      O50587   5.139   9.666   1.684
16782WAT     H150588   5.158   9.580   1.637
16782WAT     H250589   5.115   9.736   1.616
16783WAT      O50590   8.089   9.360   6.453
16783WAT     H150591   8.162   9.416   6.492
16783WAT     H250592   8.065   9.286   6.517
16784WAT      O50593   0.727   8.811   6.894
16784WAT     H150594   0.727   8.804   6.794
16784WAT     H250595   0.633   8.805   6.928
16785WAT      O50596   0.219   3.513   6.568
16785WAT     H150597   0.230   3.613   6.571
16785WAT     H250598   0.266   3.473   6.646
16786WAT      O50599   7.492   0.664   1.916
16786WAT     H150600   7.394   0.676   1.903
16786WAT     H250601   7.537   0.665   1.826
16787WAT      O50602   2.837   5.161   8.166
16787WAT     H150603   2.784   5.236   8.127
16787WAT     H250604   2.884   5.112   8.092
16788WAT      O50605   6.911   4.854   8.624
16788WAT     H150606   6.862   4.821   8.544
16788WAT     H250607   6.903   4.954   8.630
16789WAT      O50608   7.122   9.283   7.021
16789WAT     H150609   7.211   9.272   7.065
16789WAT     H250610   7.111   9.214   6.949
16790WAT      O50611   4.179   9.749   6.452
16790WAT     H150612   4.197   9.813   6.377
16790WAT     H250613   4.266   9.722   6.493
16791WAT      O50614   5.862   4.206   0.745
16791WAT     H150615   5.817   4.276   0.799
16791WAT     H250616   5.871   4.238   0.650
16792WAT      O50617   1.447   2.110   8.149
16792WAT     H150618   1.495   2.046   8.209
16792WAT     H250619   1.348   2.097   8.158
16793WAT      O50620   3.046   8.667   7.608
16793WAT     H150621   3.010   8.576   7.585
16793WAT     H250622   3.035   8.683   7.706
16794WAT      O50623   5.216   0.346   4.023
16794WAT     H150624   5.260   0.354   3.933
16794WAT     H250625   5.121   0.375   4.016
16795WAT      O50626   6.364   3.359   8.459
16795WAT     H150627   6.286   3.338   8.518
16795WAT     H250628   6.332   3.378   8.366
16796WAT      O50629   8.006   8.703   7.550
16796WAT     H150630   8.097   8.716   7.511
16796WAT     H250631   7.994   8.765   7.627
16797WAT      O50632   7.247   8.763   3.093
16797WAT     H150633   7.241   8.836   3.024
16797WAT     H250634   7.279   8.802   3.179
16798WAT      O50635   7.091   7.675   6.873
16798WAT     H150636   7.044   7.760   6.894
16798WAT     H250637   7.190   7.687   6.885
16799WAT      O50638   4.963   8.834   9.149
16799WAT     H150639   4.867   8.848   9.172
16799WAT     H250640   5.014   8.807   9.231
16800WAT      O50641   7.831   7.506   7.694
16800WAT     H150642   7.759   7.485   7.760
16800WAT     H250643   7.842   7.605   7.686
16801WAT      O50644   6.399   5.522   0.334
16801WAT     H150645   6.497   5.508   0.325
16801WAT     H250646   6.373   5.516   0.431
16802WAT      O50647   3.124   8.049   5.063
16802WAT     H150648   3.072   8.054   5.149
16802WAT     H250649   3.156   8.140   5.038
16803WAT      O50650   6.629   9.312   0.083
16803WAT     H150651   6.625   9.225   0.132
16803WAT     H250652   6.589   9.300  -0.008
16804WAT      O50653   9.494   9.332   1.774
16804WAT     H150654   9.589   9.302   1.785
16804WAT     H250655   9.471   9.396   1.846
16805WAT      O50656   2.903   0.601   3.553
16805WAT     H150657   2.827   0.630   3.612
16805WAT     H250658   2.960   0.679   3.531
16806WAT      O50659   1.417   7.463   8.436
16806WAT     H150660   1.330   7.434   8.475
16806WAT     H250661   1.446   7.549   8.478
16807WAT      O50662   6.024   0.797   2.639
16807WAT     H150663   5.964   0.780   2.560
16807WAT     H250664   6.088   0.722   2.649
16808WAT      O50665   5.940   1.187   7.620
16808WAT     H150666   5.859   1.230   7.660
16808WAT     H250667   6.015   1.253   7.615
16809WAT      O50668   1.052   3.306   1.763
16809WAT     H150669   1.014   3.397   1.774
16809WAT     H250670   1.065   3.264   1.854
16810WAT      O50671   3.276   1.025   6.172
16810WAT     H150672   3.264   1.124   6.166
16810WAT     H250673   3.294   0.988   6.080
16811WAT      O50674   6.879   4.399   8.521
16811WAT     H150675   6.974   4.376   8.541
16811WAT     H250676   6.824   4.390   8.604
16812WAT      O50677   0.861   6.510   8.916
16812WAT     H150678   0.865   6.540   8.821
16812WAT     H250679   0.909   6.576   8.974
16813WAT      O50680   6.755   3.858   1.208
16813WAT     H150681   6.854   3.874   1.197
16813WAT     H250682   6.740   3.794   1.283
16814WAT      O50683   5.688   6.832   8.595
16814WAT     H150684   5.750   6.910   8.589
16814WAT     H250685   5.603   6.861   8.640
16815WAT      O50686   3.797   0.322   7.754
16815WAT     H150687   3.893   0.311   7.778
16815WAT     H250688   3.789   0.348   7.658
16816WAT      O50689   2.036   3.994   5.465
16816WAT     H150690   2.078   4.014   5.376
16816WAT     H250691   2.108   3.973   5.531
16817WAT      O50692   0.042   6.354   5.682
16817WAT     H150693  -0.011   6.404   5.751
16817WAT     H250694   0.049   6.410   5.599
16818WAT      O50695   3.756   2.251   7.936
16818WAT     H150696   3.687   2.194   7.983
16818WAT     H250697   3.831   2.193   7.906
16819WAT      O50698   5.948   2.489   1.735
16819WAT     H150699   5.916   2.508   1.828
16819WAT     H250700   6.031   2.434   1.738
16820WAT      O50701   4.285   7.306   1.876
16820WAT     H150702   4.246   7.398   1.879
16820WAT     H250703   4.230   7.245   1.933
16821WAT      O50704   4.996   1.478   1.452
16821WAT     H150705   5.083   1.462   1.406
16821WAT     H250706   4.930   1.408   1.424
16822WAT      O50707   8.794   1.855   1.868
16822WAT     H150708   8.700   1.824   1.863
16822WAT     H250709   8.803   1.926   1.938
16823WAT      O50710   9.304   0.793   2.623
16823WAT     H150711   9.378   0.860   2.615
16823WAT     H250712   9.218   0.841   2.645
16824WAT      O50713   1.203   2.085   7.697
16824WAT     H150714   1.158   2.098   7.786
16824WAT     H250715   1.191   1.991   7.667
16825WAT      O50716   2.425   1.148   9.383
16825WAT     H150717   2.488   1.118   9.311
16825WAT     H250718   2.460   1.118   9.472
16826WAT      O50719   3.006   5.815   7.672
16826WAT     H150720   2.971   5.841   7.762
16826WAT     H250721   3.038   5.896   7.623
16827WAT      O50722   4.443   9.189   7.418
16827WAT     H150723   4.406   9.244   7.342
16827WAT     H250724   4.417   9.231   7.505
16828WAT      O50725   6.976   0.928   2.670
16828WAT     H150726   7.075   0.933   2.686
16828WAT     H250727   6.949   0.833   2.657
16829WAT      O50728   3.467   7.322   6.996
16829WAT     H150729   3.380   7.364   6.968
16829WAT     H250730   3.477   7.234   6.950
16830WAT      O50731   4.593   0.682   3.168
16830WAT     H150732   4.631   0.670   3.260
16830WAT     H250733   4.493   0.681   3.174
16831WAT      O50734   4.580   0.085   6.634
16831WAT     H150735   4.544   0.132   6.553
16831WAT     H250736   4.678   0.070   6.622
16832WAT      O50737   9.443   3.765   8.556
16832WAT     H150738   9.536   3.795   8.535
16832WAT     H250739   9.417   3.691   8.494
16833WAT      O50740   8.894   5.860   2.204
16833WAT     H150741   8.896   5.808   2.289
16833WAT     H250742   8.921   5.954   2.222
16834WAT      O50743   9.279   4.782   7.173
16834WAT     H150744   9.238   4.872   7.162
16834WAT     H250745   9.377   4.791   7.187
16835WAT      O50746   7.007   3.639   3.169
16835WAT     H150747   7.091   3.597   3.134
16835WAT     H250748   7.027   3.733   3.198
16836WAT      O50749   5.016   2.648   2.484
16836WAT     H150750   4.984   2.591   2.560
16836WAT     H250751   4.952   2.639   2.407
16837WAT      O50752   2.035   1.678   1.268
16837WAT     H150753   2.096   1.618   1.216
16837WAT     H250754   1.961   1.623   1.308
16838WAT      O50755   0.866   5.207   9.687
16838WAT     H150756   0.797   5.155   9.737
16838WAT     H250757   0.825   5.291   9.652
16839WAT      O50758   8.316   1.409   8.878
16839WAT     H150759   8.368   1.373   8.800
16839WAT     H250760   8.298   1.506   8.863
16840WAT      O50761   1.902   3.052   9.631
16840WAT     H150762   1.945   3.140   9.607
16840WAT     H250763   1.814   3.044   9.583
16841WAT      O50764   1.539   2.963   0.083
16841WAT     H150765   1.606   3.028   0.047
16841WAT     H250766   1.552   2.953   0.182
16842WAT      O50767   9.675   5.531   7.348
16842WAT     H150768   9.731   5.479   7.284
16842WAT     H250769   9.598   5.474   7.378
16843WAT      O50770   2.721   6.035   7.003
16843WAT     H150771   2.712   6.101   6.928
16843WAT     H250772   2.638   6.036   7.059
16844WAT      O50773   2.196   3.600   2.343
16844WAT     H150774   2.180   3.544   2.261
16844WAT     H250775   2.133   3.678   2.342
16845WAT      O50776   8.248   8.265   2.729
16845WAT     H150777   8.217   8.182   2.776
16845WAT     H250778   8.177   8.334   2.734
16846WAT      O50779   0.213   1.434   6.784
16846WAT     H150780   0.293   1.445   6.726
16846WAT     H250781   0.157   1.359   6.749
16847WAT      O50782   7.621   3.115   2.959
16847WAT     H150783   7.532   3.127   2.916
16847WAT     H250784   7.686   3.079   2.893
16848WAT      O50785   7.522   9.575   9.677
16848WAT     H150786   7.514   9.482   9.713
16848WAT     H250787   7.434   9.622   9.686
16849WAT      O50788   2.192   1.798   0.002
16849WAT     H150789   2.204   1.897  -0.006
16849WAT     H250790   2.183   1.773   0.098
16850WAT      O50791   7.982   5.895   0.864
16850WAT     H150792   8.011   5.950   0.786
16850WAT     H250793   7.933   5.814   0.830
16851WAT      O50794   2.892   3.733   9.664
16851WAT     H150795   2.889   3.771   9.757
16851WAT     H250796   2.950   3.790   9.606
16852WAT      O50797   0.887   4.092   4.005
16852WAT     H150798   0.985   4.077   3.998
16852WAT     H250799   0.842   4.008   4.036
16853WAT      O50800   4.550   3.926   6.450
16853WAT     H150801   4.633   3.877   6.476
16853WAT     H250802   4.574   4.018   6.419
16854WAT      O50803   3.766   0.406   5.351
16854WAT     H150804   3.797   0.363   5.266
16854WAT     H250805   3.705   0.482   5.329
16855WAT      O50806   3.564   7.332   0.037
16855WAT     H150807   3.560   7.244   0.084
16855WAT     H250808   3.562   7.317  -0.062
16856WAT      O50809   4.237   0.213   8.068
16856WAT     H150810   4.208   0.156   7.992
16856WAT     H250811   4.330   0.188   8.095
16857WAT      O50812   4.198   6.307   6.677
16857WAT     H150813   4.110   6.349   6.695
16857WAT     H250814   4.250   6.299   6.762
16858WAT      O50815   6.945   6.951   6.721
16858WAT     H150816   6.972   7.043   6.747
16858WAT     H250817   6.906   6.904   6.801
16859WAT      O50818   7.152   2.496   9.030
16859WAT     H150819   7.160   2.580   9.084
16859WAT     H250820   7.090   2.512   8.954
16860WAT      O50821   2.721   1.030   5.705
16860WAT     H150822   2.818   1.037   5.682
16860WAT     H250823   2.710   0.970   5.784
16861WAT      O50824   1.524   6.825   3.762
16861WAT     H150825   1.573   6.833   3.675
16861WAT     H250826   1.585   6.851   3.837
16862WAT      O50827   1.206   8.934   7.057
16862WAT     H150828   1.113   8.935   7.019
16862WAT     H250829   1.206   8.883   7.143
16863WAT      O50830   3.526   4.664   8.611
16863WAT     H150831   3.431   4.677   8.639
16863WAT     H250832   3.534   4.578   8.560
16864WAT      O50833   7.990   2.389   7.963
16864WAT     H150834   7.919   2.338   7.914
16864WAT     H250835   8.013   2.341   8.048
16865WAT      O50836   1.324   2.928   3.775
16865WAT     H150837   1.391   2.994   3.809
16865WAT     H250838   1.360   2.835   3.786
16866WAT      O50839   3.995   8.286   2.534
16866WAT     H150840   3.993   8.244   2.625
16866WAT     H250841   4.048   8.371   2.538
16867WAT      O50842   7.457   2.558   0.059
16867WAT     H150843   7.385   2.568  -0.010
16867WAT     H250844   7.532   2.503   0.021
16868WAT      O50845   6.304   8.224   2.104
16868WAT     H150846   6.315   8.247   2.201
16868WAT     H250847   6.290   8.125   2.095
16869WAT      O50848   5.006   6.356   6.475
16869WAT     H150849   4.946   6.418   6.425
16869WAT     H250850   5.100   6.390   6.471
16870WAT      O50851   4.338   0.466   6.897
16870WAT     H150852   4.384   0.377   6.891
16870WAT     H250853   4.329   0.505   6.806
16871WAT      O50854   4.671   7.841   6.930
16871WAT     H150855   4.707   7.814   7.019
16871WAT     H250856   4.729   7.805   6.858
16872WAT      O50857   1.584   4.942   2.881
16872WAT     H150858   1.512   4.911   2.944
16872WAT     H250859   1.544   4.957   2.791
16873WAT      O50860   3.470   5.348   5.629
16873WAT     H150861   3.549   5.341   5.689
16873WAT     H250862   3.419   5.262   5.631
16874WAT      O50863   0.720   3.966   1.792
16874WAT     H150864   0.664   3.969   1.876
16874WAT     H250865   0.810   4.004   1.810
16875WAT      O50866   4.730   5.627   1.418
16875WAT     H150867   4.670   5.690   1.468
16875WAT     H250868   4.795   5.680   1.363
16876WAT      O50869   6.099   2.357   5.652
16876WAT     H150870   6.197   2.353   5.670
16876WAT     H250871   6.065   2.449   5.670
16877WAT      O50872   6.886   0.212   3.769
16877WAT     H150873   6.963   0.274   3.782
16877WAT     H250874   6.833   0.206   3.854
16878WAT      O50875   0.310   8.932   9.854
16878WAT     H150876   0.377   8.970   9.790
16878WAT     H250877   0.233   8.995   9.863
16879WAT      O50878   8.242   2.943   0.742
16879WAT     H150879   8.218   3.016   0.806
16879WAT     H250880   8.162   2.922   0.685
16880WAT      O50881   1.106   0.785   3.808
16880WAT     H150882   1.107   0.862   3.744
16880WAT     H250883   1.166   0.713   3.774
16881WAT      O50884   7.839   0.086   1.378
16881WAT     H150885   7.862   0.183   1.371
16881WAT     H250886   7.923   0.031   1.377
16882WAT      O50887   1.770   4.429   4.604
16882WAT     H150888   1.765   4.342   4.554
16882WAT     H250889   1.831   4.492   4.555
16883WAT      O50890   9.809   3.076   7.182
16883WAT     H150891   9.768   2.999   7.134
16883WAT     H250892   9.829   3.050   7.276
16884WAT      O50893   4.017   3.930   8.754
16884WAT     H150894   4.034   3.849   8.810
16884WAT     H250895   3.992   3.901   8.661
16885WAT      O50896   3.295   5.714   7.138
16885WAT     H150897   3.335   5.714   7.230
16885WAT     H250898   3.218   5.650   7.135
16886WAT      O50899   7.489   4.748   5.687
16886WAT     H150900   7.558   4.799   5.636
16886WAT     H250901   7.411   4.807   5.706
16887WAT      O50902   4.555   8.670   5.745
16887WAT     H150903   4.556   8.730   5.825
16887WAT     H250904   4.589   8.721   5.665
16888WAT      O50905   4.406   7.610   4.383
16888WAT     H150906   4.461   7.528   4.402
16888WAT     H250907   4.385   7.657   4.469
16889WAT      O50908   1.461   4.407   1.207
16889WAT     H150909   1.440   4.337   1.139
16889WAT     H250910   1.555   4.395   1.239
16890WAT      O50911   2.821   6.033   4.035
16890WAT     H150912   2.776   6.121   4.053
16890WAT     H250913   2.904   6.026   4.090
16891WAT      O50914   5.510   0.898   7.992
16891WAT     H150915   5.410   0.889   7.995
16891WAT     H250916   5.540   0.965   8.059
16892WAT      O50917   9.534   1.660   6.685
16892WAT     H150918   9.611   1.724   6.692
16892WAT     H250919   9.559   1.573   6.726
16893WAT      O50920   4.534   0.547   7.652
16893WAT     H150921   4.548   0.494   7.736
16893WAT     H250922   4.549   0.488   7.573
16894WAT      O50923   5.606   6.705   2.572
16894WAT     H150924   5.704   6.685   2.576
16894WAT     H250925   5.557   6.646   2.635
16895WAT      O50926   4.221   9.615   8.658
16895WAT     H150927   4.187   9.556   8.731
16895WAT     H250928   4.190   9.580   8.570
16896WAT      O50929   3.337   1.720   5.311
16896WAT     H150930   3.390   1.689   5.390
16896WAT     H250931   3.297   1.809   5.331
16897WAT      O50932   2.777   4.360   3.151
16897WAT     H150933   2.862   4.330   3.108
16897WAT     H250934   2.713   4.389   3.080
16898WAT      O50935   7.901   4.674   3.943
16898WAT     H150936   7.999   4.673   3.927
16898WAT     H250937   7.853   4.630   3.867
16899WAT      O50938   6.190   0.454   0.661
16899WAT     H150939   6.250   0.516   0.712
16899WAT     H250940   6.240   0.411   0.587
16900WAT      O50941   3.661   6.280   9.229
16900WAT     H150942   3.619   6.217   9.164
16900WAT     H250943   3.728   6.337   9.182
16901WAT      O50944   3.369   2.724   9.578
16901WAT     H150945   3.361   2.748   9.675
16901WAT     H250946   3.281   2.690   9.545
16902WAT      O50947   2.088   8.706   6.467
16902WAT     H150948   2.177   8.699   6.511
16902WAT     H250949   2.025   8.640   6.508
16903WAT      O50950   4.701   2.258   1.686
16903WAT     H150951   4.638   2.190   1.647
16903WAT     H250952   4.793   2.220   1.687
16904WAT      O50953   3.258   0.431   2.258
16904WAT     H150954   3.295   0.524   2.246
16904WAT     H250955   3.311   0.367   2.203
16905WAT      O50956   7.908   7.215   2.288
16905WAT     H150957   7.835   7.282   2.279
16905WAT     H250958   7.869   7.124   2.304
16906WAT      O50959   4.628   9.129   3.182
16906WAT     H150960   4.634   9.228   3.167
16906WAT     H250961   4.719   9.089   3.173
16907WAT      O50962   3.489   9.676   0.815
16907WAT     H150963   3.480   9.766   0.858
16907WAT     H250964   3.564   9.626   0.859
16908WAT      O50965   5.995   0.935   2.881
16908WAT     H150966   5.923   0.887   2.931
16908WAT     H250967   6.003   0.896   2.789
16909WAT      O50968   5.841   0.851   2.358
16909WAT     H150969   5.745   0.824   2.362
16909WAT     H250970   5.897   0.770   2.341
16910WAT      O50971   7.292   2.653   1.215
16910WAT     H150972   7.291   2.740   1.166
16910WAT     H250973   7.253   2.665   1.306
16911WAT      O50974   1.478   3.189   7.028
16911WAT     H150975   1.482   3.287   7.006
16911WAT     H250976   1.423   3.142   6.959
16912WAT      O50977   4.984   5.757   1.381
16912WAT     H150978   5.010   5.720   1.292
16912WAT     H250979   5.029   5.705   1.453
16913WAT      O50980   6.886   4.591   7.202
16913WAT     H150981   6.918   4.635   7.118
16913WAT     H250982   6.827   4.514   7.178
16914WAT      O50983   9.256   6.648   5.194
16914WAT     H150984   9.355   6.658   5.201
16914WAT     H250985   9.234   6.557   5.159
16915WAT      O50986   0.292   2.878   0.411
16915WAT     H150987   0.386   2.886   0.378
16915WAT     H250988   0.289   2.814   0.488
16916WAT      O50989   7.526   9.303   2.838
16916WAT     H150990   7.460   9.289   2.911
16916WAT     H250991   7.528   9.223   2.778
16917WAT      O50992   3.190   6.264   3.701
16917WAT     H150993   3.138   6.268   3.786
16917WAT     H250994   3.197   6.356   3.662
16918WAT      O50995   2.103   7.880   1.330
16918WAT     H150996   2.069   7.969   1.359
16918WAT     H250997   2.041   7.841   1.262
16919WAT      O50998   3.218   0.961   2.158
16919WAT     H150999   3.305   0.986   2.201
16919WAT     H251000   3.159   0.917   2.227
16920WAT      O51001   3.255   4.348   3.097
16920WAT     H151002   3.312   4.413   3.048
16920WAT     H251003   3.254   4.371   3.195
16921WAT      O51004   4.834   8.190   9.519
16921WAT     H151005   4.929   8.168   9.496
16921WAT     H251006   4.781   8.199   9.435
16922WAT      O51007   8.878   8.516   2.383
16922WAT     H151008   8.870   8.612   2.410
16922WAT     H251009   8.904   8.461   2.463
16923WAT      O51010   0.288   6.803   5.158
16923WAT     H151011   0.369   6.855   5.130
16923WAT     H251012   0.206   6.848   5.124
16924WAT      O51013   7.417   0.624   3.923
16924WAT     H151014   7.452   0.551   3.864
16924WAT     H251015   7.464   0.621   4.012
16925WAT      O51016   1.217   0.587   7.036
16925WAT     H151017   1.280   0.616   6.965
16925WAT     H251018   1.250   0.502   7.077
16926WAT      O51019   5.931   6.348   1.981
16926WAT     H151020   5.932   6.248   1.977
16926WAT     H251021   5.843   6.379   2.018
16927WAT      O51022   8.554   8.023   4.111
16927WAT     H151023   8.600   7.935   4.123
16927WAT     H251024   8.576   8.082   4.189
16928WAT      O51025   7.054   5.985   2.964
16928WAT     H151026   7.107   5.916   2.914
16928WAT     H251027   7.092   5.997   3.056
16929WAT      O51028   5.862   2.662   9.445
16929WAT     H151029   5.904   2.740   9.399
16929WAT     H251030   5.822   2.601   9.376
16930WAT      O51031   0.581   5.359   6.576
16930WAT     H151032   0.528   5.292   6.629
16930WAT     H251033   0.581   5.331   6.480
16931WAT      O51034   2.576   1.321   3.697
16931WAT     H151035   2.539   1.252   3.759
16931WAT     H251036   2.605   1.401   3.750
16932WAT      O51037   5.577   2.693   1.963
16932WAT     H151038   5.632   2.649   2.034
16932WAT     H251039   5.636   2.717   1.886
16933WAT      O51040   1.276   8.403   6.554
16933WAT     H151041   1.369   8.429   6.580
16933WAT     H251042   1.231   8.357   6.631
16934WAT      O51043   5.815   4.142   1.132
16934WAT     H151044   5.827   4.144   1.231
16934WAT     H251045   5.895   4.182   1.088
16935WAT      O51046   4.906   1.713   8.223
16935WAT     H151047   4.910   1.660   8.139
16935WAT     H251048   4.997   1.749   8.244
16936WAT      O51049   1.550   0.827   7.001
16936WAT     H151050   1.648   0.838   7.019
16936WAT     H251051   1.511   0.764   7.068
16937WAT      O51052   7.488   4.410   8.836
16937WAT     H151053   7.537   4.446   8.757
16937WAT     H251054   7.551   4.397   8.912
16938WAT      O51055   3.566   0.244   7.386
16938WAT     H151056   3.559   0.186   7.467
16938WAT     H251057   3.585   0.188   7.306
16939WAT      O51058   4.888   9.057   8.621
16939WAT     H151059   4.984   9.029   8.619
16939WAT     H251060   4.831   8.982   8.588
16940WAT      O51061   9.769   4.822   3.279
16940WAT     H151062   9.692   4.798   3.339
16940WAT     H251063   9.755   4.914   3.242
16941WAT      O51064   7.516   6.598   4.824
16941WAT     H151065   7.503   6.503   4.852
16941WAT     H251066   7.584   6.641   4.884
16942WAT      O51067   3.315   6.213   5.638
16942WAT     H151068   3.368   6.132   5.660
16942WAT     H251069   3.245   6.227   5.707
16943WAT      O51070   1.633   8.986   5.249
16943WAT     H151071   1.695   8.977   5.328
16943WAT     H251072   1.625   9.082   5.223
16944WAT      O51073   5.419   2.719   1.225
16944WAT     H151074   5.493   2.786   1.234
16944WAT     H251075   5.442   2.637   1.277
16945WAT      O51076   3.840   2.835   4.047
16945WAT     H151077   3.844   2.854   3.949
16945WAT     H251078   3.755   2.786   4.067
16946WAT      O51079   8.731   7.579   3.568
16946WAT     H151080   8.639   7.610   3.543
16946WAT     H251081   8.797   7.653   3.552
16947WAT      O51082   3.623   7.657   3.978
16947WAT     H151083   3.684   7.597   4.030
16947WAT     H251084   3.678   7.724   3.927
16948WAT      O51085   7.982   3.174   6.108
16948WAT     H151086   8.081   3.169   6.120
16948WAT     H251087   7.942   3.228   6.181
16949WAT      O51088   1.704   1.945   1.665
16949WAT     H151089   1.655   1.872   1.712
16949WAT     H251090   1.797   1.953   1.701
16950WAT      O51091   4.905   4.751   8.806
16950WAT     H151092   4.815   4.711   8.787
16950WAT     H251093   4.943   4.710   8.889
16951WAT      O51094   6.689   3.111   0.124
16951WAT     H151095   6.599   3.125   0.165
16951WAT     H251096   6.755   3.174   0.166
16952WAT      O51097   5.214   1.837   1.082
16952WAT     H151098   5.196   1.928   1.120
16952WAT     H251099   5.191   1.767   1.150
16953WAT      O51100   1.903   4.449   4.050
16953WAT     H151101   1.842   4.471   4.126
16953WAT     H251102   1.887   4.354   4.022
16954WAT      O51103   0.469   8.869   2.910
16954WAT     H151104   0.520   8.836   2.830
16954WAT     H251105   0.516   8.841   2.993
16955WAT      O51106   5.615   7.621   6.883
16955WAT     H151107   5.562   7.537   6.893
16955WAT     H251108   5.711   7.603   6.908
16956WAT      O51109   3.303   4.760   8.720
16956WAT     H151110   3.239   4.734   8.792
16956WAT     H251111   3.348   4.846   8.745
16957WAT      O51112   6.406   2.132   6.072
16957WAT     H151113   6.431   2.115   6.168
16957WAT     H251114   6.332   2.070   6.046
16958WAT      O51115   8.208   1.117   9.509
16958WAT     H151116   8.144   1.170   9.451
16958WAT     H251117   8.299   1.121   9.469
16959WAT      O51118   1.305   6.417   4.941
16959WAT     H151119   1.217   6.378   4.970
16959WAT     H251120   1.291   6.510   4.909
16960WAT      O51121   8.112   5.913   6.961
16960WAT     H151122   8.054   5.994   6.970
16960WAT     H251123   8.077   5.855   6.888
16961WAT      O51124   2.254   4.599   7.830
16961WAT     H151125   2.271   4.553   7.743
16961WAT     H251126   2.340   4.611   7.879
16962WAT      O51127   4.872   6.524   9.685
16962WAT     H151128   4.840   6.461   9.755
16962WAT     H251129   4.887   6.614   9.726
16963WAT      O51130   3.120   0.081   2.496
16963WAT     H151131   3.176   0.163   2.480
16963WAT     H251132   3.050   0.074   2.425
16964WAT      O51133   9.506   5.230   4.507
16964WAT     H151134   9.545   5.264   4.593
16964WAT     H251135   9.550   5.144   4.483
16965WAT      O51136   5.704   4.709   8.422
16965WAT     H151137   5.676   4.691   8.328
16965WAT     H251138   5.633   4.762   8.469
16966WAT      O51139   2.333   8.552   9.636
16966WAT     H151140   2.320   8.493   9.716
16966WAT     H251141   2.248   8.599   9.615
16967WAT      O51142   9.877   4.399   5.343
16967WAT     H151143   9.876   4.370   5.439
16967WAT     H251144   9.862   4.320   5.284
16968WAT      O51145   9.636   6.868   2.720
16968WAT     H151146   9.673   6.960   2.713
16968WAT     H251147   9.707   6.801   2.700
16969WAT      O51148   1.891   1.972   7.523
16969WAT     H151149   1.986   1.942   7.517
16969WAT     H251150   1.842   1.947   7.439
16970WAT      O51151   8.120   8.682   2.759
16970WAT     H151152   8.022   8.672   2.741
16970WAT     H251153   8.172   8.633   2.689
16971WAT      O51154   2.129   8.881   0.058
16971WAT     H151155   2.212   8.888   0.003
16971WAT     H251156   2.084   8.794   0.038
16972WAT      O51157   1.718   5.614   3.770
16972WAT     H151158   1.750   5.539   3.713
16972WAT     H251159   1.621   5.600   3.792
16973WAT      O51160   7.124   6.120   8.425
16973WAT     H151161   7.129   6.060   8.505
16973WAT     H251162   7.197   6.097   8.361
16974WAT      O51163   4.599   0.780   8.722
16974WAT     H151164   4.557   0.861   8.683
16974WAT     H251165   4.551   0.755   8.806
16975WAT      O51166   0.697   0.995   8.385
16975WAT     H151167   0.708   0.897   8.396
16975WAT     H251168   0.643   1.014   8.303
16976WAT      O51169   8.350   7.256   1.563
16976WAT     H151170   8.425   7.196   1.534
16976WAT     H251171   8.262   7.211   1.547
16977WAT      O51172   1.317   5.488   6.326
16977WAT     H151173   1.409   5.450   6.324
16977WAT     H251174   1.310   5.562   6.259
16978WAT      O51175   8.672   9.603   6.229
16978WAT     H151176   8.589   9.548   6.242
16978WAT     H251177   8.648   9.692   6.191
16979WAT      O51178   6.549   9.302   6.282
16979WAT     H151179   6.513   9.319   6.190
16979WAT     H251180   6.629   9.242   6.276
16980WAT      O51181   3.021   2.471   5.801
16980WAT     H151182   3.027   2.499   5.897
16980WAT     H251183   3.111   2.441   5.770
16981WAT      O51184   5.224   5.213   5.794
16981WAT     H151185   5.245   5.275   5.870
16981WAT     H251186   5.125   5.212   5.778
16982WAT      O51187   2.590   9.550   4.053
16982WAT     H151188   2.507   9.512   4.013
16982WAT     H251189   2.568   9.634   4.104
16983WAT      O51190   8.166   8.882   6.982
16983WAT     H151191   8.121   8.804   7.025
16983WAT     H251192   8.135   8.891   6.887
16984WAT      O51193   4.083   7.465   9.036
16984WAT     H151194   4.168   7.495   8.992
16984WAT     H251195   4.008   7.474   8.971
16985WAT      O51196   1.620   9.179   2.987
16985WAT     H151197   1.669   9.267   2.992
16985WAT     H251198   1.627   9.143   2.894
16986WAT      O51199   5.479   3.027   1.474
16986WAT     H151200   5.453   2.935   1.503
16986WAT     H251201   5.415   3.094   1.511
16987WAT      O51202   2.826   8.334   4.081
16987WAT     H151203   2.815   8.338   4.180
16987WAT     H251204   2.914   8.374   4.056
16988WAT      O51205   8.248   7.647   7.072
16988WAT     H151206   8.319   7.645   7.001
16988WAT     H251207   8.178   7.579   7.051
16989WAT      O51208   3.788   5.072   7.706
16989WAT     H151209   3.887   5.053   7.707
16989WAT     H251210   3.755   5.069   7.612
16990WAT      O51211   5.445   3.012   0.487
16990WAT     H151212   5.391   3.088   0.449
16990WAT     H251213   5.539   3.018   0.454
16991WAT      O51214   3.602   4.391   2.419
16991WAT     H151215   3.583   4.457   2.347
16991WAT     H251216   3.699   4.366   2.417
16992WAT      O51217   1.385   8.702   6.008
16992WAT     H151218   1.441   8.759   5.948
16992WAT     H251219   1.436   8.620   6.033
16993WAT      O51220   8.390   1.659   7.148
16993WAT     H151221   8.487   1.683   7.144
16993WAT     H251222   8.380   1.562   7.169
16994WAT      O51223   1.404   9.752   2.682
16994WAT     H151224   1.393   9.851   2.683
16994WAT     H251225   1.442   9.724   2.593
16995WAT      O51226   3.595   7.727   4.440
16995WAT     H151227   3.515   7.691   4.392
16995WAT     H251228   3.672   7.732   4.377
16996WAT      O51229   3.081   4.132   6.252
16996WAT     H151230   3.163   4.128   6.195
16996WAT     H251231   3.107   4.131   6.349
16997WAT      O51232   6.523   4.768   7.761
16997WAT     H151233   6.588   4.761   7.837
16997WAT     H251234   6.551   4.709   7.686
16998WAT      O51235   0.260   7.784   8.035
16998WAT     H151236   0.236   7.880   8.020
16998WAT     H251237   0.311   7.776   8.120
16999WAT      O51238   5.508   6.953   1.577
16999WAT     H151239   5.479   6.919   1.487
16999WAT     H251240   5.434   6.939   1.643
17000WAT      O51241   6.437   0.210   8.127
17000WAT     H151242   6.368   0.151   8.086
17000WAT     H251243   6.459   0.285   8.064
17001WAT      O51244   4.848   7.479   5.926
17001WAT     H151245   4.924   7.440   5.874
17001WAT     H251246   4.851   7.445   6.020
17002WAT      O51247   3.754   4.771   1.002
17002WAT     H151248   3.826   4.797   1.067
17002WAT     H251249   3.737   4.847   0.940
17003WAT      O51250   4.874   8.565   5.514
17003WAT     H151251   4.846   8.613   5.430
17003WAT     H251252   4.906   8.473   5.491
17004WAT      O51253   0.859   9.520   9.080
17004WAT     H151254   0.866   9.443   9.016
17004WAT     H251255   0.798   9.589   9.044
17005WAT      O51256   6.132   3.979   8.150
17005WAT     H151257   6.062   3.951   8.215
17005WAT     H251258   6.137   4.079   8.147
17006WAT      O51259   2.863   3.595   4.364
17006WAT     H151260   2.767   3.572   4.344
17006WAT     H251261   2.883   3.687   4.328
17007WAT      O51262   9.101   7.262   6.095
17007WAT     H151263   9.196   7.291   6.106
17007WAT     H251264   9.040   7.341   6.107
17008WAT      O51265   1.902   5.062   4.261
17008WAT     H151266   1.926   4.979   4.312
17008WAT     H251267   1.869   5.037   4.170
17009WAT      O51268   8.875   5.471   3.289
17009WAT     H151269   8.814   5.550   3.294
17009WAT     H251270   8.907   5.459   3.194
17010WAT      O51271   6.256   2.567   4.614
17010WAT     H151272   6.218   2.527   4.697
17010WAT     H251273   6.317   2.642   4.638
17011WAT      O51274   6.360   1.791   5.727
17011WAT     H151275   6.429   1.768   5.796
17011WAT     H251276   6.319   1.879   5.749
17012WAT      O51277   5.811   1.753   0.058
17012WAT     H151278   5.881   1.718  -0.004
17012WAT     H251279   5.738   1.685   0.069
17013WAT      O51280   4.300   0.009   4.768
17013WAT     H151281   4.239   0.088   4.757
17013WAT     H251282   4.346   0.015   4.856
17014WAT      O51283   3.142   7.454   3.301
17014WAT     H151284   3.147   7.358   3.273
17014WAT     H251285   3.231   7.484   3.335
17015WAT      O51286   9.879   0.304   1.259
17015WAT     H151287   9.833   0.340   1.339
17015WAT     H251288   9.977   0.292   1.279
17016WAT      O51289   7.798   9.035   9.763
17016WAT     H151290   7.815   8.951   9.712
17016WAT     H251291   7.884   9.071   9.797
17017WAT      O51292   9.104   6.034   0.309
17017WAT     H151293   9.059   6.102   0.367
17017WAT     H251294   9.197   6.019   0.340
17018WAT      O51295   6.234   6.413   0.417
17018WAT     H151296   6.226   6.434   0.515
17018WAT     H251297   6.299   6.475   0.375
17019WAT      O51298   2.670   8.673   0.586
17019WAT     H151299   2.758   8.721   0.573
17019WAT     H251300   2.609   8.696   0.511
17020WAT      O51301   4.573   4.578   2.909
17020WAT     H151302   4.527   4.609   2.993
17020WAT     H251303   4.553   4.642   2.835
17021WAT      O51304   7.639   3.961   0.479
17021WAT     H151305   7.723   3.992   0.435
17021WAT     H251306   7.566   3.956   0.412
17022WAT      O51307   0.414   0.741   7.139
17022WAT     H151308   0.473   0.794   7.199
17022WAT     H251309   0.352   0.802   7.090
17023WAT      O51310   3.673   1.142   8.554
17023WAT     H151311   3.599   1.208   8.568
17023WAT     H251312   3.665   1.067   8.620
17024WAT      O51313   6.365   8.355   7.591
17024WAT     H151314   6.413   8.268   7.581
17024WAT     H251315   6.266   8.339   7.590
17025WAT      O51316   8.479   7.153   8.696
17025WAT     H151317   8.527   7.180   8.613
17025WAT     H251318   8.483   7.054   8.707
17026WAT      O51319   9.869   1.572   8.849
17026WAT     H151320   9.844   1.531   8.761
17026WAT     H251321   9.922   1.656   8.832
17027WAT      O51322   1.338   9.062   6.115
17027WAT     H151323   1.276   9.138   6.133
17027WAT     H251324   1.295   8.998   6.050
17028WAT      O51325   2.186   5.787   8.153
17028WAT     H151326   2.216   5.722   8.223
17028WAT     H251327   2.245   5.779   8.073
17029WAT      O51328   0.579   3.878   4.152
17029WAT     H151329   0.552   3.791   4.192
17029WAT     H251330   0.631   3.931   4.219
17030WAT      O51331   7.044   0.651   8.730
17030WAT     H151332   7.071   0.646   8.634
17030WAT     H251333   7.063   0.742   8.765
17031WAT      O51334   9.225   6.446   8.135
17031WAT     H151335   9.243   6.527   8.191
17031WAT     H251336   9.137   6.457   8.088
17032WAT      O51337   6.766   0.051   6.560
17032WAT     H151338   6.838   0.103   6.514
17032WAT     H251339   6.800  -0.042   6.580
17033WAT      O51340   1.095   4.160   9.737
17033WAT     H151341   1.054   4.075   9.770
17033WAT     H251342   1.052   4.186   9.650
17034WAT      O51343   1.246   5.416   0.752
17034WAT     H151344   1.190   5.498   0.755
17034WAT     H251345   1.202   5.343   0.805
17035WAT      O51346   0.567   0.039   4.776
17035WAT     H151347   0.620   0.123   4.767
17035WAT     H251348   0.613  -0.022   4.841
17036WAT      O51349   9.383   7.961   8.527
17036WAT     H151350   9.417   8.016   8.452
17036WAT     H251351   9.402   8.007   8.614
17037WAT      O51352   5.360   6.084   1.491
17037WAT     H151353   5.433   6.034   1.443
17037WAT     H251354   5.286   6.105   1.427
17038WAT      O51355   7.772   7.095   4.006
17038WAT     H151356   7.853   7.121   3.952
17038WAT     H251357   7.779   7.137   4.097
17039WAT      O51358   5.530   6.310   8.022
17039WAT     H151359   5.567   6.373   8.090
17039WAT     H251360   5.506   6.223   8.065
17040WAT      O51361   2.526   1.775   0.308
17040WAT     H151362   2.614   1.814   0.337
17040WAT     H251363   2.542   1.698   0.246
17041WAT      O51364   6.760   2.491   3.037
17041WAT     H151365   6.835   2.534   2.986
17041WAT     H251366   6.765   2.391   3.024
17042WAT      O51367   0.081   5.541   5.324
17042WAT     H151368   0.018   5.540   5.402
17042WAT     H251369   0.118   5.633   5.312
17043WAT      O51370   0.462   5.841   1.739
17043WAT     H151371   0.535   5.811   1.801
17043WAT     H251372   0.373   5.828   1.784
17044WAT      O51373   7.295   7.216   3.761
17044WAT     H151374   7.325   7.132   3.715
17044WAT     H251375   7.348   7.228   3.846
17045WAT      O51376   0.348   4.956   1.527
17045WAT     H151377   0.353   4.896   1.447
17045WAT     H251378   0.260   5.002   1.530
17046WAT      O51379   8.757   9.832   4.111
17046WAT     H151380   8.691   9.903   4.087
17046WAT     H251381   8.711   9.744   4.115
17047WAT      O51382   4.599   6.481   9.213
17047WAT     H151383   4.586   6.420   9.135
17047WAT     H251384   4.553   6.568   9.195
17048WAT      O51385   4.347   9.712   2.102
17048WAT     H151386   4.286   9.770   2.157
17048WAT     H251387   4.433   9.761   2.086
17049WAT      O51388   7.606   8.911   4.892
17049WAT     H151389   7.614   8.935   4.795
17049WAT     H251390   7.591   8.994   4.946
17050WAT      O51391   3.133   0.795   2.542
17050WAT     H151392   3.073   0.817   2.465
17050WAT     H251393   3.137   0.696   2.553
17051WAT      O51394   0.755   5.045   5.368
17051WAT     H151395   0.708   5.092   5.442
17051WAT     H251396   0.815   4.975   5.405
17052WAT      O51397   6.128   0.016   9.382
17052WAT     H151398   6.154   0.014   9.285
17052WAT     H251399   6.042   0.066   9.391
17053WAT      O51400   7.659   1.516   3.018
17053WAT     H151401   7.598   1.508   2.939
17053WAT     H251402   7.747   1.475   2.995
17054WAT      O51403   4.173   4.580   9.350
17054WAT     H151404   4.158   4.678   9.357
17054WAT     H251405   4.207   4.545   9.438
17055WAT      O51406   6.485   0.506   4.723
17055WAT     H151407   6.403   0.548   4.762
17055WAT     H251408   6.490   0.527   4.625
17056WAT      O51409   3.135   1.700   9.409
17056WAT     H151410   3.130   1.668   9.315
17056WAT     H251411   3.163   1.625   9.469
17057WAT      O51412   8.895   8.512   5.560
17057WAT     H151413   8.871   8.591   5.617
17057WAT     H251414   8.977   8.469   5.597
17058WAT      O51415   0.191   5.355   5.682
17058WAT     H151416   0.091   5.365   5.676
17058WAT     H251417   0.231   5.373   5.592
17059WAT      O51418   5.259   2.084   2.095
17059WAT     H151419   5.344   2.056   2.050
17059WAT     H251420   5.275   2.170   2.144
17060WAT      O51421   6.764   0.497   9.222
17060WAT     H151422   6.858   0.530   9.211
17060WAT     H251423   6.712   0.562   9.277
17061WAT      O51424   5.993   7.885   1.951
17061WAT     H151425   5.954   7.816   2.012
17061WAT     H251426   6.001   7.972   2.000
17062WAT      O51427   2.742   0.168   9.136
17062WAT     H151428   2.671   0.228   9.172
17062WAT     H251429   2.708   0.122   9.053
17063WAT      O51430   7.652   1.830   7.188
17063WAT     H151431   7.746   1.853   7.215
17063WAT     H251432   7.598   1.808   7.269
17064WAT      O51433   7.500   3.939   2.135
17064WAT     H151434   7.473   4.031   2.164
17064WAT     H251435   7.453   3.917   2.049
17065WAT      O51436   6.518   2.395   0.901
17065WAT     H151437   6.550   2.401   0.996
17065WAT     H251438   6.561   2.468   0.847
17066WAT      O51439   0.848   3.065   2.289
17066WAT     H151440   0.848   3.097   2.384
17066WAT     H251441   0.757   3.033   2.264
17067WAT      O51442   7.368   8.129   0.557
17067WAT     H151443   7.382   8.042   0.511
17067WAT     H251444   7.338   8.198   0.490
17068WAT      O51445   1.862   0.256   6.923
17068WAT     H151446   1.929   0.328   6.942
17068WAT     H251447   1.874   0.182   6.989
17069WAT      O51448   9.582   0.667   9.471
17069WAT     H151449   9.670   0.636   9.433
17069WAT     H251450   9.598   0.713   9.558
17070WAT      O51451   4.225   2.496   2.457
17070WAT     H151452   4.262   2.587   2.474
17070WAT     H251453   4.132   2.505   2.420
17071WAT      O51454   1.658   0.330   3.732
17071WAT     H151455   1.606   0.386   3.795
17071WAT     H251456   1.603   0.250   3.706
17072WAT      O51457   9.075   6.356   6.704
17072WAT     H151458   9.051   6.284   6.769
17072WAT     H251459   9.165   6.392   6.726
17073WAT      O51460   5.640   4.851   2.432
17073WAT     H151461   5.559   4.832   2.378
17073WAT     H251462   5.652   4.779   2.501
17074WAT      O51463   5.045   8.176   0.213
17074WAT     H151464   5.044   8.243   0.287
17074WAT     H251465   4.980   8.203   0.142
17075WAT      O51466   5.903   9.684   7.575
17075WAT     H151467   5.918   9.632   7.658
17075WAT     H251468   5.874   9.777   7.598
17076WAT      O51469   1.150   2.804   0.787
17076WAT     H151470   1.237   2.756   0.791
17076WAT     H251471   1.152   2.882   0.849
17077WAT      O51472   4.381   7.821   5.228
17077WAT     H151473   4.373   7.872   5.314
17077WAT     H251474   4.424   7.878   5.159
17078WAT      O51475   8.599   8.882   2.967
17078WAT     H151476   8.538   8.948   2.924
17078WAT     H251477   8.691   8.921   2.974
17079WAT      O51478   0.221   8.702   4.303
17079WAT     H151479   0.150   8.771   4.292
17079WAT     H251480   0.183   8.622   4.348
17080WAT      O51481   8.789   2.272   3.056
17080WAT     H151482   8.760   2.338   2.986
17080WAT     H251483   8.708   2.233   3.101
17081WAT      O51484   4.771   1.804   9.629
17081WAT     H151485   4.708   1.815   9.553
17081WAT     H251486   4.808   1.711   9.630
17082WAT      O51487   1.216   7.476   4.900
17082WAT     H151488   1.306   7.435   4.889
17082WAT     H251489   1.226   7.574   4.917
17083WAT      O51490   0.987   6.776   3.131
17083WAT     H151491   0.977   6.678   3.117
17083WAT     H251492   1.032   6.817   3.052
17084WAT      O51493   1.908   3.662   8.570
17084WAT     H151494   1.874   3.676   8.477
17084WAT     H251495   1.847   3.598   8.618
17085WAT      O51496   0.212   0.159   9.097
17085WAT     H151497   0.236   0.112   9.182
17085WAT     H251498   0.113   0.153   9.083
17086WAT      O51499   0.038   6.688   6.516
17086WAT     H151500   0.125   6.731   6.540
17086WAT     H251501   0.051   6.590   6.502
17087WAT      O51502   7.137   3.603   6.670
17087WAT     H151503   7.187   3.525   6.709
17087WAT     H251504   7.095   3.656   6.744
17088WAT      O51505   2.273   5.785   4.859
17088WAT     H151506   2.320   5.865   4.895
17088WAT     H251507   2.176   5.807   4.845
17089WAT      O51508   4.474   5.508   6.953
17089WAT     H151509   4.574   5.516   6.952
17089WAT     H251510   4.449   5.413   6.933
17090WAT      O51511   8.099   5.672   0.704
17090WAT     H151512   8.085   5.692   0.607
17090WAT     H251513   8.011   5.666   0.750
17091WAT      O51514   2.337   0.708   5.296
17091WAT     H151515   2.417   0.752   5.256
17091WAT     H251516   2.318   0.747   5.386
17092WAT      O51517   2.741   4.633   1.858
17092WAT     H151518   2.671   4.704   1.847
17092WAT     H251519   2.696   4.544   1.867
17093WAT      O51520   8.480   2.813   1.471
17093WAT     H151521   8.441   2.856   1.389
17093WAT     H251522   8.545   2.876   1.514
17094WAT      O51523   3.252   9.769   0.429
17094WAT     H151524   3.221   9.719   0.348
17094WAT     H251525   3.317   9.713   0.480
17095WAT      O51526   9.306   0.680   3.958
17095WAT     H151527   9.344   0.773   3.954
17095WAT     H251528   9.381   0.614   3.955
17096WAT      O51529   3.648   6.021   9.679
17096WAT     H151530   3.741   5.997   9.706
17096WAT     H251531   3.643   6.032   9.580
17097WAT      O51532   0.850   4.507   3.849
17097WAT     H151533   0.889   4.540   3.935
17097WAT     H251534   0.890   4.558   3.773
17098WAT      O51535   5.200   7.293   0.133
17098WAT     H151536   5.198   7.269   0.230
17098WAT     H251537   5.290   7.275   0.096
17099WAT      O51538   6.739   8.412   0.708
17099WAT     H151539   6.815   8.347   0.717
17099WAT     H251540   6.666   8.370   0.653
17100WAT      O51541   9.772   1.054   9.055
17100WAT     H151542   9.804   1.110   9.132
17100WAT     H251543   9.850   1.025   9.000
17101WAT      O51544   7.182   5.867   2.059
17101WAT     H151545   7.242   5.787   2.049
17101WAT     H251546   7.223   5.931   2.124
17102WAT      O51547   6.190   1.484   7.290
17102WAT     H151548   6.285   1.507   7.312
17102WAT     H251549   6.153   1.552   7.227
17103WAT      O51550   9.432   7.233   2.086
17103WAT     H151551   9.421   7.272   1.994
17103WAT     H251552   9.452   7.135   2.078
17104WAT      O51553   1.811   3.864   1.386
17104WAT     H151554   1.766   3.895   1.302
17104WAT     H251555   1.804   3.764   1.392
17105WAT      O51556   4.890   3.888   9.410
17105WAT     H151557   4.970   3.946   9.396
17105WAT     H251558   4.808   3.945   9.407
17106WAT      O51559   4.243   5.745   1.445
17106WAT     H151560   4.316   5.813   1.450
17106WAT     H251561   4.163   5.778   1.495
17107WAT      O51562   8.901   4.647   8.728
17107WAT     H151563   8.964   4.570   8.715
17107WAT     H251564   8.876   4.653   8.825
17108WAT      O51565   9.513   7.683   0.708
17108WAT     H151566   9.438   7.689   0.642
17108WAT     H251567   9.528   7.772   0.750
17109WAT      O51568   9.156   6.791   3.709
17109WAT     H151569   9.191   6.701   3.737
17109WAT     H251570   9.127   6.788   3.614
17110WAT      O51571   2.192   9.439   4.725
17110WAT     H151572   2.194   9.443   4.625
17110WAT     H251573   2.113   9.386   4.754
17111WAT      O51574   7.923   5.828   1.224
17111WAT     H151575   7.958   5.864   1.310
17111WAT     H251576   7.961   5.881   1.148
17112WAT      O51577   8.557   4.582   7.709
17112WAT     H151578   8.568   4.574   7.610
17112WAT     H251579   8.505   4.665   7.731
17113WAT      O51580   7.776   8.341   8.287
17113WAT     H151581   7.815   8.251   8.269
17113WAT     H251582   7.716   8.336   8.367
17114WAT      O51583   4.943   7.962   1.301
17114WAT     H151584   4.991   8.049   1.296
17114WAT     H251585   4.983   7.906   1.375
17115WAT      O51586   2.304   7.350   8.659
17115WAT     H151587   2.385   7.409   8.657
17115WAT     H251588   2.321   7.268   8.605
17116WAT      O51589   9.399   2.856   0.963
17116WAT     H151590   9.303   2.842   0.987
17116WAT     H251591   9.416   2.818   0.872
17117WAT      O51592   3.804   3.456   6.800
17117WAT     H151593   3.858   3.538   6.781
17117WAT     H251594   3.714   3.465   6.758
17118WAT      O51595   7.640   5.149   4.369
17118WAT     H151596   7.686   5.090   4.436
17118WAT     H251597   7.541   5.147   4.386
17119WAT      O51598   3.714   5.499   3.415
17119WAT     H151599   3.731   5.488   3.317
17119WAT     H251600   3.772   5.435   3.466
17120WAT      O51601   1.800   9.403   3.749
17120WAT     H151602   1.799   9.332   3.819
17120WAT     H251603   1.885   9.397   3.696
17121WAT      O51604   1.868   3.889   8.889
17121WAT     H151605   1.941   3.872   8.956
17121WAT     H251606   1.846   3.986   8.889
17122WAT      O51607   1.831   3.370   6.413
17122WAT     H151608   1.921   3.332   6.434
17122WAT     H251609   1.760   3.304   6.436
17123WAT      O51610   3.656   5.281   4.745
17123WAT     H151611   3.677   5.296   4.648
17123WAT     H251612   3.620   5.366   4.785
17124WAT      O51613   4.847   2.332   7.018
17124WAT     H151614   4.767   2.274   7.006
17124WAT     H251615   4.828   2.403   7.085
17125WAT      O51616   8.708   8.622   5.275
17125WAT     H151617   8.693   8.543   5.334
17125WAT     H251618   8.798   8.661   5.293
17126WAT      O51619   3.220   2.672   1.542
17126WAT     H151620   3.234   2.756   1.489
17126WAT     H251621   3.127   2.640   1.529
17127WAT      O51622   1.613   8.420   4.229
17127WAT     H151623   1.526   8.374   4.210
17127WAT     H251624   1.680   8.395   4.160
17128WAT      O51625   0.631   9.716   5.911
17128WAT     H151626   0.541   9.737   5.948
17128WAT     H251627   0.702   9.747   5.975
17129WAT      O51628   3.173   5.841   5.191
17129WAT     H151629   3.141   5.812   5.101
17129WAT     H251630   3.244   5.911   5.180
17130WAT      O51631   3.013   4.844   8.714
17130WAT     H151632   3.057   4.892   8.638
17130WAT     H251633   2.915   4.860   8.711
17131WAT      O51634   7.412   4.323   9.713
17131WAT     H151635   7.438   4.418   9.698
17131WAT     H251636   7.331   4.318   9.771
17132WAT      O51637   7.341   4.760   0.827
17132WAT     H151638   7.272   4.759   0.899
17132WAT     H251639   7.422   4.810   0.859
17133WAT      O51640   7.988   6.308   5.440
17133WAT     H151641   7.962   6.214   5.420
17133WAT     H251642   7.997   6.359   5.355
17134WAT      O51643   4.353   8.530   2.785
17134WAT     H151644   4.363   8.540   2.884
17134WAT     H251645   4.333   8.434   2.763
17135WAT      O51646   4.639   1.602   7.227
17135WAT     H151647   4.671   1.696   7.240
17135WAT     H251648   4.715   1.539   7.237
17136WAT      O51649   6.268   3.834   1.816
17136WAT     H151650   6.362   3.800   1.812
17136WAT     H251651   6.207   3.770   1.770
17137WAT      O51652   7.852   7.011   0.186
17137WAT     H151653   7.890   6.928   0.226
17137WAT     H251654   7.797   7.058   0.255
17138WAT      O51655   2.681   9.456   3.599
17138WAT     H151656   2.745   9.482   3.526
17138WAT     H251657   2.719   9.484   3.687
17139WAT      O51658   3.475   4.918   4.305
17139WAT     H151659   3.565   4.947   4.337
17139WAT     H251660   3.410   4.993   4.314
17140WAT      O51661   7.029   6.347   0.784
17140WAT     H151662   6.987   6.345   0.693
17140WAT     H251663   7.129   6.346   0.774
17141WAT      O51664   1.105   1.709   0.234
17141WAT     H151665   1.174   1.684   0.166
17141WAT     H251666   1.036   1.768   0.191
17142WAT      O51667   7.352   7.365   6.952
17142WAT     H151668   7.272   7.356   7.012
17142WAT     H251669   7.435   7.357   7.006
17143WAT      O51670   6.484   4.111   6.060
17143WAT     H151671   6.413   4.104   5.990
17143WAT     H251672   6.570   4.138   6.016
17144WAT      O51673   9.521   2.462   3.396
17144WAT     H151674   9.496   2.376   3.440
17144WAT     H251675   9.611   2.492   3.428
17145WAT      O51676   2.637   5.714   9.235
17145WAT     H151677   2.607   5.787   9.174
17145WAT     H251678   2.559   5.655   9.257
17146WAT      O51679   6.319   8.708   9.893
17146WAT     H151680   6.351   8.751   9.808
17146WAT     H251681   6.393   8.708   9.960
17147WAT      O51682   8.026   8.105   2.376
17147WAT     H151683   8.003   8.169   2.303
17147WAT     H251684   8.012   8.011   2.344
17148WAT      O51685   2.300   1.980   7.832
17148WAT     H151686   2.331   2.052   7.770
17148WAT     H251687   2.358   1.979   7.913
17149WAT      O51688   4.438   4.439   4.434
17149WAT     H151689   4.450   4.513   4.500
17149WAT     H251690   4.524   4.390   4.422
17150WAT      O51691   9.665   0.329   8.618
17150WAT     H151692   9.631   0.372   8.535
17150WAT     H251693   9.615   0.366   8.697
17151WAT      O51694   2.491   7.532   5.641
17151WAT     H151695   2.498   7.433   5.628
17151WAT     H251696   2.501   7.578   5.553
17152WAT      O51697   9.106   3.492   1.149
17152WAT     H151698   9.093   3.421   1.079
17152WAT     H251699   9.193   3.476   1.197
17153WAT      O51700   8.472   6.339   2.104
17153WAT     H151701   8.392   6.391   2.135
17153WAT     H251702   8.541   6.401   2.067
17154WAT      O51703   2.367   1.031   7.798
17154WAT     H151704   2.381   1.009   7.701
17154WAT     H251705   2.417   0.966   7.855
17155WAT      O51706   9.534   5.505   8.652
17155WAT     H151707   9.447   5.500   8.700
17155WAT     H251708   9.520   5.485   8.555
17156WAT      O51709   4.390   7.602   8.501
17156WAT     H151710   4.436   7.518   8.473
17156WAT     H251711   4.295   7.582   8.525
17157WAT      O51712   9.031   5.123   0.130
17157WAT     H151713   8.989   5.150   0.217
17157WAT     H251714   9.117   5.173   0.118
17158WAT      O51715   5.214   2.903   1.214
17158WAT     H151716   5.222   2.983   1.274
17158WAT     H251717   5.295   2.846   1.225
17159WAT      O51718   9.612   0.972   9.416
17159WAT     H151719   9.514   0.987   9.401
17159WAT     H251720   9.654   1.057   9.449
17160WAT      O51721   3.030   8.061   3.556
17160WAT     H151722   3.020   7.968   3.522
17160WAT     H251723   2.948   8.114   3.533
17161WAT      O51724   2.404   1.807   0.811
17161WAT     H151725   2.380   1.795   0.715
17161WAT     H251726   2.383   1.900   0.840
17162WAT      O51727   1.197   7.249   2.546
17162WAT     H151728   1.260   7.185   2.503
17162WAT     H251729   1.213   7.251   2.644
17163WAT      O51730   3.721   4.142   9.209
17163WAT     H151731   3.727   4.170   9.305
17163WAT     H251732   3.798   4.082   9.187
17164WAT      O51733   3.859   7.727   4.329
17164WAT     H151734   3.869   7.647   4.269
17164WAT     H251735   3.904   7.806   4.287
17165WAT      O51736   5.193   8.708   7.997
17165WAT     H151737   5.217   8.698   8.093
17165WAT     H251738   5.232   8.631   7.945
17166WAT      O51739   0.603   0.881   9.057
17166WAT     H151740   0.566   0.936   8.983
17166WAT     H251741   0.599   0.784   9.032
17167WAT      O51742   9.816   5.179   0.622
17167WAT     H151743   9.856   5.253   0.567
17167WAT     H251744   9.752   5.218   0.688
17168WAT      O51745   5.371   5.060   8.309
17168WAT     H151746   5.446   5.020   8.255
17168WAT     H251747   5.378   5.028   8.404
17169WAT      O51748   2.841   7.724   2.843
17169WAT     H151749   2.822   7.638   2.891
17169WAT     H251750   2.773   7.792   2.870
17170WAT      O51751   6.003   5.761   0.710
17170WAT     H151752   6.083   5.813   0.681
17170WAT     H251753   5.924   5.822   0.720
17171WAT      O51754   7.395   8.031   6.693
17171WAT     H151755   7.395   7.972   6.612
17171WAT     H251756   7.470   8.097   6.686
17172WAT      O51757   0.587   9.556   9.787
17172WAT     H151758   0.587   9.642   9.736
17172WAT     H251759   0.619   9.573   9.880
17173WAT      O51760   8.997   3.136   1.539
17173WAT     H151761   9.033   3.218   1.494
17173WAT     H251762   8.957   3.161   1.627
17174WAT      O51763   2.653   7.930   5.475
17174WAT     H151764   2.656   7.964   5.381
17174WAT     H251765   2.623   7.835   5.475
17175WAT      O51766   3.284   9.385   6.960
17175WAT     H151767   3.218   9.339   6.900
17175WAT     H251768   3.318   9.467   6.915
17176WAT      O51769   7.530   5.149   8.868
17176WAT     H151770   7.449   5.121   8.919
17176WAT     H251771   7.589   5.205   8.928
17177WAT      O51772   6.981   5.778   2.290
17177WAT     H151773   7.027   5.705   2.240
17177WAT     H251774   6.928   5.834   2.227
17178WAT      O51775   5.401   1.124   7.750
17178WAT     H151776   5.361   1.035   7.729
17178WAT     H251777   5.457   1.154   7.673
17179WAT      O51778   8.376   8.602   2.213
17179WAT     H151779   8.338   8.510   2.224
17179WAT     H251780   8.333   8.664   2.279
17180WAT      O51781   7.410   2.350   6.557
17180WAT     H151782   7.479   2.305   6.499
17180WAT     H251783   7.412   2.309   6.649
17181WAT      O51784   3.313   3.505   1.803
17181WAT     H151785   3.218   3.531   1.783
17181WAT     H251786   3.349   3.564   1.875
17182WAT      O51787   8.082   9.124   8.961
17182WAT     H151788   8.012   9.178   8.914
17182WAT     H251789   8.074   9.028   8.932
17183WAT      O51790   7.814   7.225   4.258
17183WAT     H151791   7.774   7.146   4.304
17183WAT     H251792   7.909   7.206   4.234
17184WAT      O51793   2.237   2.490   7.383
17184WAT     H151794   2.280   2.460   7.468
17184WAT     H251795   2.139   2.470   7.386
17185WAT      O51796   3.008   3.807   6.391
17185WAT     H151797   3.002   3.906   6.408
17185WAT     H251798   3.079   3.789   6.324
17186WAT      O51799   9.295   9.363   1.080
17186WAT     H151800   9.254   9.399   0.997
17186WAT     H251801   9.225   9.352   1.150
17187WAT      O51802   8.589   1.976   7.632
17187WAT     H151803   8.578   2.048   7.700
17187WAT     H251804   8.575   2.013   7.541
17188WAT      O51805   4.318   2.421   0.444
17188WAT     H151806   4.413   2.401   0.468
17188WAT     H251807   4.306   2.411   0.345
17189WAT      O51808   3.867   0.942   2.621
17189WAT     H151809   3.899   1.034   2.641
17189WAT     H251810   3.778   0.927   2.665
17190WAT      O51811   1.121   7.837   2.190
17190WAT     H151812   1.147   7.927   2.155
17190WAT     H251813   1.142   7.832   2.287
17191WAT      O51814   3.007   9.272   2.729
17191WAT     H151815   3.061   9.317   2.658
17191WAT     H251816   2.937   9.215   2.686
17192WAT      O51817   8.919   1.979   7.265
17192WAT     H151818   9.019   1.979   7.263
17192WAT     H251819   8.884   2.041   7.195
17193WAT      O51820   0.356   7.676   6.679
17193WAT     H151821   0.440   7.693   6.731
17193WAT     H251822   0.282   7.732   6.716
17194WAT      O51823   4.903   5.926   6.768
17194WAT     H151824   4.943   5.900   6.856
17194WAT     H251825   4.922   6.023   6.750
17195WAT      O51826   9.474   3.458   4.916
17195WAT     H151827   9.511   3.367   4.897
17195WAT     H251828   9.478   3.475   5.015
17196WAT      O51829   4.685   8.037   2.693
17196WAT     H151830   4.728   8.065   2.607
17196WAT     H251831   4.638   7.950   2.680
17197WAT      O51832   9.606   2.724   8.573
17197WAT     H151833   9.541   2.746   8.645
17197WAT     H251834   9.671   2.656   8.606
17198WAT      O51835   0.009   3.006   0.539
17198WAT     H151836   0.100   3.018   0.579
17198WAT     H251837   0.018   2.980   0.442
17199WAT      O51838   3.110   6.328   4.004
17199WAT     H151839   3.075   6.252   4.057
17199WAT     H251840   3.038   6.397   3.992
17200WAT      O51841   1.795   4.745   6.589
17200WAT     H151842   1.853   4.719   6.665
17200WAT     H251843   1.719   4.802   6.622
17201WAT      O51844   9.761   9.297   5.055
17201WAT     H151845   9.669   9.331   5.038
17201WAT     H251846   9.826   9.347   4.998
17202WAT      O51847   0.769   8.960   0.410
17202WAT     H151848   0.754   8.974   0.313
17202WAT     H251849   0.790   8.864   0.427
17203WAT      O51850   5.196   2.318   6.407
17203WAT     H151851   5.187   2.269   6.320
17203WAT     H251852   5.273   2.280   6.459
17204WAT      O51853   0.540   6.044   2.173
17204WAT     H151854   0.461   6.097   2.203
17204WAT     H251855   0.561   5.973   2.240
17205WAT      O51856   6.960   1.890   9.662
17205WAT     H151857   7.023   1.951   9.711
17205WAT     H251858   6.883   1.943   9.628
17206WAT      O51859   3.448   8.696   1.789
17206WAT     H151860   3.538   8.738   1.792
17206WAT     H251861   3.454   8.609   1.739
17207WAT      O51862   2.545   2.574   4.419
17207WAT     H151863   2.469   2.553   4.357
17207WAT     H251864   2.619   2.617   4.367
17208WAT      O51865   3.264   5.740   8.926
17208WAT     H151866   3.315   5.736   8.840
17208WAT     H251867   3.315   5.693   8.997
17209WAT      O51868   8.799   9.602   4.432
17209WAT     H151869   8.737   9.598   4.354
17209WAT     H251870   8.814   9.697   4.459
17210WAT      O51871   3.958   5.842   7.349
17210WAT     H151872   3.999   5.846   7.440
17210WAT     H251873   4.030   5.825   7.281
17211WAT      O51874   8.762   3.486   0.546
17211WAT     H151875   8.706   3.403   0.545
17211WAT     H251876   8.857   3.462   0.566
17212WAT      O51877   9.435   9.588   3.312
17212WAT     H151878   9.418   9.511   3.373
17212WAT     H251879   9.469   9.553   3.224
17213WAT      O51880   4.198   9.232   6.159
17213WAT     H151881   4.118   9.224   6.100
17213WAT     H251882   4.207   9.149   6.215
17214WAT      O51883   5.374   4.556   6.588
17214WAT     H151884   5.415   4.465   6.582
17214WAT     H251885   5.290   4.558   6.534
17215WAT      O51886   2.738   5.186   3.835
17215WAT     H151887   2.641   5.187   3.811
17215WAT     H251888   2.761   5.099   3.879
17216WAT      O51889   1.723   5.295   3.126
17216WAT     H151890   1.647   5.331   3.073
17216WAT     H251891   1.773   5.227   3.072
17217WAT      O51892   8.152   5.477   5.501
17217WAT     H151893   8.216   5.461   5.426
17217WAT     H251894   8.179   5.424   5.581
17218WAT      O51895   8.248   5.534   0.891
17218WAT     H151896   8.194   5.593   0.831
17218WAT     H251897   8.270   5.583   0.976
17219WAT      O51898   1.220   1.629   4.042
17219WAT     H151899   1.160   1.577   3.981
17219WAT     H251900   1.264   1.703   3.991
17220WAT      O51901   2.349   5.349   4.797
17220WAT     H151902   2.410   5.368   4.720
17220WAT     H251903   2.272   5.412   4.795
17221WAT      O51904   7.125   5.287   5.218
17221WAT     H151905   7.133   5.354   5.291
17221WAT     H251906   7.041   5.303   5.167
17222WAT      O51907   1.202   0.709   1.262
17222WAT     H151908   1.276   0.734   1.200
17222WAT     H251909   1.240   0.669   1.345
17223WAT      O51910   3.157   3.984   6.684
17223WAT     H151911   3.159   4.051   6.609
17223WAT     H251912   3.150   4.032   6.771
17224WAT      O51913   8.243   6.683   7.965
17224WAT     H151914   8.271   6.610   7.903
17224WAT     H251915   8.160   6.727   7.930
17225WAT      O51916   9.238   9.280   5.937
17225WAT     H151917   9.218   9.288   5.840
17225WAT     H251918   9.319   9.333   5.959
17226WAT      O51919   6.221   8.540   0.917
17226WAT     H151920   6.176   8.574   1.000
17226WAT     H251921   6.301   8.596   0.897
17227WAT      O51922   1.596   2.510   1.141
17227WAT     H151923   1.635   2.561   1.218
17227WAT     H251924   1.668   2.491   1.074
17228WAT      O51925   9.650   4.456   5.730
17228WAT     H151926   9.558   4.457   5.691
17228WAT     H251927   9.655   4.386   5.801
17229WAT      O51928   3.875   7.258   2.412
17229WAT     H151929   3.973   7.249   2.431
17229WAT     H251930   3.862   7.319   2.334
17230WAT      O51931   5.548   5.317   8.893
17230WAT     H151932   5.583   5.357   8.808
17230WAT     H251933   5.624   5.309   8.959
17231WAT      O51934   4.549   7.723   2.405
17231WAT     H151935   4.452   7.706   2.422
17231WAT     H251936   4.595   7.740   2.492
17232WAT      O51937   2.668   8.064   1.350
17232WAT     H151938   2.678   8.139   1.284
17232WAT     H251939   2.613   7.991   1.309
17233WAT      O51940   8.834   7.167   4.360
17233WAT     H151941   8.811   7.167   4.458
17233WAT     H251942   8.787   7.092   4.315
17234WAT      O51943   8.026   5.159   9.359
17234WAT     H151944   8.003   5.214   9.278
17234WAT     H251945   7.972   5.192   9.437
17235WAT      O51946   5.051   0.471   0.356
17235WAT     H151947   4.997   0.393   0.388
17235WAT     H251948   5.050   0.473   0.256
17236WAT      O51949   6.660   4.514   0.058
17236WAT     H151950   6.680   4.585   0.126
17236WAT     H251951   6.666   4.424   0.101
17237WAT      O51952   4.704   9.238   0.649
17237WAT     H151953   4.621   9.185   0.665
17237WAT     H251954   4.736   9.276   0.736
17238WAT      O51955   7.055   7.853   9.354
17238WAT     H151956   7.073   7.884   9.447
17238WAT     H251957   7.110   7.772   9.335
17239WAT      O51958   3.929   5.485   8.158
17239WAT     H151959   3.867   5.425   8.210
17239WAT     H251960   4.023   5.452   8.167
17240WAT      O51961   1.864   2.935   7.039
17240WAT     H151962   1.922   2.886   7.104
17240WAT     H251963   1.810   3.004   7.088
17241WAT      O51964   5.056   7.528   7.973
17241WAT     H151965   5.031   7.486   8.060
17241WAT     H251966   4.973   7.556   7.924
17242WAT      O51967   3.802   5.149   5.124
17242WAT     H151968   3.857   5.076   5.084
17242WAT     H251969   3.712   5.152   5.081
17243WAT      O51970   3.011   6.389   1.765
17243WAT     H151971   2.933   6.331   1.789
17243WAT     H251972   2.984   6.454   1.694
17244WAT      O51973   6.651   2.941   9.170
17244WAT     H151974   6.566   2.891   9.157
17244WAT     H251975   6.631   3.038   9.184
17245WAT      O51976   5.295   0.483   2.808
17245WAT     H151977   5.256   0.507   2.719
17245WAT     H251978   5.330   0.389   2.804
17246WAT      O51979   5.832   9.167   6.065
17246WAT     H151980   5.882   9.109   6.129
17246WAT     H251981   5.788   9.241   6.115
17247WAT      O51982   7.246   7.405   6.242
17247WAT     H151983   7.273   7.456   6.324
17247WAT     H251984   7.264   7.308   6.255
17248WAT      O51985   9.342   9.465   2.089
17248WAT     H151986   9.433   9.432   2.064
17248WAT     H251987   9.307   9.412   2.166
17249WAT      O51988   8.402   0.952   0.064
17249WAT     H151989   8.327   0.978   0.003
17249WAT     H251990   8.453   1.034   0.091
17250WAT      O51991   6.917   4.926   3.877
17250WAT     H151992   6.843   4.957   3.936
17250WAT     H251993   6.982   4.871   3.930
17251WAT      O51994   1.419   1.264   4.774
17251WAT     H151995   1.413   1.278   4.676
17251WAT     H251996   1.490   1.196   4.794
17252WAT      O51997   1.599   0.580   2.783
17252WAT     H151998   1.678   0.641   2.788
17252WAT     H251999   1.626   0.494   2.739
17253WAT      O52000   0.800   3.369   3.702
17253WAT     H152001   0.872   3.325   3.756
17253WAT     H252002   0.803   3.468   3.717
17254WAT      O52003   6.515   6.939   2.003
17254WAT     H152004   6.566   6.984   1.930
17254WAT     H252005   6.483   7.007   2.068
17255WAT      O52006   8.627   1.807   0.030
17255WAT     H152007   8.670   1.864  -0.040
17255WAT     H252008   8.528   1.808   0.017
17256WAT      O52009   4.632   3.802   2.190
17256WAT     H152010   4.558   3.754   2.144
17256WAT     H252011   4.636   3.896   2.159
17257WAT      O52012   1.143   8.920   5.917
17257WAT     H152013   1.060   8.964   5.952
17257WAT     H252014   1.120   8.831   5.879
17258WAT      O52015   8.055   6.745   8.273
17258WAT     H152016   8.093   6.655   8.249
17258WAT     H252017   8.125   6.798   8.322
17259WAT      O52018   8.670   1.526   9.067
17259WAT     H152019   8.762   1.496   9.089
17259WAT     H252020   8.660   1.534   8.968
17260WAT      O52021   3.312   4.930   0.388
17260WAT     H152022   3.405   4.935   0.424
17260WAT     H252023   3.315   4.930   0.288
17261WAT      O52024   9.071   0.282   3.947
17261WAT     H152025   9.031   0.205   3.898
17261WAT     H252026   9.167   0.293   3.923
17262WAT      O52027   6.465   2.942   1.531
17262WAT     H152028   6.544   2.881   1.530
17262WAT     H252029   6.432   2.955   1.438
17263WAT      O52030   5.728   0.398   4.570
17263WAT     H152031   5.640   0.436   4.540
17263WAT     H252032   5.761   0.333   4.502
17264WAT      O52033   0.888   4.596   2.550
17264WAT     H152034   0.810   4.544   2.517
17264WAT     H252035   0.921   4.557   2.636
17265WAT      O52036   9.473   3.570   8.843
17265WAT     H152037   9.381   3.555   8.806
17265WAT     H252038   9.541   3.556   8.771
17266WAT      O52039   5.713   0.832   8.751
17266WAT     H152040   5.661   0.888   8.816
17266WAT     H252041   5.650   0.785   8.689
17267WAT      O52042   6.301   6.267   8.135
17267WAT     H152043   6.263   6.356   8.159
17267WAT     H252044   6.301   6.208   8.216
17268WAT      O52045   6.123   0.319   4.262
17268WAT     H152046   6.155   0.295   4.353
17268WAT     H252047   6.187   0.282   4.194
17269WAT      O52048   2.505   5.428   6.788
17269WAT     H152049   2.473   5.446   6.695
17269WAT     H252050   2.486   5.507   6.846
17270WAT      O52051   7.307   5.847   6.791
17270WAT     H152052   7.222   5.889   6.758
17270WAT     H252053   7.290   5.802   6.878
17271WAT      O52054   8.068   0.611   5.220
17271WAT     H152055   8.137   0.587   5.289
17271WAT     H252056   8.000   0.672   5.261
17272WAT      O52057   6.405   9.030   7.602
17272WAT     H152058   6.381   9.054   7.508
17272WAT     H252059   6.502   9.006   7.606
17273WAT      O52060   0.863   3.019   4.220
17273WAT     H152061   0.925   3.096   4.233
17273WAT     H252062   0.812   3.002   4.304
17274WAT      O52063   1.223   6.403   8.150
17274WAT     H152064   1.202   6.318   8.102
17274WAT     H252065   1.215   6.389   8.249
17275WAT      O52066   9.304   8.877   0.343
17275WAT     H152067   9.369   8.847   0.413
17275WAT     H252068   9.293   8.804   0.275
17276WAT      O52069   9.629   4.075   8.346
17276WAT     H152070   9.665   3.998   8.399
17276WAT     H252071   9.529   4.073   8.350
17277WAT      O52072   9.084   0.938   2.731
17277WAT     H152073   9.101   0.977   2.822
17277WAT     H252074   8.990   0.904   2.727
17278WAT      O52075   9.002   5.710   1.520
17278WAT     H152076   8.945   5.769   1.462
17278WAT     H252077   9.024   5.627   1.470
17279WAT      O52078   9.138   7.000   2.840
17279WAT     H152079   9.231   7.032   2.857
17279WAT     H252080   9.138   6.900   2.837
17280WAT      O52081   9.637   5.131   0.167
17280WAT     H152082   9.651   5.063   0.239
17280WAT     H252083   9.553   5.111   0.117
17281WAT      O52084   1.499   3.459   1.513
17281WAT     H152085   1.570   3.433   1.579
17281WAT     H252086   1.537   3.453   1.420
17282WAT      O52087   4.372   9.063   8.910
17282WAT     H152088   4.276   9.039   8.913
17282WAT     H252089   4.386   9.139   8.846
17283WAT      O52090   1.571   1.899   5.755
17283WAT     H152091   1.668   1.888   5.776
17283WAT     H252092   1.518   1.900   5.840
17284WAT      O52093   9.099   7.145   4.405
17284WAT     H152094   9.009   7.155   4.364
17284WAT     H252095   9.154   7.082   4.351
17285WAT      O52096   7.437   2.433   6.107
17285WAT     H152097   7.503   2.373   6.063
17285WAT     H252098   7.404   2.500   6.040
17286WAT      O52099   6.579   5.371   6.883
17286WAT     H152100   6.594   5.382   6.785
17286WAT     H252101   6.519   5.292   6.899
17287WAT      O52102   0.773   1.642   0.159
17287WAT     H152103   0.827   1.725   0.177
17287WAT     H252104   0.831   1.574   0.115
17288WAT      O52105   9.581   5.534   5.384
17288WAT     H152106   9.673   5.569   5.401
17288WAT     H252107   9.570   5.515   5.286
17289WAT      O52108   6.321   4.038   1.432
17289WAT     H152109   6.280   4.123   1.398
17289WAT     H252110   6.304   4.030   1.530
17290WAT      O52111   3.178   8.857   8.041
17290WAT     H152112   3.277   8.867   8.031
17290WAT     H252113   3.134   8.947   8.039
17291WAT      O52114   9.131   6.360   1.035
17291WAT     H152115   9.188   6.301   1.093
17291WAT     H252116   9.189   6.402   0.965
17292WAT      O52117   8.437   4.050   9.798
17292WAT     H152118   8.435   4.141   9.840
17292WAT     H252119   8.525   4.035   9.753
17293WAT      O52120   8.231  -0.004   4.680
17293WAT     H152121   8.140   0.004   4.721
17293WAT     H252122   8.250   0.079   4.627
17294WAT      O52123   2.718   9.577   6.150
17294WAT     H152124   2.743   9.540   6.061
17294WAT     H252125   2.621   9.603   6.150
17295WAT      O52126   4.589   2.249   9.140
17295WAT     H152127   4.551   2.283   9.226
17295WAT     H252128   4.689   2.253   9.144
17296WAT      O52129   7.285   7.048   1.835
17296WAT     H152130   7.202   7.038   1.781
17296WAT     H252131   7.291   6.974   1.902
17297WAT      O52132   2.603   1.538   9.657
17297WAT     H152133   2.529   1.600   9.683
17297WAT     H252134   2.675   1.541   9.726
17298WAT      O52135   8.698   4.102   4.849
17298WAT     H152136   8.726   4.198   4.857
17298WAT     H252137   8.602   4.093   4.875
17299WAT      O52138   7.004   4.589   4.805
17299WAT     H152139   6.927   4.642   4.840
17299WAT     H252140   6.973   4.497   4.781
17300WAT      O52141   0.483   9.564   7.175
17300WAT     H152142   0.524   9.484   7.131
17300WAT     H252143   0.517   9.647   7.131
17301WAT      O52144   4.321   4.485   4.180
17301WAT     H152145   4.224   4.480   4.202
17301WAT     H252146   4.375   4.473   4.264
17302WAT      O52147   4.283   8.775   4.232
17302WAT     H152148   4.314   8.712   4.161
17302WAT     H252149   4.363   8.812   4.281
17303WAT      O52150   9.326   1.412   9.206
17303WAT     H152151   9.317   1.318   9.173
17303WAT     H252152   9.363   1.411   9.299
17304WAT      O52153   5.123   3.500   9.178
17304WAT     H152154   5.078   3.445   9.108
17304WAT     H252155   5.213   3.530   9.144
17305WAT      O52156   3.815   6.123   1.276
17305WAT     H152157   3.738   6.174   1.237
17305WAT     H252158   3.870   6.086   1.202
17306WAT      O52159   5.759   5.558   1.307
17306WAT     H152160   5.779   5.478   1.251
17306WAT     H252161   5.663   5.556   1.335
17307WAT      O52162   1.136   6.213   9.692
17307WAT     H152163   1.224   6.169   9.709
17307WAT     H252164   1.074   6.148   9.648
17308WAT      O52165   2.113   3.570   0.908
17308WAT     H152166   2.068   3.641   0.962
17308WAT     H252167   2.212   3.581   0.915
17309WAT      O52168   5.377   3.251   0.727
17309WAT     H152169   5.296   3.262   0.785
17309WAT     H252170   5.350   3.264   0.631
17310WAT      O52171   3.688   0.707   4.644
17310WAT     H152172   3.621   0.670   4.579
17310WAT     H252173   3.667   0.803   4.662
17311WAT      O52174   1.134   1.642   0.482
17311WAT     H152175   1.232   1.622   0.484
17311WAT     H252176   1.106   1.665   0.389
17312WAT      O52177   7.622   2.474   1.865
17312WAT     H152178   7.549   2.405   1.865
17312WAT     H252179   7.600   2.546   1.931
17313WAT      O52180   8.983   1.087   1.849
17313WAT     H152181   8.997   1.141   1.766
17313WAT     H252182   9.016   0.994   1.836
17314WAT      O52183   6.098   5.273   6.660
17314WAT     H152184   6.071   5.368   6.644
17314WAT     H252185   6.194   5.261   6.633
17315WAT      O52186   5.296   3.056   2.856
17315WAT     H152187   5.393   3.033   2.858
17315WAT     H252188   5.270   3.088   2.765
17316WAT      O52189   6.516   5.820   7.693
17316WAT     H152190   6.429   5.773   7.706
17316WAT     H252191   6.563   5.782   7.613
17317WAT      O52192   2.550   5.925   6.480
17317WAT     H152193   2.503   5.845   6.443
17317WAT     H252194   2.507   6.008   6.445
17318WAT      O52195   8.703   3.874   6.189
17318WAT     H152196   8.614   3.916   6.170
17318WAT     H252197   8.752   3.859   6.104
17319WAT      O52198   4.882   7.405   6.746
17319WAT     H152199   4.854   7.344   6.820
17319WAT     H252200   4.802   7.448   6.705
17320WAT      O52201   5.147   5.000   4.301
17320WAT     H152202   5.176   4.916   4.255
17320WAT     H252203   5.055   5.025   4.272
17321WAT      O52204   2.138   5.206   6.665
17321WAT     H152205   2.120   5.304   6.675
17321WAT     H252206   2.194   5.190   6.584
17322WAT      O52207   2.432   0.439   9.447
17322WAT     H152208   2.482   0.388   9.517
17322WAT     H252209   2.351   0.481   9.489
17323WAT      O52210   9.494   9.825   1.081
17323WAT     H152211   9.511   9.822   1.179
17323WAT     H252212   9.508   9.734   1.041
17324WAT      O52213   8.901   9.675   3.069
17324WAT     H152214   8.955   9.757   3.046
17324WAT     H252215   8.883   9.623   2.986
17325WAT      O52216   3.198   3.613   9.499
17325WAT     H152217   3.182   3.528   9.549
17325WAT     H252218   3.195   3.690   9.562
17326WAT      O52219   3.011   2.642   2.345
17326WAT     H152220   2.960   2.695   2.414
17326WAT     H252221   3.098   2.688   2.326
17327WAT      O52222   0.796   0.549   8.232
17327WAT     H152223   0.738   0.468   8.229
17327WAT     H252224   0.797   0.592   8.142
17328WAT      O52225   8.386   6.259   4.606
17328WAT     H152226   8.299   6.243   4.653
17328WAT     H252227   8.408   6.357   4.611
17329WAT      O52228   0.840   1.787   0.509
17329WAT     H152229   0.889   1.844   0.443
17329WAT     H252230   0.876   1.805   0.601
17330WAT      O52231   5.850   6.577   2.658
17330WAT     H152232   5.934   6.598   2.609
17330WAT     H252233   5.842   6.636   2.738
17331WAT      O52234   6.948   1.954   0.369
17331WAT     H152235   6.885   1.923   0.299
17331WAT     H252236   6.997   1.875   0.407
17332WAT      O52237   5.255   7.798   4.525
17332WAT     H152238   5.177   7.798   4.588
17332WAT     H252239   5.225   7.829   4.435
17333WAT      O52240   5.135   2.578   5.842
17333WAT     H152241   5.168   2.485   5.828
17333WAT     H252242   5.106   2.589   5.937
17334WAT      O52243   1.059   5.734   4.734
17334WAT     H152244   1.014   5.696   4.654
17334WAT     H252245   1.089   5.828   4.715
17335WAT      O52246   2.323   8.380   3.892
17335WAT     H152247   2.332   8.281   3.891
17335WAT     H252248   2.412   8.422   3.911
17336WAT      O52249   9.443   1.547   4.524
17336WAT     H152250   9.501   1.559   4.443
17336WAT     H252251   9.384   1.467   4.511
17337WAT      O52252   9.674   1.547   7.093
17337WAT     H152253   9.719   1.460   7.110
17337WAT     H252254   9.724   1.620   7.139
17338WAT      O52255   6.339   9.214   7.400
17338WAT     H152256   6.388   9.285   7.451
17338WAT     H252257   6.358   9.224   7.303
17339WAT      O52258   4.041   4.994   8.632
17339WAT     H152259   4.088   4.918   8.587
17339WAT     H252260   3.988   5.046   8.565
17340WAT      O52261   8.358   7.216   6.671
17340WAT     H152262   8.335   7.215   6.574
17340WAT     H252263   8.390   7.126   6.699
17341WAT      O52264   6.290   1.406   3.989
17341WAT     H152265   6.248   1.375   4.075
17341WAT     H252266   6.220   1.446   3.930
17342WAT      O52267   4.863   2.970   2.676
17342WAT     H152268   4.871   3.008   2.768
17342WAT     H252269   4.766   2.966   2.651
17343WAT      O52270   8.123   7.174   1.476
17343WAT     H152271   8.034   7.217   1.489
17343WAT     H252272   8.121   7.081   1.513
17344WAT      O52273   7.624   1.559   4.780
17344WAT     H152274   7.679   1.500   4.721
17344WAT     H252275   7.626   1.653   4.744
17345WAT      O52276   1.958   3.025   6.061
17345WAT     H152277   2.030   2.981   6.008
17345WAT     H252278   1.991   3.112   6.096
17346WAT      O52279   0.344   0.685   2.066
17346WAT     H152280   0.300   0.613   2.120
17346WAT     H252281   0.405   0.738   2.124
17347WAT      O52282   0.262   1.339   3.281
17347WAT     H152283   0.347   1.314   3.326
17347WAT     H252284   0.188   1.280   3.315
17348WAT      O52285   7.506   1.817   3.476
17348WAT     H152286   7.510   1.775   3.567
17348WAT     H252287   7.520   1.747   3.406
17349WAT      O52288   4.780   2.243   2.748
17349WAT     H152289   4.780   2.145   2.770
17349WAT     H252290   4.694   2.268   2.704
17350WAT      O52291   1.991   9.265   4.729
17350WAT     H152292   2.014   9.199   4.657
17350WAT     H252293   1.941   9.219   4.802
17351WAT      O52294   1.601   3.985   6.723
17351WAT     H152295   1.580   3.897   6.767
17351WAT     H252296   1.662   4.038   6.781
17352WAT      O52297   3.129   0.947   9.421
17352WAT     H152298   3.154   0.860   9.462
17352WAT     H252299   3.099   1.010   9.492
17353WAT      O52300   1.945   8.493   2.183
17353WAT     H152301   1.967   8.400   2.213
17353WAT     H252302   1.861   8.492   2.129
17354WAT      O52303   6.419   1.258   0.980
17354WAT     H152304   6.401   1.244   1.077
17354WAT     H252305   6.386   1.179   0.928
17355WAT      O52306   5.033   6.967   0.079
17355WAT     H152307   5.000   7.036   0.014
17355WAT     H252308   5.130   6.948   0.061
17356WAT      O52309   2.681   8.746   6.512
17356WAT     H152310   2.635   8.834   6.499
17356WAT     H252311   2.713   8.711   6.424
17357WAT      O52312   1.269   0.470   0.840
17357WAT     H152313   1.215   0.492   0.922
17357WAT     H252314   1.364   0.452   0.867
17358WAT      O52315   0.379   3.020   7.152
17358WAT     H152316   0.474   3.025   7.120
17358WAT     H252317   0.350   3.109   7.186
17359WAT      O52318   2.454   9.673   1.636
17359WAT     H152319   2.499   9.739   1.577
17359WAT     H252320   2.366   9.647   1.595
17360WAT      O52321   0.886   1.494   4.554
17360WAT     H152322   0.985   1.487   4.566
17360WAT     H252323   0.864   1.582   4.511
17361WAT      O52324   9.263   8.258   8.609
17361WAT     H152325   9.301   8.184   8.665
17361WAT     H252326   9.226   8.329   8.670
17362WAT      O52327   7.723   4.630   9.690
17362WAT     H152328   7.776   4.715   9.690
17362WAT     H252329   7.778   4.556   9.652
17363WAT      O52330   4.807   5.654   8.385
17363WAT     H152331   4.744   5.641   8.308
17363WAT     H252332   4.895   5.687   8.351
17364WAT      O52333   7.810   0.569   6.965
17364WAT     H152334   7.857   0.501   7.021
17364WAT     H252335   7.814   0.540   6.869
17365WAT      O52336   7.674   8.973   1.892
17365WAT     H152337   7.707   9.039   1.824
17365WAT     H252338   7.716   8.992   1.980
17366WAT      O52339   3.360   2.819   4.930
17366WAT     H152340   3.336   2.723   4.916
17366WAT     H252341   3.372   2.864   4.842
17367WAT      O52342   1.465   9.489   1.648
17367WAT     H152343   1.408   9.491   1.566
17367WAT     H252344   1.560   9.506   1.623
17368WAT      O52345   4.937   3.295   0.983
17368WAT     H152346   4.907   3.305   1.077
17368WAT     H252347   4.862   3.260   0.927
17369WAT      O52348   2.730   0.639   2.701
17369WAT     H152349   2.722   0.645   2.602
17369WAT     H252350   2.759   0.547   2.727
17370WAT      O52351   7.170   9.431   6.267
17370WAT     H152352   7.236   9.381   6.210
17370WAT     H252353   7.217   9.472   6.345
17371WAT      O52354   5.182   7.051   0.857
17371WAT     H152355   5.162   7.046   0.760
17371WAT     H252356   5.259   6.991   0.879
17372WAT      O52357   9.824   5.891   0.792
17372WAT     H152358   9.895   5.824   0.813
17372WAT     H252359   9.865   5.981   0.781
17373WAT      O52360   1.595   8.481   0.051
17373WAT     H152361   1.661   8.433   0.110
17373WAT     H252362   1.571   8.568   0.093
17374WAT      O52363   0.860   1.830   6.646
17374WAT     H152364   0.840   1.828   6.744
17374WAT     H252365   0.774   1.823   6.595
17375WAT      O52366   3.112   6.464   9.006
17375WAT     H152367   3.212   6.477   9.003
17375WAT     H252368   3.092   6.379   9.056
17376WAT      O52369   4.055   4.497   4.245
17376WAT     H152370   4.079   4.571   4.308
17376WAT     H252371   3.978   4.446   4.281
17377WAT      O52372   7.793   3.864   1.127
17377WAT     H152373   7.787   3.827   1.034
17377WAT     H252374   7.885   3.898   1.143
17378WAT      O52375   8.983   8.702   9.311
17378WAT     H152376   8.953   8.734   9.401
17378WAT     H252377   8.991   8.780   9.249
17379WAT      O52378   5.590   8.449   8.486
17379WAT     H152379   5.666   8.439   8.421
17379WAT     H252380   5.614   8.518   8.554
17380WAT      O52381   7.180   6.365   6.411
17380WAT     H152382   7.106   6.385   6.475
17380WAT     H252383   7.155   6.398   6.320
17381WAT      O52384   0.340   7.334   5.056
17381WAT     H152385   0.408   7.313   4.985
17381WAT     H252386   0.248   7.315   5.021
17382WAT      O52387   2.341   5.297   0.048
17382WAT     H152388   2.363   5.288   0.145
17382WAT     H252389   2.410   5.249  -0.006
17383WAT      O52390   4.823   9.696   5.406
17383WAT     H152391   4.769   9.749   5.471
17383WAT     H252392   4.911   9.673   5.447
17384WAT      O52393   5.383   0.696   1.380
17384WAT     H152394   5.468   0.679   1.430
17384WAT     H252395   5.404   0.725   1.287
17385WAT      O52396   2.134   7.493   4.689
17385WAT     H152397   2.226   7.460   4.708
17385WAT     H252398   2.102   7.547   4.767
17386WAT      O52399   9.247   8.664   8.277
17386WAT     H152400   9.211   8.617   8.197
17386WAT     H252401   9.313   8.733   8.248
17387WAT      O52402   1.118   9.368   3.549
17387WAT     H152403   1.027   9.327   3.553
17387WAT     H252404   1.169   9.329   3.473
17388WAT      O52405   3.744   8.318   8.598
17388WAT     H152406   3.712   8.224   8.593
17388WAT     H252407   3.790   8.332   8.686
17389WAT      O52408   3.803   7.853   0.108
17389WAT     H152409   3.743   7.908   0.050
17389WAT     H252410   3.848   7.782   0.053
17390WAT      O52411   5.379   1.141   1.711
17390WAT     H152412   5.468   1.184   1.724
17390WAT     H252413   5.314   1.179   1.778
17391WAT      O52414   0.341   6.175   7.017
17391WAT     H152415   0.394   6.203   7.097
17391WAT     H252416   0.246   6.206   7.027
17392WAT      O52417   5.758   9.719   3.675
17392WAT     H152418   5.803   9.678   3.596
17392WAT     H252419   5.808   9.695   3.759
17393WAT      O52420   7.408   9.206   8.800
17393WAT     H152421   7.413   9.242   8.894
17393WAT     H252422   7.472   9.256   8.742
17394WAT      O52423   2.603   8.900   5.699
17394WAT     H152424   2.546   8.924   5.778
17394WAT     H252425   2.573   8.811   5.663
17395WAT      O52426   4.131   2.439   4.349
17395WAT     H152427   4.136   2.444   4.249
17395WAT     H252428   4.178   2.357   4.381
17396WAT      O52429   7.204   6.669   3.249
17396WAT     H152430   7.294   6.700   3.217
17396WAT     H252431   7.133   6.729   3.213
17397WAT      O52432   8.015   8.450   0.619
17397WAT     H152433   8.096   8.484   0.666
17397WAT     H252434   7.961   8.527   0.585
17398WAT      O52435   5.813   9.075   8.696
17398WAT     H152436   5.810   9.134   8.615
17398WAT     H252437   5.758   9.116   8.769
17399WAT      O52438   5.912   3.004   5.222
17399WAT     H152439   5.844   2.963   5.283
17399WAT     H252440   5.947   3.088   5.263
17400WAT      O52441   9.389   6.020   0.362
17400WAT     H152442   9.422   5.928   0.340
17400WAT     H252443   9.452   6.088   0.325
17401WAT      O52444   5.280   1.221   8.354
17401WAT     H152445   5.221   1.166   8.414
17401WAT     H252446   5.249   1.212   8.259
17402WAT      O52447   3.402   1.832   6.968
17402WAT     H152448   3.333   1.867   6.905
17402WAT     H252449   3.441   1.909   7.020
17403WAT      O52450   1.168   9.324   6.115
17403WAT     H152451   1.199   9.355   6.025
17403WAT     H252452   1.220   9.370   6.187
17404WAT      O52453   1.033   3.615   1.011
17404WAT     H152454   0.940   3.611   1.046
17404WAT     H252455   1.054   3.530   0.962
17405WAT      O52456   5.080   8.965   4.029
17405WAT     H152457   4.984   8.995   4.021
17405WAT     H252458   5.084   8.882   4.084
17406WAT      O52459   9.737   9.522   0.247
17406WAT     H152460   9.692   9.599   0.202
17406WAT     H252461   9.692   9.502   0.334
17407WAT      O52462   9.840   9.277   0.995
17407WAT     H152463   9.814   9.257   0.900
17407WAT     H252464   9.851   9.191   1.045
17408WAT      O52465   0.491   9.266   3.259
17408WAT     H152466   0.405   9.216   3.247
17408WAT     H252467   0.473   9.365   3.254
17409WAT      O52468   4.397   1.858   4.406
17409WAT     H152469   4.469   1.862   4.337
17409WAT     H252470   4.437   1.839   4.495
17410WAT      O52471   6.178   7.953   5.327
17410WAT     H152472   6.166   7.981   5.232
17410WAT     H252473   6.103   7.988   5.382
17411WAT      O52474   8.633   9.603   3.556
17411WAT     H152475   8.554   9.594   3.495
17411WAT     H252476   8.668   9.696   3.551
17412WAT      O52477   4.170   7.125   9.124
17412WAT     H152478   4.130   7.054   9.067
17412WAT     H252479   4.098   7.176   9.170
17413WAT      O52480   7.805   2.525   5.992
17413WAT     H152481   7.771   2.557   5.904
17413WAT     H252482   7.885   2.467   5.978
17414WAT      O52483   8.796   0.655   6.334
17414WAT     H152484   8.714   0.599   6.319
17414WAT     H252485   8.819   0.703   6.249
17415WAT      O52486   4.080   3.572   1.603
17415WAT     H152487   3.988   3.543   1.578
17415WAT     H252488   4.091   3.565   1.703
17416WAT      O52489   2.740   6.109   7.861
17416WAT     H152490   2.746   6.138   7.956
17416WAT     H252491   2.743   6.189   7.801
17417WAT      O52492   9.515   9.301   9.438
17417WAT     H152493   9.418   9.278   9.443
17417WAT     H252494   9.529   9.375   9.372
17418WAT      O52495   2.978   2.881   4.798
17418WAT     H152496   2.892   2.931   4.807
17418WAT     H252497   3.045   2.938   4.750
17419WAT      O52498   4.024   3.915   9.353
17419WAT     H152499   3.950   3.848   9.360
17419WAT     H252500   4.021   3.959   9.264
17420WAT      O52501   1.166   7.256   4.600
17420WAT     H152502   1.223   7.252   4.682
17420WAT     H252503   1.071   7.275   4.627
17421WAT      O52504   9.202   7.968   0.624
17421WAT     H152505   9.228   8.057   0.588
17421WAT     H252506   9.204   7.971   0.724
17422WAT      O52507   2.364   6.749   9.412
17422WAT     H152508   2.282   6.764   9.356
17422WAT     H252509   2.361   6.658   9.453
17423WAT      O52510   8.458   5.116   8.975
17423WAT     H152511   8.384   5.061   9.014
17423WAT     H252512   8.420   5.181   8.909
17424WAT      O52513   1.290   6.245   5.976
17424WAT     H152514   1.322   6.315   5.912
17424WAT     H252515   1.304   6.155   5.937
17425WAT      O52516   3.680   3.978   1.983
17425WAT     H152517   3.757   4.000   1.923
17425WAT     H252518   3.697   4.015   2.074
17426WAT      O52519   1.700   6.746   8.963
17426WAT     H152520   1.792   6.782   8.950
17426WAT     H252521   1.676   6.749   9.061
17427WAT      O52522   2.793   3.776   3.586
17427WAT     H152523   2.785   3.791   3.685
17427WAT     H252524   2.777   3.863   3.538
17428WAT      O52525   7.065   1.172   6.395
17428WAT     H152526   7.127   1.216   6.330
17428WAT     H252527   7.036   1.239   6.464
17429WAT      O52528   6.126   3.231   0.774
17429WAT     H152529   6.089   3.161   0.836
17429WAT     H252530   6.157   3.188   0.689
17430WAT      O52531   0.983   3.686   4.061
17430WAT     H152532   0.921   3.608   4.059
17430WAT     H252533   1.036   3.689   3.976
17431WAT      O52534   3.716   4.026   8.505
17431WAT     H152535   3.790   3.958   8.497
17431WAT     H252536   3.669   4.013   8.592
17432WAT      O52537   2.806   7.174   1.791
17432WAT     H152538   2.902   7.165   1.762
17432WAT     H252539   2.746   7.147   1.716
17433WAT      O52540   4.879   6.403   4.195
17433WAT     H152541   4.934   6.480   4.163
17433WAT     H252542   4.797   6.395   4.139
17434WAT      O52543   7.918   8.788   7.299
17434WAT     H152544   7.958   8.736   7.223
17434WAT     H252545   7.932   8.738   7.384
17435WAT      O52546   7.689   2.194   5.067
17435WAT     H152547   7.699   2.099   5.098
17435WAT     H252548   7.730   2.204   4.976
17436WAT      O52549   1.937   9.179   0.849
17436WAT     H152550   1.931   9.259   0.908
17436WAT     H252551   1.866   9.183   0.779
17437WAT      O52552   1.528   5.049   5.404
17437WAT     H152553   1.495   5.020   5.314
17437WAT     H252554   1.485   5.136   5.428
17438WAT      O52555   4.438   3.634   0.677
17438WAT     H152556   4.441   3.678   0.767
17438WAT     H252557   4.411   3.538   0.689
17439WAT      O52558   6.301   4.693   1.381
17439WAT     H152559   6.290   4.594   1.384
17439WAT     H252560   6.398   4.717   1.392
17440WAT      O52561   8.523   2.435   4.973
17440WAT     H152562   8.583   2.510   4.947
17440WAT     H252563   8.509   2.374   4.895
17441WAT      O52564   5.156   1.511   4.088
17441WAT     H152565   5.064   1.540   4.115
17441WAT     H252566   5.204   1.588   4.045
17442WAT      O52567   9.856   2.720   1.748
17442WAT     H152568   9.789   2.765   1.688
17442WAT     H252569   9.945   2.765   1.738
17443WAT      O52570   2.227   9.758   8.468
17443WAT     H152571   2.179   9.675   8.496
17443WAT     H252572   2.170   9.810   8.405
17444WAT      O52573   5.288   6.564   2.273
17444WAT     H152574   5.375   6.611   2.261
17444WAT     H252575   5.300   6.488   2.337
17445WAT      O52576   0.444   1.536   7.134
17445WAT     H152577   0.409   1.584   7.214
17445WAT     H252578   0.533   1.573   7.107
17446WAT      O52579   8.030   6.422   5.200
17446WAT     H152580   8.037   6.383   5.108
17446WAT     H252581   8.067   6.515   5.199
17447WAT      O52582   4.765   0.621   0.144
17447WAT     H152583   4.769   0.690   0.072
17447WAT     H252584   4.852   0.572   0.149
17448WAT      O52585   7.201   6.199   2.365
17448WAT     H152586   7.121   6.234   2.316
17448WAT     H252587   7.235   6.270   2.427
17449WAT      O52588   7.301   8.203   7.429
17449WAT     H152589   7.306   8.229   7.333
17449WAT     H252590   7.359   8.123   7.445
17450WAT      O52591   3.883   4.525   2.050
17450WAT     H152592   3.958   4.504   2.113
17450WAT     H252593   3.853   4.619   2.065
17451WAT      O52594   2.370   0.655   0.631
17451WAT     H152595   2.311   0.624   0.557
17451WAT     H252596   2.402   0.748   0.612
17452WAT      O52597   1.523   0.682   7.687
17452WAT     H152598   1.524   0.770   7.640
17452WAT     H252599   1.605   0.630   7.663
17453WAT      O52600   4.638   1.632   3.743
17453WAT     H152601   4.564   1.699   3.745
17453WAT     H252602   4.677   1.627   3.651
17454WAT      O52603   6.295   2.457   1.066
17454WAT     H152604   6.278   2.359   1.064
17454WAT     H252605   6.339   2.485   0.981
17455WAT      O52606   7.399   0.313   6.755
17455WAT     H152607   7.466   0.259   6.806
17455WAT     H252608   7.397   0.406   6.791
17456WAT      O52609   2.078   4.599   8.036
17456WAT     H152610   2.134   4.550   8.103
17456WAT     H252611   2.131   4.612   7.952
17457WAT      O52612   2.890   9.185   8.911
17457WAT     H152613   2.954   9.255   8.880
17457WAT     H252614   2.839   9.218   8.991
17458WAT      O52615   6.886   2.494   0.384
17458WAT     H152616   6.945   2.452   0.315
17458WAT     H252617   6.942   2.545   0.449
17459WAT      O52618   1.313   1.694   0.037
17459WAT     H152619   1.372   1.721  -0.039
17459WAT     H252620   1.352   1.613   0.082
17460WAT      O52621   3.321   2.140   1.876
17460WAT     H152622   3.253   2.070   1.853
17460WAT     H252623   3.409   2.116   1.834
17461WAT      O52624   0.808   2.241   3.614
17461WAT     H152625   0.900   2.262   3.646
17461WAT     H252626   0.805   2.148   3.577
17462WAT      O52627   9.781   6.538   5.825
17462WAT     H152628   9.733   6.531   5.912
17462WAT     H252629   9.830   6.625   5.820
17463WAT      O52630   4.785   3.597   6.775
17463WAT     H152631   4.731   3.663   6.722
17463WAT     H252632   4.735   3.572   6.858
17464WAT      O52633   5.412   7.619   0.917
17464WAT     H152634   5.476   7.695   0.900
17464WAT     H252635   5.318   7.651   0.905
17465WAT      O52636   5.651   1.516   1.806
17465WAT     H152637   5.719   1.444   1.819
17465WAT     H252638   5.695   1.605   1.819
17466WAT      O52639   9.694   7.707   7.476
17466WAT     H152640   9.788   7.688   7.449
17466WAT     H252641   9.684   7.695   7.575
17467WAT      O52642   0.473   7.231   1.978
17467WAT     H152643   0.490   7.273   1.888
17467WAT     H252644   0.508   7.292   2.049
17468WAT      O52645   9.288   5.957   5.129
17468WAT     H152646   9.377   5.982   5.090
17468WAT     H252647   9.294   5.960   5.229
17469WAT      O52648   0.347   6.071   4.673
17469WAT     H152649   0.327   6.106   4.582
17469WAT     H252650   0.411   6.133   4.720
17470WAT      O52651   1.106   5.633   0.356
17470WAT     H152652   1.060   5.544   0.354
17470WAT     H252653   1.045   5.704   0.323
17471WAT      O52654   4.769   7.295   8.732
17471WAT     H152655   4.736   7.390   8.736
17471WAT     H252656   4.779   7.268   8.636
17472WAT      O52657   8.430   4.628   8.992
17472WAT     H152658   8.338   4.643   8.954
17472WAT     H252659   8.455   4.707   9.048
17473WAT      O52660   3.354   5.020   6.907
17473WAT     H152661   3.421   4.960   6.864
17473WAT     H252662   3.394   5.110   6.920
17474WAT      O52663   5.130   9.586   2.278
17474WAT     H152664   5.148   9.492   2.305
17474WAT     H252665   5.032   9.597   2.259
17475WAT      O52666   4.436   3.545   4.315
17475WAT     H152667   4.483   3.633   4.308
17475WAT     H252668   4.368   3.549   4.388
17476WAT      O52669   2.051   7.631   2.706
17476WAT     H152670   2.118   7.706   2.709
17476WAT     H252671   2.096   7.548   2.673
17477WAT      O52672   1.570   4.924   4.854
17477WAT     H152673   1.666   4.927   4.826
17477WAT     H252674   1.531   5.016   4.850
17478WAT      O52675   8.801   3.186   0.148
17478WAT     H152676   8.799   3.185   0.048
17478WAT     H252677   8.712   3.215   0.183
17479WAT      O52678   4.719   8.781   0.051
17479WAT     H152679   4.667   8.702   0.020
17479WAT     H252680   4.816   8.758   0.054
17480WAT      O52681   3.741   1.851   5.750
17480WAT     H152682   3.691   1.804   5.823
17480WAT     H252683   3.690   1.934   5.724
17481WAT      O52684   2.151   3.082   2.328
17481WAT     H152685   2.212   3.142   2.275
17481WAT     H252686   2.090   3.034   2.265
17482WAT      O52687   0.533   3.692   7.709
17482WAT     H152688   0.493   3.731   7.792
17482WAT     H252689   0.586   3.762   7.661
17483WAT      O52690   3.304   3.566   5.454
17483WAT     H152691   3.275   3.495   5.391
17483WAT     H252692   3.335   3.525   5.540
17484WAT      O52693   1.876   9.768   9.454
17484WAT     H152694   1.964   9.773   9.408
17484WAT     H252695   1.873   9.687   9.512
17485WAT      O52696   9.214   4.045   2.361
17485WAT     H152697   9.245   4.011   2.273
17485WAT     H252698   9.182   3.969   2.417
17486WAT      O52699   0.910   7.318   6.495
17486WAT     H152700   0.924   7.272   6.583
17486WAT     H252701   0.982   7.289   6.431
17487WAT      O52702   2.188   6.846   5.015
17487WAT     H152703   2.122   6.910   5.055
17487WAT     H252704   2.267   6.897   4.981
17488WAT      O52705   7.905   3.891   0.272
17488WAT     H152706   7.901   3.834   0.190
17488WAT     H252707   7.916   3.833   0.353
17489WAT      O52708   5.127   4.085   7.748
17489WAT     H152709   5.061   4.048   7.813
17489WAT     H252710   5.083   4.153   7.690
17490WAT      O52711   9.350   7.744   6.256
17490WAT     H152712   9.263   7.700   6.278
17490WAT     H252713   9.416   7.674   6.225
17491WAT      O52714   8.239   7.751   8.705
17491WAT     H152715   8.267   7.719   8.796
17491WAT     H252716   8.306   7.723   8.638
17492WAT      O52717   9.097   0.399   4.781
17492WAT     H152718   9.120   0.352   4.866
17492WAT     H252719   9.007   0.369   4.749
17493WAT      O52720   5.149   1.284   3.919
17493WAT     H152721   5.118   1.296   3.824
17493WAT     H252722   5.140   1.370   3.968
17494WAT      O52723   7.954   9.620   8.099
17494WAT     H152724   7.988   9.714   8.101
17494WAT     H252725   7.861   9.617   8.134
17495WAT      O52726   8.002   6.367   3.213
17495WAT     H152727   7.948   6.284   3.225
17495WAT     H252728   7.961   6.441   3.267
17496WAT      O52729   0.695   5.687   2.967
17496WAT     H152730   0.665   5.737   2.886
17496WAT     H252731   0.631   5.612   2.985
17497WAT      O52732   0.060   2.360   7.548
17497WAT     H152733   0.081   2.452   7.515
17497WAT     H252734   0.125   2.334   7.620
17498WAT      O52735   8.460   6.528   4.922
17498WAT     H152736   8.414   6.569   4.843
17498WAT     H252737   8.536   6.470   4.891
17499WAT      O52738   4.020   3.813   0.599
17499WAT     H152739   4.045   3.909   0.608
17499WAT     H252740   4.090   3.764   0.548
17500WAT      O52741   7.519   2.910   0.074
17500WAT     H152742   7.505   2.843   0.147
17500WAT     H252743   7.480   2.998   0.101
17501WAT      O52744   6.876   6.609   4.539
17501WAT     H152745   6.927   6.691   4.513
17501WAT     H252746   6.930   6.556   4.605
17502WAT      O52747   9.050   3.385   4.499
17502WAT     H152748   9.074   3.465   4.444
17502WAT     H252749   9.130   3.326   4.509
17503WAT      O52750   7.153   2.577   0.465
17503WAT     H152751   7.180   2.673   0.464
17503WAT     H252752   7.218   2.525   0.521
17504WAT      O52753   8.054   9.059   8.344
17504WAT     H152754   7.962   9.026   8.323
17504WAT     H252755   8.111   9.053   8.262
17505WAT      O52756   9.632   1.874   3.691
17505WAT     H152757   9.565   1.947   3.679
17505WAT     H252758   9.702   1.881   3.621
17506WAT      O52759   0.429   2.889   8.085
17506WAT     H152760   0.507   2.850   8.036
17506WAT     H252761   0.459   2.966   8.140
17507WAT      O52762   1.188   5.881   9.640
17507WAT     H152763   1.242   5.886   9.724
17507WAT     H252764   1.094   5.855   9.663
17508WAT      O52765   6.041   3.025   4.943
17508WAT     H152766   5.981   3.012   5.021
17508WAT     H252767   5.999   3.088   4.878
17509WAT      O52768   5.636   0.612   0.036
17509WAT     H152769   5.666   0.587   0.128
17509WAT     H252770   5.704   0.670  -0.008
17510WAT      O52771   2.958   1.671   8.799
17510WAT     H152772   2.893   1.641   8.868
17510WAT     H252773   2.908   1.714   8.723
17511WAT      O52774   3.140   9.809   0.828
17511WAT     H152775   3.145   9.711   0.808
17511WAT     H252776   3.046   9.834   0.849
17512WAT      O52777   7.196   7.273   5.082
17512WAT     H152778   7.169   7.188   5.037
17512WAT     H252779   7.230   7.253   5.174
17513WAT      O52780   2.624   3.569   3.931
17513WAT     H152781   2.649   3.493   3.991
17513WAT     H252782   2.546   3.618   3.970
17514WAT      O52783   0.724   9.607   3.981
17514WAT     H152784   0.704   9.620   4.078
17514WAT     H252785   0.796   9.670   3.953
17515WAT      O52786   6.186   6.091   6.991
17515WAT     H152787   6.123   6.017   6.966
17515WAT     H252788   6.235   6.065   7.074
17516WAT      O52789   8.409   8.941   0.176
17516WAT     H152790   8.480   9.011   0.165
17516WAT     H252791   8.368   8.921   0.088
17517WAT      O52792   3.017   0.064   0.140
17517WAT     H152793   3.117   0.056   0.141
17517WAT     H252794   2.992   0.160   0.129
17518WAT      O52795   5.469   3.002   8.161
17518WAT     H152796   5.531   2.952   8.222
17518WAT     H252797   5.398   3.046   8.215
17519WAT      O52798   9.674   5.239   8.851
17519WAT     H152799   9.719   5.214   8.937
17519WAT     H252800   9.736   5.294   8.795
17520WAT      O52801   1.317   8.027   0.356
17520WAT     H152802   1.290   8.118   0.326
17520WAT     H252803   1.240   7.983   0.402
17521WAT      O52804   2.226   1.466   4.457
17521WAT     H152805   2.266   1.386   4.411
17521WAT     H252806   2.130   1.475   4.429
17522WAT      O52807   2.418   0.395   1.422
17522WAT     H152808   2.473   0.318   1.455
17522WAT     H252809   2.459   0.433   1.339
17523WAT      O52810   5.791   4.993   4.803
17523WAT     H152811   5.789   5.035   4.893
17523WAT     H252812   5.757   5.058   4.734
17524WAT      O52813   7.546   7.138   1.781
17524WAT     H152814   7.447   7.122   1.776
17524WAT     H252815   7.571   7.209   1.715
17525WAT      O52816   3.126   5.485   7.089
17525WAT     H152817   3.179   5.424   7.030
17525WAT     H252818   3.045   5.516   7.040
17526WAT      O52819   1.468   1.015   0.815
17526WAT     H152820   1.542   1.081   0.829
17526WAT     H252821   1.382   1.053   0.850
17527WAT      O52822   8.785   9.550   8.005
17527WAT     H152823   8.873   9.513   8.036
17527WAT     H252824   8.798   9.642   7.970
17528WAT      O52825   7.996   4.332   4.505
17528WAT     H152826   7.973   4.326   4.602
17528WAT     H252827   8.023   4.242   4.472
17529WAT      O52828   5.963   3.723   0.503
17529WAT     H152829   5.893   3.785   0.538
17529WAT     H252830   5.919   3.646   0.457
17530WAT      O52831   4.831   3.032   2.391
17530WAT     H152832   4.870   3.031   2.483
17530WAT     H252833   4.790   2.943   2.370
17531WAT      O52834   0.286   5.938   1.368
17531WAT     H152835   0.376   5.920   1.408
17531WAT     H252836   0.285   5.903   1.274
17532WAT      O52837   7.482   1.877   2.486
17532WAT     H152838   7.569   1.906   2.527
17532WAT     H252839   7.452   1.946   2.420
17533WAT      O52840   2.722   9.390   2.479
17533WAT     H152841   2.774   9.382   2.394
17533WAT     H252842   2.767   9.455   2.540
17534WAT      O52843   1.375   4.958   0.518
17534WAT     H152844   1.361   4.948   0.419
17534WAT     H252845   1.317   5.031   0.552
17535WAT      O52846   5.285   4.954   5.875
17535WAT     H152847   5.281   5.049   5.841
17535WAT     H252848   5.224   4.897   5.819
17536WAT      O52849   3.290   6.671   2.969
17536WAT     H152850   3.248   6.600   3.026
17536WAT     H252851   3.303   6.636   2.876
17537WAT      O52852   2.987   5.805   5.644
17537WAT     H152853   3.040   5.842   5.720
17537WAT     H252854   3.006   5.707   5.635
17538WAT      O52855   3.128   3.035   5.721
17538WAT     H152856   3.099   3.050   5.626
17538WAT     H252857   3.185   2.954   5.726
17539WAT      O52858   1.259   8.863   3.134
17539WAT     H152859   1.246   8.908   3.223
17539WAT     H252860   1.171   8.830   3.101
17540WAT      O52861   4.807   9.611   2.502
17540WAT     H152862   4.711   9.635   2.519
17540WAT     H252863   4.815   9.566   2.413
17541WAT      O52864   2.112   8.781   9.106
17541WAT     H152865   2.173   8.706   9.082
17541WAT     H252866   2.100   8.842   9.027
17542WAT      O52867   6.571   6.484   5.232
17542WAT     H152868   6.624   6.435   5.163
17542WAT     H252869   6.565   6.428   5.315
17543WAT      O52870   3.311   7.248   3.519
17543WAT     H152871   3.380   7.235   3.448
17543WAT     H252872   3.329   7.185   3.595
17544WAT      O52873   0.846   3.789   5.983
17544WAT     H152874   0.903   3.726   6.036
17544WAT     H252875   0.810   3.860   6.043
17545WAT      O52876   9.362   1.980   2.240
17545WAT     H152877   9.346   2.022   2.151
17545WAT     H252878   9.277   1.940   2.274
17546WAT      O52879   2.263   3.850   2.697
17546WAT     H152880   2.320   3.930   2.680
17546WAT     H252881   2.199   3.838   2.620
17547WAT      O52882   2.582   6.579   8.826
17547WAT     H152883   2.667   6.566   8.775
17547WAT     H252884   2.523   6.500   8.813
17548WAT      O52885   5.914   9.238   1.888
17548WAT     H152886   5.854   9.307   1.846
17548WAT     H252887   5.865   9.150   1.890
17549WAT      O52888   7.226   7.625   9.082
17549WAT     H152889   7.300   7.559   9.080
17549WAT     H252890   7.216   7.661   9.175
17550WAT      O52891   6.541   9.838   8.556
17550WAT     H152892   6.636   9.842   8.527
17550WAT     H252893   6.519   9.746   8.587
17551WAT      O52894   6.544   5.193   7.417
17551WAT     H152895   6.467   5.171   7.357
17551WAT     H252896   6.512   5.198   7.511
17552WAT      O52897   0.977   4.710   4.013
17552WAT     H152898   1.030   4.783   4.055
17552WAT     H252899   0.910   4.749   3.950
17553WAT      O52900   4.986   0.617   3.199
17553WAT     H152901   4.926   0.682   3.150
17553WAT     H252902   4.977   0.632   3.297
17554WAT      O52903   3.218   0.073   9.727
17554WAT     H152904   3.217   0.080   9.827
17554WAT     H252905   3.311   0.058   9.696
17555WAT      O52906   3.627   3.267   4.922
17555WAT     H152907   3.586   3.253   4.832
17555WAT     H252908   3.590   3.350   4.963
17556WAT      O52909   9.719   4.998   4.749
17556WAT     H152910   9.628   5.040   4.750
17556WAT     H252911   9.776   5.040   4.819
17557WAT      O52912   1.533   2.653   9.473
17557WAT     H152913   1.580   2.590   9.535
17557WAT     H252914   1.460   2.700   9.523
17558WAT      O52915   5.229   5.002   8.752
17558WAT     H152916   5.261   5.064   8.823
17558WAT     H252917   5.237   4.907   8.785
17559WAT      O52918   9.874   3.957   1.752
17559WAT     H152919   9.879   3.857   1.760
17559WAT     H252920   9.798   3.991   1.809
17560WAT      O52921   2.862   4.639   8.329
17560WAT     H152922   2.887   4.631   8.233
17560WAT     H252923   2.928   4.589   8.385
17561WAT      O52924   2.284   7.246   5.767
17561WAT     H152925   2.376   7.241   5.727
17561WAT     H252926   2.258   7.156   5.801
17562WAT      O52927   5.908   7.464   0.418
17562WAT     H152928   5.961   7.507   0.345
17562WAT     H252929   5.958   7.386   0.454
17563WAT      O52930   5.847   4.468   0.570
17563WAT     H152931   5.891   4.512   0.649
17563WAT     H252932   5.815   4.539   0.507
17564WAT      O52933   0.763   0.729   7.207
17564WAT     H152934   0.792   0.799   7.142
17564WAT     H252935   0.722   0.652   7.158
17565WAT      O52936   5.512   7.644   5.771
17565WAT     H152937   5.565   7.726   5.794
17565WAT     H252938   5.513   7.631   5.671
17566WAT      O52939   6.573   5.577   2.062
17566WAT     H152940   6.527   5.666   2.066
17566WAT     H252941   6.509   5.505   2.087
17567WAT      O52942   4.727   7.832   8.547
17567WAT     H152943   4.657   7.792   8.605
17567WAT     H252944   4.794   7.880   8.604
17568WAT      O52945   3.415   2.417   7.589
17568WAT     H152946   3.384   2.486   7.655
17568WAT     H252947   3.441   2.461   7.503
17569WAT      O52948   1.894   4.411   6.324
17569WAT     H152949   1.872   4.463   6.241
17569WAT     H252950   1.811   4.399   6.379
17570WAT      O52951   3.279   9.776   1.945
17570WAT     H152952   3.233   9.814   1.865
17570WAT     H252953   3.317   9.686   1.923
17571WAT      O52954   8.166   2.040   4.590
17571WAT     H152955   8.074   2.079   4.582
17571WAT     H252956   8.170   1.954   4.539
17572WAT      O52957   8.392   2.416   0.373
17572WAT     H152958   8.315   2.458   0.325
17572WAT     H252959   8.406   2.323   0.339
17573WAT      O52960   3.194   6.266   7.443
17573WAT     H152961   3.145   6.224   7.520
17573WAT     H252962   3.283   6.298   7.475
17574WAT      O52963   1.169   7.097   1.301
17574WAT     H152964   1.182   7.193   1.277
17574WAT     H252965   1.251   7.045   1.274
17575WAT      O52966   6.017   5.866   1.391
17575WAT     H152967   6.013   5.782   1.445
17575WAT     H252968   6.073   5.934   1.439
17576WAT      O52969   8.100   3.897   6.999
17576WAT     H152970   8.017   3.951   7.017
17576WAT     H252971   8.085   3.838   6.919
17577WAT      O52972   7.208   5.968   5.416
17577WAT     H152973   7.174   6.059   5.393
17577WAT     H252974   7.304   5.960   5.390
17578WAT      O52975   1.579   1.668   8.276
17578WAT     H152976   1.612   1.631   8.363
17578WAT     H252977   1.598   1.767   8.272
17579WAT      O52978   6.590   2.043   5.907
17579WAT     H152979   6.541   2.074   5.988
17579WAT     H252980   6.628   2.122   5.859
17580WAT      O52981   6.980   6.095   1.436
17580WAT     H152982   6.907   6.120   1.499
17580WAT     H252983   6.940   6.064   1.350
17581WAT      O52984   0.890   3.561   3.169
17581WAT     H152985   0.934   3.596   3.087
17581WAT     H252986   0.933   3.601   3.250
17582WAT      O52987   9.436   6.867   0.307
17582WAT     H152988   9.416   6.965   0.311
17582WAT     H252989   9.491   6.848   0.226
17583WAT      O52990   2.621   2.486   9.318
17583WAT     H152991   2.585   2.404   9.362
17583WAT     H252992   2.583   2.568   9.361
17584WAT      O52993   2.464   0.027   8.353
17584WAT     H152994   2.491   0.059   8.444
17584WAT     H252995   2.386  -0.034   8.361
17585WAT      O52996   6.727   3.363   5.360
17585WAT     H152997   6.701   3.450   5.317
17585WAT     H252998   6.699   3.287   5.302
17586WAT      O52999   3.785   8.889   3.359
17586WAT     H153000   3.875   8.907   3.399
17586WAT     H253001   3.796   8.836   3.275
17587WAT      O53002   1.750   5.596   2.163
17587WAT     H153003   1.731   5.662   2.090
17587WAT     H253004   1.846   5.604   2.190
17588WAT      O53005   0.974   3.460   5.103
17588WAT     H153006   0.881   3.423   5.095
17588WAT     H253007   0.983   3.509   5.189
17589WAT      O53008   1.104   0.539   1.045
17589WAT     H153009   1.151   0.564   1.130
17589WAT     H253010   1.015   0.499   1.066
17590WAT      O53011   0.585   0.914   1.711
17590WAT     H153012   0.530   0.969   1.775
17590WAT     H253013   0.542   0.916   1.621
17591WAT      O53014   5.872   2.235   3.094
17591WAT     H153015   5.818   2.204   3.173
17591WAT     H253016   5.933   2.308   3.124
17592WAT      O53017   0.066   7.851   2.502
17592WAT     H153018   0.031   7.770   2.549
17592WAT     H253019   0.039   7.933   2.552
17593WAT      O53020   8.425   9.644   8.563
17593WAT     H153021   8.345   9.588   8.584
17593WAT     H253022   8.405   9.740   8.586
17594WAT      O53023   0.667   3.702   9.164
17594WAT     H153024   0.609   3.686   9.244
17594WAT     H253025   0.750   3.750   9.192
17595WAT      O53026   5.413   1.288   2.741
17595WAT     H153027   5.471   1.290   2.822
17595WAT     H253028   5.366   1.200   2.736
17596WAT      O53029   0.873   5.484   9.867
17596WAT     H153030   0.805   5.432   9.816
17596WAT     H253031   0.958   5.490   9.814
17597WAT      O53032   3.922   7.023   6.446
17597WAT     H153033   3.823   7.011   6.460
17597WAT     H253034   3.952   7.107   6.492
17598WAT      O53035   0.684   9.702   8.219
17598WAT     H153036   0.586   9.710   8.202
17598WAT     H253037   0.717   9.787   8.260
17599WAT      O53038   0.407   2.071   7.573
17599WAT     H153039   0.324   2.024   7.542
17599WAT     H253040   0.486   2.012   7.559
17600WAT      O53041   2.934   2.047   0.150
17600WAT     H153042   2.855   1.988   0.165
17600WAT     H253043   2.953   2.054   0.052
17601WAT      O53044   3.334   4.354   0.561
17601WAT     H153045   3.347   4.343   0.659
17601WAT     H253046   3.236   4.365   0.542
17602WAT      O53047   3.278   7.391   8.936
17602WAT     H153048   3.195   7.429   8.896
17602WAT     H253049   3.304   7.445   9.016
17603WAT      O53050   5.421   6.528   1.453
17603WAT     H153051   5.375   6.518   1.365
17603WAT     H253052   5.357   6.565   1.520
17604WAT      O53053   1.532   0.669   0.947
17604WAT     H153054   1.520   0.577   0.911
17604WAT     H253055   1.629   0.685   0.967
17605WAT      O53056   1.792   5.871   6.901
17605WAT     H153057   1.857   5.905   6.969
17605WAT     H253058   1.703   5.857   6.945
17606WAT      O53059   5.087   1.490   0.833
17606WAT     H153060   5.154   1.416   0.846
17606WAT     H253061   5.006   1.471   0.887
17607WAT      O53062   6.245   7.338   1.615
17607WAT     H153063   6.212   7.308   1.525
17607WAT     H253064   6.313   7.410   1.603
17608WAT      O53065   2.053   2.665   6.348
17608WAT     H153066   2.110   2.745   6.370
17608WAT     H253067   1.957   2.687   6.364
17609WAT      O53068   7.984   5.660   5.603
17609WAT     H153069   8.047   5.598   5.558
17609WAT     H253070   7.971   5.632   5.698
17610WAT      O53071   8.931   9.115   7.315
17610WAT     H153072   8.992   9.090   7.239
17610WAT     H253073   8.971   9.086   7.401
17611WAT      O53074   6.693   0.918   7.989
17611WAT     H153075   6.612   0.862   7.971
17611WAT     H253076   6.665   1.010   8.015
17612WAT      O53077   2.660   6.717   1.780
17612WAT     H153078   2.721   6.787   1.817
17612WAT     H253079   2.664   6.635   1.838
17613WAT      O53080   2.859   8.010   1.048
17613WAT     H153081   2.944   7.992   1.099
17613WAT     H253082   2.809   8.084   1.092
17614WAT      O53083   4.270   6.393   1.068
17614WAT     H153084   4.346   6.338   1.032
17614WAT     H253085   4.249   6.363   1.161
17615WAT      O53086   0.253   5.970   1.056
17615WAT     H153087   0.349   5.958   1.029
17615WAT     H253088   0.208   6.031   0.992
17616WAT      O53089   4.459   6.735   2.597
17616WAT     H153090   4.514   6.819   2.601
17616WAT     H253091   4.519   6.656   2.611
17617WAT      O53092   9.697   9.214   4.015
17617WAT     H153093   9.711   9.151   3.939
17617WAT     H253094   9.696   9.308   3.982
17618WAT      O53095   1.505   0.815   7.947
17618WAT     H153096   1.554   0.796   8.032
17618WAT     H253097   1.541   0.758   7.874
17619WAT      O53098   7.706   2.781   9.138
17619WAT     H153099   7.653   2.790   9.222
17619WAT     H253100   7.741   2.688   9.130
17620WAT      O53101   7.330   7.722   5.904
17620WAT     H153102   7.240   7.688   5.876
17620WAT     H253103   7.330   7.822   5.906
17621WAT      O53104   7.890   0.353   7.137
17621WAT     H153105   7.985   0.343   7.108
17621WAT     H253106   7.881   0.327   7.233
17622WAT      O53107   6.400   3.903   7.999
17622WAT     H153108   6.388   3.825   7.938
17622WAT     H253109   6.351   3.887   8.085
17623WAT      O53110   9.160   6.602   1.347
17623WAT     H153111   9.073   6.568   1.311
17623WAT     H253112   9.177   6.694   1.311
17624WAT      O53113   8.867   8.630   1.325
17624WAT     H153114   8.785   8.635   1.382
17624WAT     H253115   8.925   8.555   1.356
17625WAT      O53116   9.310   2.816   5.065
17625WAT     H153117   9.393   2.773   5.102
17625WAT     H253118   9.249   2.745   5.031
17626WAT      O53119   9.259   9.287   9.316
17626WAT     H153120   9.167   9.324   9.324
17626WAT     H253121   9.316   9.350   9.264
17627WAT      O53122   4.051   5.883   9.559
17627WAT     H153123   3.995   5.816   9.511
17627WAT     H253124   4.114   5.837   9.621
17628WAT      O53125   0.677   2.052   0.157
17628WAT     H153126   0.738   2.130   0.168
17628WAT     H253127   0.662   2.009   0.245
17629WAT      O53128   9.531   9.106   8.615
17629WAT     H153129   9.582   9.189   8.636
17629WAT     H253130   9.490   9.070   8.699
17630WAT      O53131   4.436   8.640   3.294
17630WAT     H153132   4.435   8.590   3.381
17630WAT     H253133   4.405   8.734   3.310
17631WAT      O53134   7.556   1.050   8.668
17631WAT     H153135   7.476   1.110   8.663
17631WAT     H253136   7.526   0.955   8.668
17632WAT      O53137   6.115   7.241   7.056
17632WAT     H153138   6.170   7.285   7.128
17632WAT     H253139   6.063   7.311   7.007
17633WAT      O53140   9.450   6.800   4.272
17633WAT     H153141   9.379   6.800   4.342
17633WAT     H253142   9.426   6.865   4.200
17634WAT      O53143   6.830   3.273   2.911
17634WAT     H153144   6.862   3.360   2.948
17634WAT     H253145   6.892   3.243   2.838
17635WAT      O53146   4.975   7.676   1.684
17635WAT     H153147   4.955   7.614   1.760
17635WAT     H253148   4.901   7.674   1.617
17636WAT      O53149   9.842   2.109   3.976
17636WAT     H153150   9.847   2.010   3.960
17636WAT     H253151   9.883   2.130   4.065
17637WAT      O53152   1.840   8.658   2.748
17637WAT     H153153   1.911   8.600   2.787
17637WAT     H253154   1.751   8.632   2.785
17638WAT      O53155   2.873   2.153   7.026
17638WAT     H153156   2.850   2.056   7.015
17638WAT     H253157   2.857   2.200   6.939
17639WAT      O53158   8.458   1.342   7.065
17639WAT     H153159   8.397   1.305   7.134
17639WAT     H253160   8.538   1.384   7.110
17640WAT      O53161   5.107   4.036   9.573
17640WAT     H153162   5.050   3.984   9.636
17640WAT     H253163   5.087   4.133   9.581
17641WAT      O53164   8.800   3.554   3.804
17641WAT     H153165   8.789   3.600   3.892
17641WAT     H253166   8.819   3.457   3.819
17642WAT      O53167   0.074   4.766   9.161
17642WAT     H153168   0.077   4.697   9.234
17642WAT     H253169   0.008   4.738   9.092
17643WAT      O53170   7.545   7.481   2.971
17643WAT     H153171   7.587   7.526   3.050
17643WAT     H253172   7.604   7.494   2.891
17644WAT      O53173   7.214   8.235   2.096
17644WAT     H153174   7.266   8.215   2.179
17644WAT     H253175   7.116   8.238   2.118
17645WAT      O53176   7.902   6.111   7.744
17645WAT     H153177   7.909   6.193   7.800
17645WAT     H253178   7.883   6.137   7.649
17646WAT      O53179   8.578   5.464   7.212
17646WAT     H153180   8.598   5.545   7.157
17646WAT     H253181   8.610   5.383   7.165
17647WAT      O53182   8.183   4.562   7.788
17647WAT     H153183   8.131   4.562   7.703
17647WAT     H253184   8.253   4.633   7.784
17648WAT      O53185   3.943   0.294   9.350
17648WAT     H153186   3.844   0.295   9.358
17648WAT     H253187   3.970   0.308   9.255
17649WAT      O53188   5.181   3.390   5.916
17649WAT     H153189   5.120   3.326   5.963
17649WAT     H253190   5.174   3.480   5.958
17650WAT      O53191   3.230   7.407   6.829
17650WAT     H153192   3.268   7.389   6.738
17650WAT     H253193   3.148   7.351   6.843
17651WAT      O53194   4.879   5.361   8.245
17651WAT     H153195   4.942   5.423   8.292
17651WAT     H253196   4.803   5.413   8.207
17652WAT      O53197   7.766   3.700   0.910
17652WAT     H153198   7.855   3.666   0.941
17652WAT     H253199   7.772   3.728   0.814
17653WAT      O53200   4.472   7.933   4.930
17653WAT     H153201   4.549   7.948   4.992
17653WAT     H253202   4.495   7.971   4.840
17654WAT      O53203   8.852   0.093   7.208
17654WAT     H153204   8.763   0.138   7.205
17654WAT     H253205   8.921   0.158   7.239
17655WAT      O53206   8.645   3.279   6.294
17655WAT     H153207   8.640   3.253   6.197
17655WAT     H253208   8.730   3.244   6.333
17656WAT      O53209   4.216   7.904   8.078
17656WAT     H153210   4.201   7.810   8.109
17656WAT     H253211   4.128   7.945   8.054
17657WAT      O53212   4.491   6.215   8.370
17657WAT     H153213   4.474   6.216   8.468
17657WAT     H253214   4.589   6.225   8.353
17658WAT      O53215   5.652   1.325   5.485
17658WAT     H153216   5.638   1.325   5.584
17658WAT     H253217   5.564   1.316   5.439
17659WAT      O53218   8.960   8.281   6.242
17659WAT     H153219   8.911   8.346   6.300
17659WAT     H253220   8.977   8.322   6.152
17660WAT      O53221   7.176   0.093   7.100
17660WAT     H153222   7.125   0.090   7.015
17660WAT     H253223   7.209   0.001   7.123
17661WAT      O53224   6.989   5.148   6.757
17661WAT     H153225   7.073   5.195   6.784
17661WAT     H253226   6.977   5.066   6.813
17662WAT      O53227   8.105   1.074   4.576
17662WAT     H153228   8.089   1.156   4.521
17662WAT     H253229   8.196   1.038   4.555
17663WAT      O53230   0.411   4.170   0.601
17663WAT     H153231   0.387   4.076   0.577
17663WAT     H253232   0.403   4.227   0.519
17664WAT      O53233   1.988   6.581   1.107
17664WAT     H153234   2.035   6.595   1.019
17664WAT     H253235   1.995   6.485   1.133
17665WAT      O53236   4.242   9.466   3.661
17665WAT     H153237   4.325   9.515   3.633
17665WAT     H253238   4.173   9.532   3.691
17666WAT      O53239   0.453   6.711   1.427
17666WAT     H153240   0.533   6.684   1.480
17666WAT     H253241   0.373   6.663   1.461
17667WAT      O53242   5.398   4.818   2.284
17667WAT     H153243   5.347   4.845   2.202
17667WAT     H253244   5.382   4.721   2.302
17668WAT      O53245   3.381   7.679   9.872
17668WAT     H153246   3.340   7.602   9.922
17668WAT     H253247   3.308   7.737   9.836
17669WAT      O53248   3.137   0.646   8.823
17669WAT     H153249   3.150   0.559   8.869
17669WAT     H253250   3.039   0.665   8.814
17670WAT      O53251   0.315   8.209   6.719
17670WAT     H153252   0.407   8.221   6.684
17670WAT     H253253   0.312   8.130   6.781
17671WAT      O53254   9.857   9.678   7.274
17671WAT     H153255   9.947   9.638   7.254
17671WAT     H253256   9.786   9.624   7.229
17672WAT      O53257   6.796   9.293   2.798
17672WAT     H153258   6.851   9.218   2.835
17672WAT     H253259   6.854   9.355   2.747
17673WAT      O53260   6.272   0.012   7.248
17673WAT     H153261   6.177  -0.004   7.221
17673WAT     H253262   6.277   0.098   7.299
17674WAT      O53263   7.782   2.050   0.933
17674WAT     H153264   7.831   1.990   0.995
17674WAT     H253265   7.723   1.995   0.873
17675WAT      O53266   4.169   3.839   2.640
17675WAT     H153267   4.167   3.906   2.565
17675WAT     H253268   4.190   3.748   2.603
17676WAT      O53269   3.754   0.496   0.205
17676WAT     H153270   3.672   0.441   0.217
17676WAT     H253271   3.735   0.591   0.232
17677WAT      O53272   8.166   7.063   9.760
17677WAT     H153273   8.258   7.099   9.772
17677WAT     H253274   8.169   6.980   9.706
17678WAT      O53275   6.541   5.988   4.800
17678WAT     H153276   6.507   5.979   4.707
17678WAT     H253277   6.542   5.899   4.845
17679WAT      O53278   7.595   9.392   8.637
17679WAT     H153279   7.615   9.446   8.718
17679WAT     H253280   7.677   9.345   8.607
17680WAT      O53281   4.156   5.195   8.418
17680WAT     H153282   4.205   5.184   8.331
17680WAT     H253283   4.120   5.107   8.447
17681WAT      O53284   7.417   0.376   4.142
17681WAT     H153285   7.325   0.348   4.167
17681WAT     H253286   7.463   0.301   4.096
17682WAT      O53287   3.753   8.031   8.211
17682WAT     H153288   3.667   8.075   8.237
17682WAT     H253289   3.828   8.069   8.265
17683WAT      O53290   9.046   2.206   5.455
17683WAT     H153291   9.020   2.172   5.545
17683WAT     H253292   9.142   2.233   5.455
17684WAT      O53293   7.482   8.727   3.922
17684WAT     H153294   7.567   8.676   3.927
17684WAT     H253295   7.463   8.753   3.827
17685WAT      O53296   5.911   1.586   8.142
17685WAT     H153297   5.955   1.649   8.080
17685WAT     H253298   5.831   1.630   8.184
17686WAT      O53299   3.189   5.225   8.379
17686WAT     H153300   3.132   5.304   8.404
17686WAT     H253301   3.163   5.193   8.288
17687WAT      O53302   8.999   0.093   8.661
17687WAT     H153303   8.921   0.115   8.603
17687WAT     H253304   9.079   0.146   8.631
17688WAT      O53305   5.944   3.050   5.913
17688WAT     H153306   6.004   3.002   5.976
17688WAT     H253307   5.965   3.148   5.914
17689WAT      O53308   4.741   4.367   0.888
17689WAT     H153309   4.781   4.425   0.817
17689WAT     H253310   4.806   4.296   0.913
17690WAT      O53311   8.496   1.595   6.049
17690WAT     H153312   8.410   1.631   6.085
17690WAT     H253313   8.477   1.521   5.985
17691WAT      O53314   6.253   0.513   8.028
17691WAT     H153315   6.279   0.609   8.032
17691WAT     H253316   6.212   0.486   8.115
17692WAT      O53317   7.224   0.403   1.068
17692WAT     H153318   7.142   0.379   1.120
17692WAT     H253319   7.197   0.438   0.978
17693WAT      O53320   0.166   9.323   2.515
17693WAT     H153321   0.211   9.268   2.586
17693WAT     H253322   0.118   9.399   2.557
17694WAT      O53323   8.477   2.167   0.295
17694WAT     H153324   8.397   2.119   0.260
17694WAT     H253325   8.545   2.101   0.326
17695WAT      O53326   9.511   6.828   7.394
17695WAT     H153327   9.489   6.801   7.300
17695WAT     H253328   9.467   6.915   7.415
17696WAT      O53329   8.778   7.204   8.542
17696WAT     H153330   8.747   7.299   8.550
17696WAT     H253331   8.874   7.202   8.514
17697WAT      O53332   2.732   1.603   5.580
17697WAT     H153333   2.825   1.570   5.563
17697WAT     H253334   2.720   1.623   5.677
17698WAT      O53335   2.420   7.714   1.467
17698WAT     H153336   2.325   7.687   1.452
17698WAT     H253337   2.432   7.740   1.562
17699WAT      O53338   8.117   2.376   9.822
17699WAT     H153339   8.075   2.466   9.833
17699WAT     H253340   8.140   2.339   9.912
17700WAT      O53341   7.484   8.645   5.683
17700WAT     H153342   7.386   8.654   5.663
17700WAT     H253343   7.534   8.719   5.639
17701WAT      O53344   2.516   8.486   6.852
17701WAT     H153345   2.528   8.563   6.915
17701WAT     H253346   2.577   8.498   6.773
17702WAT      O53347   8.334   5.723   3.549
17702WAT     H153348   8.289   5.634   3.553
17702WAT     H253349   8.274   5.788   3.503
17703WAT      O53350   7.663   6.279   3.910
17703WAT     H153351   7.756   6.243   3.909
17703WAT     H253352   7.657   6.357   3.848
17704WAT      O53353   5.010   5.993   2.943
17704WAT     H153354   5.032   6.025   3.035
17704WAT     H253355   4.926   5.939   2.946
17705WAT      O53356   7.046   2.046   6.941
17705WAT     H153357   7.083   2.121   6.997
17705WAT     H253358   7.026   2.080   6.850
17706WAT      O53359   7.720   1.108   5.391
17706WAT     H153360   7.819   1.111   5.373
17706WAT     H253361   7.674   1.179   5.337
17707WAT      O53362   2.013   6.392   0.188
17707WAT     H153363   2.043   6.314   0.243
17707WAT     H253364   2.093   6.439   0.151
17708WAT      O53365   7.776   5.919   6.187
17708WAT     H153366   7.856   5.975   6.164
17708WAT     H253367   7.693   5.973   6.177
17709WAT      O53368   2.986   4.745   6.398
17709WAT     H153369   2.982   4.842   6.422
17709WAT     H253370   3.079   4.722   6.371
17710WAT      O53371   4.587   7.511   6.672
17710WAT     H153372   4.505   7.515   6.616
17710WAT     H253373   4.563   7.525   6.768
17711WAT      O53374   6.728   3.486   4.441
17711WAT     H153375   6.805   3.478   4.505
17711WAT     H253376   6.650   3.434   4.476
17712WAT      O53377   8.603   9.605   5.856
17712WAT     H153378   8.686   9.550   5.848
17712WAT     H253379   8.540   9.581   5.782
17713WAT      O53380   8.393   1.166   7.703
17713WAT     H153381   8.321   1.219   7.749
17713WAT     H253382   8.424   1.215   7.622
17714WAT      O53383   3.564   0.465   3.757
17714WAT     H153384   3.638   0.499   3.816
17714WAT     H253385   3.555   0.524   3.677
17715WAT      O53386   6.707   5.037   8.195
17715WAT     H153387   6.716   5.094   8.277
17715WAT     H253388   6.795   4.991   8.178
17716WAT      O53389   6.431   7.491   8.338
17716WAT     H153390   6.361   7.423   8.360
17716WAT     H253391   6.521   7.449   8.349
17717WAT      O53392   2.329   6.518   6.001
17717WAT     H153393   2.373   6.593   6.051
17717WAT     H253394   2.373   6.508   5.911
17718WAT      O53395   0.563   2.483   4.370
17718WAT     H153396   0.659   2.470   4.349
17718WAT     H253397   0.531   2.569   4.328
17719WAT      O53398   7.781   5.422   0.439
17719WAT     H153399   7.748   5.373   0.519
17719WAT     H253400   7.874   5.392   0.417
17720WAT      O53401   9.410   4.308   8.987
17720WAT     H153402   9.491   4.312   8.928
17720WAT     H253403   9.348   4.237   8.954
17721WAT      O53404   6.740   3.306   0.988
17721WAT     H153405   6.796   3.334   1.066
17721WAT     H253406   6.800   3.267   0.917
17722WAT      O53407   6.660   7.385   3.729
17722WAT     H153408   6.628   7.292   3.712
17722WAT     H253409   6.725   7.411   3.657
17723WAT      O53410   3.206   4.597   6.288
17723WAT     H153411   3.259   4.681   6.274
17723WAT     H253412   3.269   4.519   6.295
17724WAT      O53413   8.108   0.697   3.388
17724WAT     H153414   8.076   0.758   3.460
17724WAT     H253415   8.055   0.713   3.305
17725WAT      O53416   3.115   1.227   1.810
17725WAT     H153417   3.092   1.137   1.849
17725WAT     H253418   3.205   1.222   1.768
17726WAT      O53419   0.348   7.984   4.201
17726WAT     H153420   0.365   7.997   4.103
17726WAT     H253421   0.303   7.896   4.216
17727WAT      O53422   8.490   7.223   4.989
17727WAT     H153423   8.394   7.213   5.017
17727WAT     H253424   8.537   7.285   5.053
17728WAT      O53425   6.909   6.456   8.153
17728WAT     H153426   6.903   6.510   8.070
17728WAT     H253427   6.824   6.405   8.166
17729WAT      O53428   0.390   0.770   4.068
17729WAT     H153429   0.307   0.803   4.022
17729WAT     H253430   0.366   0.701   4.136
17730WAT      O53431   5.424   7.883   4.103
17730WAT     H153432   5.331   7.853   4.085
17730WAT     H253433   5.484   7.853   4.030
17731WAT      O53434   5.443   8.226   8.333
17731WAT     H153435   5.454   8.315   8.377
17731WAT     H253436   5.425   8.157   8.403
17732WAT      O53437   3.835   4.857   1.437
17732WAT     H153438   3.873   4.842   1.529
17732WAT     H253439   3.755   4.917   1.444
17733WAT      O53440   4.535   3.700   4.779
17733WAT     H153441   4.604   3.707   4.851
17733WAT     H253442   4.527   3.787   4.732
17734WAT      O53443   0.558   4.599   4.690
17734WAT     H153444   0.616   4.677   4.713
17734WAT     H253445   0.488   4.629   4.626
17735WAT      O53446   0.885   2.253   1.878
17735WAT     H153447   0.938   2.213   1.803
17735WAT     H253448   0.947   2.281   1.951
17736WAT      O53449   4.377   7.146   0.515
17736WAT     H153450   4.455   7.169   0.573
17736WAT     H253451   4.328   7.230   0.490
17737WAT      O53452   2.522   2.880   5.843
17737WAT     H153453   2.448   2.881   5.775
17737WAT     H253454   2.490   2.922   5.928
17738WAT      O53455   1.954   7.869   4.793
17738WAT     H153456   1.869   7.920   4.778
17738WAT     H253457   1.993   7.844   4.705
17739WAT      O53458   4.337   8.553   5.595
17739WAT     H153459   4.248   8.585   5.627
17739WAT     H253460   4.409   8.613   5.631
17740WAT      O53461   7.098   2.966   5.067
17740WAT     H153462   7.150   2.886   5.098
17740WAT     H253463   7.024   2.984   5.132
17741WAT      O53464   7.967   5.757   6.794
17741WAT     H153465   7.872   5.772   6.820
17741WAT     H253466   7.970   5.701   6.711
17742WAT      O53467   6.467   6.577   6.196
17742WAT     H153468   6.528   6.611   6.267
17742WAT     H253469   6.379   6.623   6.203
17743WAT      O53470   3.340   8.064   4.682
17743WAT     H153471   3.309   7.973   4.711
17743WAT     H253472   3.371   8.059   4.587
17744WAT      O53473   3.287   6.286   5.935
17744WAT     H153474   3.191   6.266   5.953
17744WAT     H253475   3.319   6.357   5.997
17745WAT      O53476   2.685   8.061   4.882
17745WAT     H153477   2.782   8.081   4.897
17745WAT     H253478   2.675   7.969   4.843
17746WAT      O53479   1.635   9.089   4.306
17746WAT     H153480   1.606   9.008   4.255
17746WAT     H253481   1.725   9.073   4.346
17747WAT      O53482   5.091   5.319   2.968
17747WAT     H153483   5.083   5.262   3.050
17747WAT     H253484   5.102   5.415   2.995
17748WAT      O53485   0.589   2.677   0.214
17748WAT     H153486   0.673   2.729   0.196
17748WAT     H253487   0.613   2.587   0.249
17749WAT      O53488   1.194   7.362   1.195
17749WAT     H153489   1.134   7.423   1.247
17749WAT     H253490   1.289   7.378   1.222
17750WAT      O53491   8.056   0.207   0.308
17750WAT     H153492   8.103   0.153   0.378
17750WAT     H253493   8.123   0.255   0.252
17751WAT      O53494   0.636   7.736   8.133
17751WAT     H153495   0.697   7.657   8.130
17751WAT     H253496   0.558   7.715   8.192
17752WAT      O53497   3.007   3.713   2.771
17752WAT     H153498   3.002   3.616   2.797
17752WAT     H253499   3.101   3.744   2.779
17753WAT      O53500   7.138   9.489   7.847
17753WAT     H153501   7.114   9.416   7.783
17753WAT     H253502   7.215   9.461   7.903
17754WAT      O53503   8.063   9.825   7.110
17754WAT     H153504   8.125   9.833   7.189
17754WAT     H253505   8.057   9.914   7.064
17755WAT      O53506   6.440   9.495   5.710
17755WAT     H153507   6.485   9.530   5.628
17755WAT     H253508   6.369   9.559   5.739
17756WAT      O53509   3.199   3.967   2.779
17756WAT     H153510   3.212   4.041   2.845
17756WAT     H253511   3.141   4.000   2.704
17757WAT      O53512   6.359   4.595   8.188
17757WAT     H153513   6.358   4.538   8.270
17757WAT     H253514   6.268   4.635   8.175
17758WAT      O53515   3.877   1.312   7.857
17758WAT     H153516   3.838   1.372   7.926
17758WAT     H253517   3.937   1.246   7.901
17759WAT      O53518   6.814   4.247   2.646
17759WAT     H153519   6.891   4.189   2.673
17759WAT     H253520   6.729   4.206   2.680
17760WAT      O53521   8.124   7.472   3.684
17760WAT     H153522   8.038   7.421   3.687
17760WAT     H253523   8.124   7.534   3.606
17761WAT      O53524   0.187   0.829   8.387
17761WAT     H153525   0.287   0.828   8.396
17761WAT     H253526   0.159   0.754   8.327
17762WAT      O53527   4.455   4.363   3.234
17762WAT     H153528   4.537   4.393   3.283
17762WAT     H253529   4.376   4.370   3.296
17763WAT      O53530   5.631   1.873   7.212
17763WAT     H153531   5.601   1.793   7.160
17763WAT     H253532   5.710   1.915   7.167
17764WAT      O53533   1.980   0.659   8.633
17764WAT     H153534   2.065   0.606   8.628
17764WAT     H253535   1.968   0.711   8.549
17765WAT      O53536   0.384   5.523   5.472
17765WAT     H153537   0.482   5.534   5.488
17765WAT     H253538   0.335   5.601   5.511
17766WAT      O53539   7.387   9.297   6.137
17766WAT     H153540   7.386   9.372   6.071
17766WAT     H253541   7.440   9.220   6.099
17767WAT      O53542   1.997   2.361   1.618
17767WAT     H153543   1.957   2.376   1.708
17767WAT     H253544   2.090   2.398   1.616
17768WAT      O53545   2.308   3.168   6.550
17768WAT     H153546   2.318   3.069   6.563
17768WAT     H253547   2.356   3.196   6.467
17769WAT      O53548   4.208   5.157   8.081
17769WAT     H153549   4.192   5.207   7.996
17769WAT     H253550   4.291   5.103   8.073
17770WAT      O53551   7.030   4.702   9.384
17770WAT     H153552   6.973   4.732   9.461
17770WAT     H253553   7.011   4.759   9.304
17771WAT      O53554   9.719   8.692   0.619
17771WAT     H153555   9.662   8.756   0.567
17771WAT     H253556   9.662   8.643   0.686
17772WAT      O53557   2.651   1.903   2.663
17772WAT     H153558   2.653   1.933   2.567
17772WAT     H253559   2.613   1.976   2.720
17773WAT      O53560   7.683   7.925   8.223
17773WAT     H153561   7.600   7.982   8.217
17773WAT     H253562   7.727   7.939   8.311
17774WAT      O53563   1.083   5.324   4.462
17774WAT     H153564   1.175   5.346   4.427
17774WAT     H253565   1.060   5.230   4.439
17775WAT      O53566   3.945   2.109   2.411
17775WAT     H153567   3.981   2.177   2.475
17775WAT     H253568   3.918   2.027   2.462
17776WAT      O53569   3.300   3.286   3.019
17776WAT     H153570   3.265   3.247   3.105
17776WAT     H253571   3.372   3.226   2.982
17777WAT      O53572   0.910   9.326   9.877
17777WAT     H153573   0.814   9.307   9.898
17777WAT     H253574   0.920   9.341   9.778
17778WAT      O53575   6.844   4.330   3.933
17778WAT     H153576   6.861   4.284   4.020
17778WAT     H253577   6.921   4.391   3.913
17779WAT      O53578   1.518   6.695   4.271
17779WAT     H153579   1.514   6.665   4.176
17779WAT     H253580   1.613   6.708   4.298
17780WAT      O53581   8.599   8.628   5.542
17780WAT     H153582   8.603   8.593   5.449
17780WAT     H253583   8.504   8.644   5.568
17781WAT      O53584   4.212   5.491   6.142
17781WAT     H153585   4.292   5.548   6.126
17781WAT     H253586   4.237   5.395   6.133
17782WAT      O53587   0.420   4.103   4.162
17782WAT     H153588   0.503   4.153   4.134
17782WAT     H253589   0.434   4.005   4.149
17783WAT      O53590   7.648   3.996   3.429
17783WAT     H153591   7.733   4.020   3.381
17783WAT     H253592   7.655   4.022   3.525
17784WAT      O53593   2.125   2.617   7.805
17784WAT     H153594   2.166   2.707   7.786
17784WAT     H253595   2.074   2.622   7.890
17785WAT      O53596   6.347   8.825   8.202
17785WAT     H153597   6.310   8.911   8.167
17785WAT     H253598   6.337   8.822   8.302
17786WAT      O53599   2.542   4.407   5.701
17786WAT     H153600   2.584   4.473   5.763
17786WAT     H253601   2.443   4.409   5.712
17787WAT      O53602   7.724   5.789   3.847
17787WAT     H153603   7.747   5.831   3.935
17787WAT     H253604   7.767   5.841   3.773
17788WAT      O53605   6.431   1.563   5.609
17788WAT     H153606   6.430   1.660   5.633
17788WAT     H253607   6.524   1.535   5.584
17789WAT      O53608   5.879   1.174   2.770
17789WAT     H153609   5.896   1.093   2.826
17789WAT     H253610   5.965   1.202   2.726
17790WAT      O53611   6.282   4.258   2.754
17790WAT     H153612   6.247   4.167   2.732
17790WAT     H253613   6.351   4.250   2.827
17791WAT      O53614   8.092   4.909   8.815
17791WAT     H153615   8.039   4.940   8.736
17791WAT     H253616   8.118   4.987   8.871
17792WAT      O53617   2.724   4.821   9.654
17792WAT     H153618   2.671   4.802   9.736
17792WAT     H253619   2.812   4.861   9.680
17793WAT      O53620   4.811   6.536   1.910
17793WAT     H153621   4.866   6.455   1.891
17793WAT     H253622   4.775   6.531   2.003
17794WAT      O53623   4.537   7.305   4.175
17794WAT     H153624   4.578   7.392   4.149
17794WAT     H253625   4.527   7.247   4.095
17795WAT      O53626   9.238   5.029   6.108
17795WAT     H153627   9.180   5.068   6.179
17795WAT     H253628   9.242   5.093   6.030
17796WAT      O53629   2.749   6.524   3.720
17796WAT     H153630   2.778   6.491   3.630
17796WAT     H253631   2.673   6.468   3.753
17797WAT      O53632   3.587   4.785   7.615
17797WAT     H153633   3.678   4.744   7.609
17797WAT     H253634   3.538   4.771   7.529
17798WAT      O53635   9.505   9.348   3.628
17798WAT     H153636   9.544   9.402   3.702
17798WAT     H253637   9.470   9.261   3.664
17799WAT      O53638   0.909   2.727   0.686
17799WAT     H153639   0.980   2.759   0.749
17799WAT     H253640   0.882   2.634   0.711
17800WAT      O53641   4.833   2.297   5.189
17800WAT     H153642   4.854   2.281   5.285
17800WAT     H253643   4.789   2.216   5.150
17801WAT      O53644   1.798   6.534   7.067
17801WAT     H153645   1.775   6.594   7.144
17801WAT     H253646   1.808   6.589   6.984
17802WAT      O53647   1.207   5.179   0.551
17802WAT     H153648   1.223   5.215   0.643
17802WAT     H253649   1.141   5.238   0.504
17803WAT      O53650   8.603   6.672   4.051
17803WAT     H153651   8.584   6.639   3.959
17803WAT     H253652   8.639   6.765   4.047
17804WAT      O53653   1.859   9.505   9.595
17804WAT     H153654   1.892   9.567   9.666
17804WAT     H253655   1.799   9.435   9.635
17805WAT      O53656   2.040   6.236   1.382
17805WAT     H153657   2.034   6.172   1.460
17805WAT     H253658   2.097   6.195   1.310
17806WAT      O53659   0.795   5.922   6.845
17806WAT     H153660   0.737   5.979   6.787
17806WAT     H253661   0.766   5.932   6.940
17807WAT      O53662   2.566   4.399   8.937
17807WAT     H153663   2.651   4.435   8.899
17807WAT     H253664   2.538   4.318   8.886
17808WAT      O53665   1.453   7.274   8.635
17808WAT     H153666   1.474   7.329   8.553
17808WAT     H253667   1.478   7.179   8.618
17809WAT      O53668   1.478   1.051   4.360
17809WAT     H153669   1.444   1.120   4.296
17809WAT     H253670   1.413   1.039   4.434
17810WAT      O53671   9.526   8.134   7.485
17810WAT     H153672   9.584   8.083   7.421
17810WAT     H253673   9.466   8.195   7.433
17811WAT      O53674   9.062   3.943   3.770
17811WAT     H153675   8.975   3.928   3.818
17811WAT     H253676   9.046   3.944   3.672
17812WAT      O53677   7.281   5.590   4.670
17812WAT     H153678   7.353   5.631   4.726
17812WAT     H253679   7.221   5.535   4.728
17813WAT      O53680   5.903   0.933   2.034
17813WAT     H153681   5.964   1.001   2.075
17813WAT     H253682   5.813   0.938   2.078
17814WAT      O53683   5.785   8.976   1.857
17814WAT     H153684   5.876   8.936   1.861
17814WAT     H253685   5.721   8.919   1.909
17815WAT      O53686   7.784   7.209   3.298
17815WAT     H153687   7.694   7.210   3.342
17815WAT     H253688   7.787   7.134   3.232
17816WAT      O53689   1.863   0.848   1.645
17816WAT     H153690   1.872   0.795   1.729
17816WAT     H253691   1.880   0.789   1.566
17817WAT      O53692   0.725   5.485   3.446
17817WAT     H153693   0.719   5.555   3.375
17817WAT     H253694   0.791   5.415   3.419
17818WAT      O53695   0.362   4.328   0.403
17818WAT     H153696   0.433   4.399   0.406
17818WAT     H253697   0.373   4.274   0.319
17819WAT      O53698   8.033   5.008   4.211
17819WAT     H153699   7.940   4.974   4.204
17819WAT     H253700   8.059   5.016   4.308
17820WAT      O53701   3.609   9.346   4.178
17820WAT     H153702   3.600   9.354   4.079
17820WAT     H253703   3.630   9.435   4.217
17821WAT      O53704   5.919   9.423   4.815
17821WAT     H153705   5.894   9.337   4.859
17821WAT     H253706   5.932   9.494   4.884
17822WAT      O53707   1.355   3.651   9.712
17822WAT     H153708   1.304   3.607   9.638
17822WAT     H253709   1.450   3.661   9.685
17823WAT      O53710   9.004   0.045   0.167
17823WAT     H153711   9.014  -0.013   0.248
17823WAT     H253712   9.056   0.007   0.091
17824WAT      O53713   1.196   3.631   3.126
17824WAT     H153714   1.295   3.640   3.134
17824WAT     H253715   1.174   3.585   3.040
17825WAT      O53716   3.044   0.562   5.149
17825WAT     H153717   2.962   0.538   5.097
17825WAT     H253718   3.059   0.660   5.145
17826WAT      O53719   8.507   5.161   4.744
17826WAT     H153720   8.531   5.168   4.841
17826WAT     H253721   8.409   5.147   4.735
17827WAT      O53722   8.416   3.648   0.868
17827WAT     H153723   8.385   3.594   0.945
17827WAT     H253724   8.504   3.613   0.835
17828WAT      O53725   7.984   1.975   0.090
17828WAT     H153726   7.992   1.944  -0.004
17828WAT     H253727   7.895   2.018   0.105
17829WAT      O53728   4.982   0.919   2.111
17829WAT     H153729   5.075   0.954   2.098
17829WAT     H253730   4.983   0.841   2.173
17830WAT      O53731   1.647   1.755   8.964
17830WAT     H153732   1.555   1.789   8.981
17830WAT     H253733   1.642   1.674   8.905
17831WAT      O53734   2.149   1.997   5.948
17831WAT     H153735   2.172   2.037   6.036
17831WAT     H253736   2.157   1.897   5.953
17832WAT      O53737   9.558   1.811   7.703
17832WAT     H153738   9.558   1.894   7.759
17832WAT     H253739   9.466   1.797   7.665
17833WAT      O53740   7.961   7.476   8.895
17833WAT     H153741   7.964   7.521   8.806
17833WAT     H253742   8.021   7.397   8.894
17834WAT      O53743   0.747   5.279   2.889
17834WAT     H153744   0.844   5.267   2.867
17834WAT     H253745   0.702   5.190   2.893
17835WAT      O53746   8.088   2.343   4.479
17835WAT     H153747   8.131   2.297   4.401
17835WAT     H253748   8.023   2.282   4.523
17836WAT      O53749   4.277   9.253   3.829
17836WAT     H153750   4.242   9.165   3.796
17836WAT     H253751   4.271   9.321   3.755
17837WAT      O53752   1.486   3.796   5.156
17837WAT     H153753   1.517   3.706   5.186
17837WAT     H253754   1.515   3.812   5.062
17838WAT      O53755   7.131   8.038   3.621
17838WAT     H153756   7.136   7.949   3.576
17838WAT     H253757   7.168   8.031   3.714
17839WAT      O53758   4.187   0.945   2.894
17839WAT     H153759   4.131   0.866   2.868
17839WAT     H253760   4.133   1.028   2.888
17840WAT      O53761   6.656   0.132   3.332
17840WAT     H153762   6.573   0.078   3.320
17840WAT     H253763   6.684   0.131   3.427
17841WAT      O53764   7.602   0.345   7.494
17841WAT     H153765   7.611   0.429   7.548
17841WAT     H253766   7.577   0.368   7.400
17842WAT      O53767   4.618   2.349   6.239
17842WAT     H153768   4.536   2.332   6.184
17842WAT     H253769   4.592   2.378   6.331
17843WAT      O53770   7.606   3.458   9.701
17843WAT     H153771   7.676   3.431   9.767
17843WAT     H253772   7.516   3.426   9.732
17844WAT      O53773   9.401   2.430   6.249
17844WAT     H153774   9.481   2.394   6.200
17844WAT     H253775   9.418   2.525   6.276
17845WAT      O53776   9.556   4.668   0.036
17845WAT     H153777   9.512   4.620  -0.040
17845WAT     H253778   9.525   4.629   0.123
17846WAT      O53779   7.042   1.062   1.817
17846WAT     H153780   7.036   0.963   1.803
17846WAT     H253781   6.951   1.102   1.810
17847WAT      O53782   4.663   2.194   9.828
17847WAT     H153783   4.608   2.137   9.766
17847WAT     H253784   4.737   2.236   9.777
17848WAT      O53785   9.412   7.279   6.745
17848WAT     H153786   9.496   7.271   6.799
17848WAT     H253787   9.333   7.258   6.802
17849WAT      O53788   2.397   6.955   9.147
17849WAT     H153789   2.407   6.954   9.247
17849WAT     H253790   2.328   6.888   9.120
17850WAT      O53791   1.222   2.281   3.254
17850WAT     H153792   1.191   2.376   3.261
17850WAT     H253793   1.153   2.221   3.293
17851WAT      O53794   8.717   0.496   7.926
17851WAT     H153795   8.812   0.469   7.916
17851WAT     H253796   8.672   0.436   7.992
17852WAT      O53797   2.397   7.759   0.940
17852WAT     H153798   2.408   7.699   0.860
17852WAT     H253799   2.338   7.714   1.007
17853WAT      O53800   1.682   0.534   0.398
17853WAT     H153801   1.762   0.550   0.340
17853WAT     H253802   1.620   0.613   0.391
17854WAT      O53803   0.753   7.103   2.793
17854WAT     H153804   0.710   7.084   2.704
17854WAT     H253805   0.826   7.037   2.809
17855WAT      O53806   8.433   4.429   0.414
17855WAT     H153807   8.456   4.371   0.491
17855WAT     H253808   8.515   4.450   0.361
17856WAT      O53809   5.013   9.083   6.783
17856WAT     H153810   5.056   9.166   6.749
17856WAT     H253811   5.065   9.003   6.753
17857WAT      O53812   9.073   2.035   7.730
17857WAT     H153813   8.995   2.098   7.738
17857WAT     H253814   9.055   1.953   7.784
17858WAT      O53815   7.532   9.785   4.141
17858WAT     H153816   7.618   9.764   4.095
17858WAT     H253817   7.549   9.841   4.222
17859WAT      O53818   6.287   2.845   7.100
17859WAT     H153819   6.230   2.868   7.021
17859WAT     H253820   6.364   2.789   7.070
17860WAT      O53821   0.619   4.649   8.298
17860WAT     H153822   0.552   4.648   8.224
17860WAT     H253823   0.694   4.586   8.276
17861WAT      O53824   5.565   0.804   5.291
17861WAT     H153825   5.593   0.838   5.202
17861WAT     H253826   5.470   0.771   5.286
17862WAT      O53827   9.372   5.306   6.712
17862WAT     H153828   9.460   5.352   6.706
17862WAT     H253829   9.373   5.240   6.787
17863WAT      O53830   8.080   0.060   2.149
17863WAT     H153831   8.106  -0.013   2.213
17863WAT     H253832   8.160   0.088   2.097
17864WAT      O53833   4.826   8.653   3.248
17864WAT     H153834   4.873   8.567   3.225
17864WAT     H253835   4.771   8.682   3.170
17865WAT      O53836   7.169   6.399   1.847
17865WAT     H153837   7.208   6.413   1.755
17865WAT     H253838   7.234   6.346   1.902
17866WAT      O53839   5.383   2.575   0.001
17866WAT     H153840   5.455   2.628  -0.044
17866WAT     H253841   5.361   2.616   0.089
17867WAT      O53842   7.155   4.907   4.031
17867WAT     H153843   7.120   4.901   4.124
17867WAT     H253844   7.243   4.955   4.032
17868WAT      O53845   3.868   3.506   9.219
17868WAT     H153846   3.965   3.483   9.228
17868WAT     H253847   3.848   3.531   9.124
17869WAT      O53848   7.255   3.602   8.677
17869WAT     H153849   7.241   3.600   8.776
17869WAT     H253850   7.185   3.658   8.635
17870WAT      O53851   9.525   8.973   3.912
17870WAT     H153852   9.507   8.892   3.967
17870WAT     H253853   9.614   8.964   3.867
17871WAT      O53854   4.010   0.310   5.412
17871WAT     H153855   3.947   0.387   5.420
17871WAT     H253856   4.095   0.340   5.369
17872WAT      O53857   3.687   8.015   6.134
17872WAT     H153858   3.694   7.944   6.204
17872WAT     H253859   3.667   7.973   6.046
17873WAT      O53860   7.576   7.988   0.104
17873WAT     H153861   7.607   8.031   0.189
17873WAT     H253862   7.555   7.892   0.120
17874WAT      O53863   3.240   8.348   0.116
17874WAT     H153864   3.215   8.445   0.115
17874WAT     H253865   3.170   8.295   0.068
17875WAT      O53866   3.653   4.331   8.075
17875WAT     H153867   3.681   4.254   8.018
17875WAT     H253868   3.711   4.336   8.156
17876WAT      O53869   6.574   1.804   4.698
17876WAT     H153870   6.565   1.902   4.719
17876WAT     H253871   6.641   1.792   4.625
17877WAT      O53872   0.259   3.242   4.891
17877WAT     H153873   0.216   3.152   4.902
17877WAT     H253874   0.358   3.233   4.900
17878WAT      O53875   6.789   5.091   9.611
17878WAT     H153876   6.851   5.134   9.676
17878WAT     H253877   6.813   4.995   9.599
17879WAT      O53878   4.902   2.069   9.004
17879WAT     H153879   4.818   2.051   8.954
17879WAT     H253880   4.893   2.155   9.054
17880WAT      O53881   5.549   5.813   0.066
17880WAT     H153882   5.498   5.820   0.152
17880WAT     H253883   5.485   5.795  -0.009
17881WAT      O53884   0.500   5.233   0.205
17881WAT     H153885   0.409   5.213   0.241
17881WAT     H253886   0.554   5.149   0.204
17882WAT      O53887   9.255   8.178   9.017
17882WAT     H153888   9.156   8.168   9.013
17882WAT     H253889   9.289   8.143   9.104
17883WAT      O53890   3.997   1.438   4.772
17883WAT     H153891   4.089   1.439   4.733
17883WAT     H253892   3.970   1.530   4.797
17884WAT      O53893   2.330   2.832   0.225
17884WAT     H153894   2.286   2.857   0.138
17884WAT     H253895   2.279   2.758   0.268
17885WAT      O53896   0.003   5.164   2.000
17885WAT     H153897  -0.075   5.192   2.057
17885WAT     H253898   0.086   5.162   2.057
17886WAT      O53899   8.711   9.493   7.231
17886WAT     H153900   8.756   9.458   7.313
17886WAT     H253901   8.776   9.545   7.176
17887WAT      O53902   6.358   4.015   8.418
17887WAT     H153903   6.357   4.108   8.382
17887WAT     H253904   6.273   3.968   8.390
17888WAT      O53905   9.199   2.882   6.600
17888WAT     H153906   9.298   2.888   6.613
17888WAT     H253907   9.161   2.821   6.669
17889WAT      O53908   3.691   6.696   8.299
17889WAT     H153909   3.644   6.777   8.335
17889WAT     H253910   3.636   6.614   8.318
17890WAT      O53911   7.451   1.347   7.757
17890WAT     H153912   7.550   1.333   7.750
17890WAT     H253913   7.405   1.259   7.744
17891WAT      O53914   1.671   8.707   7.713
17891WAT     H153915   1.682   8.646   7.635
17891WAT     H253916   1.749   8.695   7.775
17892WAT      O53917   2.068   3.992   6.678
17892WAT     H153918   2.137   3.924   6.654
17892WAT     H253919   1.977   3.951   6.674
17893WAT      O53920   4.716   9.055   9.689
17893WAT     H153921   4.745   8.988   9.620
17893WAT     H253922   4.788   9.066   9.757
17894WAT      O53923   2.417   6.822   1.447
17894WAT     H153924   2.400   6.826   1.348
17894WAT     H253925   2.515   6.823   1.464
17895WAT      O53926   1.542   0.196   1.889
17895WAT     H153927   1.512   0.128   1.955
17895WAT     H253928   1.463   0.231   1.839
17896WAT      O53929   2.755   1.376   7.514
17896WAT     H153930   2.809   1.428   7.448
17896WAT     H253931   2.658   1.386   7.493
17897WAT      O53932   6.609   0.989   9.570
17897WAT     H153933   6.527   1.043   9.586
17897WAT     H253934   6.648   1.014   9.481
17898WAT      O53935   0.779   8.779   8.249
17898WAT     H153936   0.718   8.799   8.173
17898WAT     H253937   0.762   8.686   8.282
17899WAT      O53938   9.118   3.824   6.082
17899WAT     H153939   9.146   3.872   5.999
17899WAT     H253940   9.096   3.891   6.153
17900WAT      O53941   8.025   9.568   4.781
17900WAT     H153942   8.105   9.563   4.841
17900WAT     H253943   8.055   9.586   4.687
17901WAT      O53944   8.148   4.732   6.097
17901WAT     H153945   8.195   4.644   6.111
17901WAT     H253946   8.115   4.737   6.003
17902WAT      O53947   5.576   0.850   6.616
17902WAT     H153948   5.490   0.799   6.614
17902WAT     H253949   5.587   0.899   6.529
17903WAT      O53950   7.962   2.547   3.685
17903WAT     H153951   7.920   2.592   3.606
17903WAT     H253952   7.995   2.617   3.749
17904WAT      O53953   2.704   6.646   9.406
17904WAT     H153954   2.604   6.651   9.399
17904WAT     H253955   2.743   6.636   9.315
17905WAT      O53956   3.672   5.481   4.981
17905WAT     H153957   3.738   5.544   5.023
17905WAT     H253958   3.599   5.534   4.937
17906WAT      O53959   8.814   6.606   3.074
17906WAT     H153960   8.859   6.694   3.061
17906WAT     H253961   8.736   6.598   3.012
17907WAT      O53962   2.834   5.704   2.600
17907WAT     H153963   2.816   5.800   2.578
17907WAT     H253964   2.887   5.662   2.526
17908WAT      O53965   7.720   3.772   4.926
17908WAT     H153966   7.771   3.823   4.995
17908WAT     H253967   7.751   3.798   4.835
17909WAT      O53968   1.040   6.098   9.209
17909WAT     H153969   0.958   6.050   9.176
17909WAT     H253970   1.028   6.196   9.199
17910WAT      O53971   9.119   5.686   0.775
17910WAT     H153972   9.021   5.703   0.766
17910WAT     H253973   9.165   5.769   0.805
17911WAT      O53974   2.882   6.121   8.636
17911WAT     H153975   2.912   6.074   8.719
17911WAT     H253976   2.834   6.205   8.661
17912WAT      O53977   8.265   0.054   3.492
17912WAT     H153978   8.358   0.090   3.501
17912WAT     H253979   8.208   0.121   3.445
17913WAT      O53980   3.083   3.739   4.973
17913WAT     H153981   3.091   3.797   4.892
17913WAT     H253982   3.044   3.651   4.948
17914WAT      O53983   8.248   2.142   5.456
17914WAT     H153984   8.211   2.175   5.543
17914WAT     H253985   8.186   2.166   5.382
17915WAT      O53986   0.061   7.637   5.028
17915WAT     H153987   0.071   7.709   4.959
17915WAT     H253988   0.150   7.621   5.072
17916WAT      O53989   0.395   6.436   9.179
17916WAT     H153990   0.445   6.367   9.232
17916WAT     H253991   0.457   6.481   9.115
17917WAT      O53992   0.327   0.631   6.423
17917WAT     H153993   0.413   0.662   6.463
17917WAT     H253994   0.315   0.533   6.440
17918WAT      O53995   6.895   0.856   6.546
17918WAT     H153996   6.974   0.879   6.489
17918WAT     H253997   6.926   0.820   6.634
17919WAT      O53998   4.768   8.441   1.276
17919WAT     H153999   4.732   8.459   1.368
17919WAT     H254000   4.696   8.454   1.209
17920WAT      O54001   5.744   2.927   5.424
17920WAT     H154002   5.663   2.937   5.366
17920WAT     H254003   5.763   2.829   5.436
17921WAT      O54004   9.232   1.744   3.758
17921WAT     H154005   9.310   1.685   3.737
17921WAT     H254006   9.154   1.688   3.787
17922WAT      O54007   5.612   3.426   2.177
17922WAT     H154008   5.553   3.344   2.177
17922WAT     H254009   5.680   3.418   2.105
17923WAT      O54010   9.170   1.344   6.025
17923WAT     H154011   9.158   1.402   6.106
17923WAT     H254012   9.083   1.334   5.978
17924WAT      O54013   5.512   7.945   3.343
17924WAT     H154014   5.557   7.862   3.310
17924WAT     H254015   5.571   7.990   3.410
17925WAT      O54016   6.648   2.217   6.239
17925WAT     H154017   6.681   2.293   6.183
17925WAT     H254018   6.719   2.193   6.306
17926WAT      O54019   3.841   4.986   0.818
17926WAT     H154020   3.807   5.074   0.854
17926WAT     H254021   3.787   4.959   0.739
17927WAT      O54022   8.622   8.808   1.666
17927WAT     H154023   8.686   8.884   1.657
17927WAT     H254024   8.638   8.742   1.593
17928WAT      O54025   9.693   1.453   5.701
17928WAT     H154026   9.738   1.442   5.612
17928WAT     H254027   9.608   1.504   5.689
17929WAT      O54028   6.895   3.404   6.644
17929WAT     H154029   6.821   3.461   6.608
17929WAT     H254030   6.983   3.447   6.623
17930WAT      O54031   5.595   7.908   8.598
17930WAT     H154032   5.628   8.000   8.621
17930WAT     H254033   5.634   7.842   8.663
17931WAT      O54034   7.996   3.731   2.301
17931WAT     H154035   8.036   3.723   2.210
17931WAT     H254036   8.035   3.661   2.361
17932WAT      O54037   8.228   5.318   6.925
17932WAT     H154038   8.266   5.236   6.884
17932WAT     H254039   8.224   5.307   7.025
17933WAT      O54040   6.640   3.502   5.596
17933WAT     H154041   6.711   3.509   5.666
17933WAT     H254042   6.661   3.425   5.535
17934WAT      O54043   0.732   4.787   4.773
17934WAT     H154044   0.813   4.771   4.717
17934WAT     H254045   0.754   4.769   4.869
17935WAT      O54046   7.036   1.986   3.829
17935WAT     H154047   7.097   1.932   3.771
17935WAT     H254048   7.025   1.941   3.918
17936WAT      O54049   7.021   7.193   6.847
17936WAT     H154050   7.067   7.243   6.773
17936WAT     H254051   7.055   7.226   6.935
17937WAT      O54052   8.674   4.666   6.277
17937WAT     H154053   8.701   4.684   6.371
17937WAT     H254054   8.630   4.747   6.238
17938WAT      O54055   5.341   7.218   8.923
17938WAT     H154056   5.434   7.192   8.894
17938WAT     H254057   5.295   7.264   8.847
17939WAT      O54058   8.781   4.925   5.326
17939WAT     H154059   8.724   5.004   5.301
17939WAT     H254060   8.806   4.930   5.422
17940WAT      O54061   2.124   8.728   5.931
17940WAT     H154062   2.115   8.710   5.833
17940WAT     H254063   2.033   8.743   5.970
17941WAT      O54064   1.516   2.121   2.203
17941WAT     H154065   1.601   2.080   2.237
17941WAT     H254066   1.455   2.139   2.280
17942WAT      O54067   1.430   0.519   5.026
17942WAT     H154068   1.385   0.606   5.048
17942WAT     H254069   1.506   0.503   5.089
17943WAT      O54070   7.818   4.058   9.326
17943WAT     H154071   7.749   4.076   9.396
17943WAT     H254072   7.903   4.105   9.348
17944WAT      O54073   1.422   9.671   7.541
17944WAT     H154074   1.480   9.680   7.460
17944WAT     H254075   1.475   9.628   7.615
17945WAT      O54076   5.101   5.601   1.152
17945WAT     H154077   5.070   5.522   1.205
17945WAT     H254078   5.191   5.630   1.184
17946WAT      O54079   2.945   4.545   9.203
17946WAT     H154080   2.954   4.449   9.178
17946WAT     H254081   2.858   4.560   9.250
17947WAT      O54082   7.827   5.995   2.658
17947WAT     H154083   7.905   5.932   2.665
17947WAT     H254084   7.743   5.947   2.683
17948WAT      O54085   1.520   5.009   6.091
17948WAT     H154086   1.600   4.980   6.143
17948WAT     H254087   1.458   5.060   6.150
17949WAT      O54088   6.622   6.156   0.317
17949WAT     H154089   6.622   6.163   0.217
17949WAT     H254090   6.537   6.114   0.347
17950WAT      O54091   9.626   7.804   5.228
17950WAT     H154092   9.697   7.874   5.231
17950WAT     H254093   9.665   7.718   5.196
17951WAT      O54094   2.758   5.956   8.440
17951WAT     H154095   2.828   5.996   8.499
17951WAT     H254096   2.670   5.957   8.488
17952WAT      O54097   0.801   7.280   0.566
17952WAT     H154098   0.741   7.228   0.627
17952WAT     H254099   0.861   7.218   0.517
17953WAT      O54100   8.679   2.490   4.332
17953WAT     H154101   8.729   2.404   4.333
17953WAT     H254102   8.584   2.473   4.358
17954WAT      O54103   9.731   7.924   1.365
17954WAT     H154104   9.814   7.881   1.399
17954WAT     H254105   9.652   7.889   1.415
17955WAT      O54106   8.510   1.108   8.623
17955WAT     H154107   8.588   1.167   8.639
17955WAT     H254108   8.453   1.146   8.551
17956WAT      O54109   2.749   2.803   0.103
17956WAT     H154110   2.659   2.837   0.074
17956WAT     H254111   2.819   2.844   0.045
17957WAT      O54112   7.369   1.147   9.313
17957WAT     H154113   7.411   1.128   9.224
17957WAT     H254114   7.406   1.233   9.349
17958WAT      O54115   7.974   7.193   4.533
17958WAT     H154116   7.965   7.125   4.460
17958WAT     H254117   7.885   7.237   4.547
17959WAT      O54118   6.289   5.499   5.627
17959WAT     H154119   6.259   5.594   5.638
17959WAT     H254120   6.302   5.458   5.717
17960WAT      O54121   8.616   5.677   0.743
17960WAT     H154122   8.528   5.702   0.703
17960WAT     H254123   8.602   5.644   0.836
17961WAT      O54124   1.834   4.422   2.775
17961WAT     H154125   1.913   4.381   2.821
17961WAT     H254126   1.864   4.499   2.719
17962WAT      O54127   6.362   5.163   6.945
17962WAT     H154128   6.381   5.066   6.953
17962WAT     H254129   6.270   5.176   6.908
17963WAT      O54130   9.537   6.351   8.275
17963WAT     H154131   9.449   6.310   8.297
17963WAT     H254132   9.568   6.316   8.186
17964WAT      O54133   8.008   4.022   3.671
17964WAT     H154134   8.020   4.041   3.769
17964WAT     H254135   7.937   3.954   3.658
17965WAT      O54136   0.849   4.504   8.235
17965WAT     H154137   0.914   4.441   8.193
17965WAT     H254138   0.899   4.581   8.276
17966WAT      O54139   2.784   5.504   5.882
17966WAT     H154140   2.750   5.590   5.922
17966WAT     H254141   2.834   5.453   5.953
17967WAT      O54142   6.447   5.959   9.736
17967WAT     H154143   6.470   6.031   9.670
17967WAT     H254144   6.484   5.982   9.826
17968WAT      O54145   5.179   7.173   5.049
17968WAT     H154146   5.103   7.161   5.112
17968WAT     H254147   5.162   7.122   4.965
17969WAT      O54148   1.787   9.766   6.382
17969WAT     H154149   1.847   9.824   6.328
17969WAT     H254150   1.729   9.712   6.322
17970WAT      O54151   2.995   9.613   5.449
17970WAT     H154152   2.921   9.545   5.445
17970WAT     H254153   3.006   9.655   5.359
17971WAT      O54154   4.565   2.565   2.345
17971WAT     H154155   4.533   2.550   2.251
17971WAT     H254156   4.490   2.550   2.409
17972WAT      O54157   0.594   4.709   3.975
17972WAT     H154158   0.625   4.697   3.880
17972WAT     H254159   0.611   4.803   4.004
17973WAT      O54160   3.883   3.768   4.356
17973WAT     H154161   3.801   3.825   4.352
17973WAT     H254162   3.872   3.689   4.296
17974WAT      O54163   7.089   3.611   2.267
17974WAT     H154164   7.001   3.562   2.265
17974WAT     H254165   7.083   3.687   2.331
17975WAT      O54166   6.554   8.935   1.941
17975WAT     H154167   6.467   8.910   1.983
17975WAT     H254168   6.537   9.006   1.872
17976WAT      O54169   7.896   4.905   2.543
17976WAT     H154170   7.973   4.910   2.479
17976WAT     H254171   7.811   4.925   2.494
17977WAT      O54172   9.538   2.516   8.838
17977WAT     H154173   9.601   2.524   8.916
17977WAT     H254174   9.446   2.496   8.872
17978WAT      O54175   4.155   0.961   9.082
17978WAT     H154176   4.115   0.874   9.054
17978WAT     H254177   4.140   0.975   9.180
17979WAT      O54178   4.455   9.111   6.278
17979WAT     H154179   4.390   9.125   6.353
17979WAT     H254180   4.525   9.182   6.281
17980WAT      O54181   1.272   5.673   1.021
17980WAT     H154182   1.173   5.681   1.006
17980WAT     H254183   1.320   5.743   0.968
17981WAT      O54184   9.757   5.633   9.870
17981WAT     H154185   9.766   5.731   9.886
17981WAT     H254186   9.777   5.613   9.774
17982WAT      O54187   6.867   0.998   0.294
17982WAT     H154188   6.789   1.057   0.277
17982WAT     H254189   6.925   1.039   0.365
17983WAT      O54190   5.441   2.781   8.944
17983WAT     H154191   5.525   2.827   8.972
17983WAT     H254192   5.364   2.816   8.998
17984WAT      O54193   8.866   7.088   3.357
17984WAT     H154194   8.896   6.993   3.362
17984WAT     H254195   8.769   7.094   3.383
17985WAT      O54196   0.272   2.292   1.225
17985WAT     H154197   0.237   2.202   1.251
17985WAT     H254198   0.208   2.363   1.256
17986WAT      O54199   3.663   0.004   2.132
17986WAT     H154200   3.621   0.007   2.223
17986WAT     H254201   3.752  -0.042   2.138
17987WAT      O54202   1.461   1.265   6.029
17987WAT     H154203   1.528   1.322   6.077
17987WAT     H254204   1.507   1.215   5.955
17988WAT      O54205   8.669   7.316   9.253
17988WAT     H154206   8.696   7.348   9.163
17988WAT     H254207   8.573   7.288   9.252
17989WAT      O54208   5.541   8.659   5.299
17989WAT     H154209   5.457   8.665   5.352
17989WAT     H254210   5.557   8.564   5.272
17990WAT      O54211   1.052   3.027   6.083
17990WAT     H154212   1.145   3.021   6.048
17990WAT     H254213   0.997   3.087   6.024
17991WAT      O54214   9.564   5.936   4.424
17991WAT     H154215   9.503   5.939   4.345
17991WAT     H254216   9.583   5.840   4.447
17992WAT      O54217   0.371   8.259   0.002
17992WAT     H154218   0.466   8.259  -0.032
17992WAT     H254219   0.362   8.193   0.076
17993WAT      O54220   4.447   2.118   3.906
17993WAT     H154221   4.452   2.034   3.852
17993WAT     H254222   4.408   2.191   3.850
17994WAT      O54223   9.463   8.170   1.505
17994WAT     H154224   9.405   8.230   1.451
17994WAT     H254225   9.500   8.221   1.583
17995WAT      O54226   7.054   1.647   5.347
17995WAT     H154227   7.054   1.715   5.274
17995WAT     H254228   7.091   1.561   5.313
17996WAT      O54229   2.394   9.392   7.659
17996WAT     H154230   2.322   9.412   7.593
17996WAT     H254231   2.355   9.390   7.751
17997WAT      O54232   1.295   7.980   9.482
17997WAT     H154233   1.274   7.885   9.504
17997WAT     H254234   1.298   7.992   9.383
17998WAT      O54235   7.452   8.840   3.632
17998WAT     H154236   7.353   8.853   3.639
17998WAT     H254237   7.492   8.917   3.582
17999WAT      O54238   6.268   6.905   1.837
17999WAT     H154239   6.262   6.888   1.935
17999WAT     H254240   6.334   6.841   1.796
18000WAT      O54241   2.512   4.550   4.747
18000WAT     H154242   2.461   4.637   4.745
18000WAT     H254243   2.512   4.510   4.656
18001WAT      O54244   2.735   2.995   8.004
18001WAT     H154245   2.708   3.000   8.100
18001WAT     H254246   2.755   3.086   7.970
18002WAT      O54247   9.875   1.894   0.201
18002WAT     H154248   9.806   1.959   0.171
18002WAT     H254249   9.861   1.873   0.298
18003WAT      O54250   3.489   3.931   6.352
18003WAT     H154251   3.466   3.834   6.346
18003WAT     H254252   3.587   3.941   6.369
18004WAT      O54253   9.828   6.672   2.708
18004WAT     H154254   9.924   6.696   2.721
18004WAT     H254255   9.818   6.572   2.714
18005WAT      O54256   0.549   3.388   0.334
18005WAT     H154257   0.614   3.342   0.274
18005WAT     H254258   0.477   3.430   0.279
18006WAT      O54259   9.065   4.201   3.422
18006WAT     H154260   9.078   4.226   3.326
18006WAT     H254261   8.972   4.225   3.450
18007WAT      O54262   3.945   0.101   3.744
18007WAT     H154263   3.917   0.156   3.665
18007WAT     H254264   4.001   0.157   3.805
18008WAT      O54265   8.459   3.814   1.917
18008WAT     H154266   8.522   3.738   1.903
18008WAT     H254267   8.431   3.851   1.829
18009WAT      O54268   4.432   6.889   0.637
18009WAT     H154269   4.410   6.980   0.603
18009WAT     H254270   4.530   6.874   0.633
18010WAT      O54271   3.473   4.073   8.328
18010WAT     H154272   3.545   4.054   8.395
18010WAT     H254273   3.454   3.989   8.276
18011WAT      O54274   4.596   3.699   2.749
18011WAT     H154275   4.520   3.763   2.738
18011WAT     H254276   4.575   3.614   2.701
18012WAT      O54277   9.442   5.901   2.396
18012WAT     H154278   9.450   5.881   2.299
18012WAT     H254279   9.348   5.884   2.426
18013WAT      O54280   2.522   8.902   4.379
18013WAT     H154281   2.533   8.894   4.478
18013WAT     H254282   2.588   8.843   4.333
18014WAT      O54283   7.113   5.309   0.770
18014WAT     H154284   7.133   5.378   0.840
18014WAT     H254285   7.033   5.337   0.717
18015WAT      O54286   2.155   4.202   7.501
18015WAT     H154287   2.253   4.207   7.521
18015WAT     H254288   2.142   4.157   7.412
18016WAT      O54289   2.611   3.411   0.133
18016WAT     H154290   2.628   3.316   0.159
18016WAT     H254291   2.688   3.468   0.164
18017WAT      O54292   8.344   9.648   9.205
18017WAT     H154293   8.396   9.574   9.162
18017WAT     H254294   8.401   9.731   9.207
18018WAT      O54295   6.667   8.400   1.880
18018WAT     H154296   6.579   8.426   1.841
18018WAT     H254297   6.694   8.467   1.949
18019WAT      O54298   9.582   7.268   6.967
18019WAT     H154299   9.556   7.192   7.027
18019WAT     H254300   9.601   7.349   7.022
18020WAT      O54301   2.405   7.410   4.386
18020WAT     H154302   2.413   7.508   4.403
18020WAT     H254303   2.333   7.394   4.318
18021WAT      O54304   5.585   8.194   6.275
18021WAT     H154305   5.544   8.268   6.328
18021WAT     H254306   5.621   8.124   6.337
18022WAT      O54307   7.682   0.026   3.636
18022WAT     H154308   7.588   0.057   3.643
18022WAT     H254309   7.740   0.099   3.600
18023WAT      O54310   2.662   6.973   9.097
18023WAT     H154311   2.563   6.969   9.109
18023WAT     H254312   2.686   6.934   9.008
18024WAT      O54313   4.522   8.186   2.280
18024WAT     H154314   4.423   8.179   2.293
18024WAT     H254315   4.560   8.094   2.269
18025WAT      O54316   4.629   3.916   7.227
18025WAT     H154317   4.586   4.006   7.236
18025WAT     H254318   4.621   3.868   7.314
18026WAT      O54319   2.044   0.055   8.001
18026WAT     H154320   1.947   0.072   7.980
18026WAT     H254321   2.089   0.018   7.920
18027WAT      O54322   9.314   3.525   1.436
18027WAT     H154323   9.410   3.543   1.458
18027WAT     H254324   9.309   3.461   1.359
18028WAT      O54325   3.104   1.508   1.901
18028WAT     H154326   3.181   1.538   1.846
18028WAT     H254327   3.089   1.410   1.887
18029WAT      O54328   4.242   3.858   0.298
18029WAT     H154329   4.323   3.831   0.245
18029WAT     H254330   4.225   3.790   0.369
18030WAT      O54331   5.079   9.486   1.453
18030WAT     H154332   5.055   9.392   1.428
18030WAT     H254333   5.141   9.523   1.385
18031WAT      O54334   1.363   6.886   7.061
18031WAT     H154335   1.316   6.916   7.144
18031WAT     H254336   1.448   6.937   7.050
18032WAT      O54337   3.304   0.424   0.912
18032WAT     H154338   3.284   0.344   0.855
18032WAT     H254339   3.396   0.416   0.951
18033WAT      O54340   1.256   0.675   5.398
18033WAT     H154341   1.340   0.723   5.372
18033WAT     H254342   1.221   0.624   5.319
18034WAT      O54343   7.723   1.882   3.748
18034WAT     H154344   7.678   1.969   3.767
18034WAT     H254345   7.795   1.896   3.680
18035WAT      O54346   8.356   1.820   0.431
18035WAT     H154347   8.440   1.784   0.390
18035WAT     H254348   8.307   1.746   0.477
18036WAT      O54349   5.491   3.795   7.781
18036WAT     H154350   5.460   3.787   7.876
18036WAT     H254351   5.426   3.850   7.729
18037WAT      O54352   3.325   5.652   8.019
18037WAT     H154353   3.254   5.586   7.993
18037WAT     H254354   3.372   5.620   8.101
18038WAT      O54355   2.628   3.790   2.577
18038WAT     H154356   2.591   3.882   2.570
18038WAT     H254357   2.616   3.756   2.670
18039WAT      O54358   0.529   0.438   4.948
18039WAT     H154359   0.619   0.423   4.990
18039WAT     H254360   0.467   0.479   5.014
18040WAT      O54361   2.931   1.486   3.348
18040WAT     H154362   2.944   1.569   3.294
18040WAT     H254363   2.949   1.406   3.291
18041WAT      O54364   4.956   1.443   6.652
18041WAT     H154365   5.025   1.512   6.631
18041WAT     H254366   4.875   1.459   6.595
18042WAT      O54367   3.961   5.141   3.515
18042WAT     H154368   4.007   5.191   3.589
18042WAT     H254369   3.864   5.133   3.537
18043WAT      O54370   8.437   5.462   8.037
18043WAT     H154371   8.470   5.556   8.051
18043WAT     H254372   8.424   5.446   7.939
18044WAT      O54373   4.949   6.748   9.797
18044WAT     H154374   4.996   6.834   9.777
18044WAT     H254375   4.957   6.727   9.894
18045WAT      O54376   0.328   3.641   0.704
18045WAT     H154377   0.267   3.574   0.661
18045WAT     H254378   0.420   3.602   0.712
18046WAT      O54379   3.267   0.223   0.733
18046WAT     H154380   3.232   0.130   0.740
18046WAT     H254381   3.229   0.267   0.651
18047WAT      O54382   0.631   1.626   0.973
18047WAT     H154383   0.608   1.653   0.880
18047WAT     H254384   0.548   1.603   1.023
18048WAT      O54385   8.966   3.616   8.022
18048WAT     H154386   8.949   3.520   8.042
18048WAT     H254387   8.904   3.672   8.078
18049WAT      O54388   7.555   6.975   3.075
18049WAT     H154389   7.528   6.968   3.170
18049WAT     H254390   7.558   6.884   3.034
18050WAT      O54391   4.737   9.521   0.275
18050WAT     H154392   4.689   9.509   0.363
18050WAT     H254393   4.828   9.558   0.292
18051WAT      O54394   3.889   6.364   8.697
18051WAT     H154395   3.949   6.431   8.652
18051WAT     H254396   3.902   6.274   8.655
18052WAT      O54397   4.665   2.547   0.827
18052WAT     H154398   4.600   2.621   0.845
18052WAT     H254399   4.617   2.459   0.831
18053WAT      O54400   3.783   6.700   5.929
18053WAT     H154401   3.815   6.743   6.013
18053WAT     H254402   3.763   6.770   5.861
18054WAT      O54403   3.906   5.513   4.335
18054WAT     H154404   3.889   5.499   4.237
18054WAT     H254405   3.855   5.593   4.367
18055WAT      O54406   0.314   7.621   2.297
18055WAT     H154407   0.252   7.695   2.270
18055WAT     H254408   0.406   7.657   2.310
18056WAT      O54409   2.907   7.542   9.531
18056WAT     H154410   2.941   7.502   9.446
18056WAT     H254411   2.818   7.585   9.514
18057WAT      O54412   9.514   0.364   6.902
18057WAT     H154413   9.444   0.340   6.835
18057WAT     H254414   9.470   0.393   6.988
18058WAT      O54415   3.681   9.788   6.084
18058WAT     H154416   3.722   9.718   6.143
18058WAT     H254417   3.598   9.823   6.127
18059WAT      O54418   4.355   1.708   9.491
18059WAT     H154419   4.344   1.654   9.575
18059WAT     H254420   4.427   1.668   9.435
18060WAT      O54421   3.451   1.386   5.331
18060WAT     H154422   3.462   1.453   5.405
18060WAT     H254423   3.533   1.386   5.274
18061WAT      O54424   7.186   0.407   7.771
18061WAT     H154425   7.089   0.413   7.795
18061WAT     H254426   7.229   0.496   7.781
18062WAT      O54427   7.327   8.662   4.120
18062WAT     H154428   7.383   8.689   4.042
18062WAT     H254429   7.230   8.673   4.097
18063WAT      O54430   9.293   4.427   0.863
18063WAT     H154431   9.281   4.331   0.887
18063WAT     H254432   9.268   4.484   0.941
18064WAT      O54433   4.119   9.129   6.603
18064WAT     H154434   4.183   9.177   6.542
18064WAT     H254435   4.062   9.067   6.550
18065WAT      O54436   2.670   1.677   3.031
18065WAT     H154437   2.754   1.631   3.003
18065WAT     H254438   2.690   1.773   3.053
18066WAT      O54439   1.163   0.655   5.152
18066WAT     H154440   1.136   0.572   5.103
18066WAT     H254441   1.082   0.711   5.170
18067WAT      O54442   4.703   2.570   9.404
18067WAT     H154443   4.609   2.543   9.384
18067WAT     H254444   4.705   2.624   9.488
18068WAT      O54445   2.541   8.217   9.657
18068WAT     H154446   2.523   8.199   9.560
18068WAT     H254447   2.457   8.250   9.701
18069WAT      O54448   6.453   8.008   7.887
18069WAT     H154449   6.417   7.940   7.951
18069WAT     H254450   6.529   8.057   7.929
18070WAT      O54451   5.473   0.385   9.097
18070WAT     H154452   5.433   0.444   9.028
18070WAT     H254453   5.459   0.425   9.188
18071WAT      O54454   2.363   0.061   3.696
18071WAT     H154455   2.281   0.117   3.711
18071WAT     H254456   2.378   0.049   3.598
18072WAT      O54457   3.159   4.674   4.608
18072WAT     H154458   3.161   4.769   4.640
18072WAT     H254459   3.247   4.652   4.565
18073WAT      O54460   5.867   6.194   0.044
18073WAT     H154461   5.867   6.280   0.096
18073WAT     H254462   5.795   6.198  -0.026
18074WAT      O54463   3.459   9.388   6.289
18074WAT     H154464   3.475   9.290   6.300
18074WAT     H254465   3.363   9.404   6.264
18075WAT      O54466   2.710   3.746   6.578
18075WAT     H154467   2.674   3.741   6.485
18075WAT     H254468   2.648   3.697   6.640
18076WAT      O54469   6.885   1.666   4.644
18076WAT     H154470   6.927   1.754   4.620
18076WAT     H254471   6.845   1.625   4.562
18077WAT      O54472   9.751   5.255   8.536
18077WAT     H154473   9.667   5.309   8.536
18077WAT     H254474   9.731   5.163   8.570
18078WAT      O54475   5.368   8.566   4.958
18078WAT     H154476   5.334   8.586   4.866
18078WAT     H254477   5.467   8.550   4.955
18079WAT      O54478   9.087   6.296   3.045
18079WAT     H154479   9.030   6.266   2.968
18079WAT     H254480   9.038   6.366   3.097
18080WAT      O54481   2.793   0.836   3.702
18080WAT     H154482   2.843   0.888   3.633
18080WAT     H254483   2.825   0.861   3.793
18081WAT      O54484   5.972   0.492   4.041
18081WAT     H154485   6.038   0.528   4.106
18081WAT     H254486   6.013   0.489   3.950
18082WAT      O54487   1.587   5.669   7.821
18082WAT     H154488   1.540   5.659   7.908
18082WAT     H254489   1.532   5.724   7.758
18083WAT      O54490   5.692   7.759   0.107
18083WAT     H154491   5.601   7.797   0.120
18083WAT     H254492   5.759   7.817   0.153
18084WAT      O54493   3.611   2.011   8.016
18084WAT     H154494   3.586   1.925   7.971
18084WAT     H254495   3.653   1.991   8.105
18085WAT      O54496   0.862   7.542   0.551
18085WAT     H154497   0.847   7.447   0.579
18085WAT     H254498   0.919   7.543   0.468
18086WAT      O54499   9.762   1.208   0.172
18086WAT     H154500   9.825   1.139   0.135
18086WAT     H254501   9.795   1.239   0.261
18087WAT      O54502   9.235   6.114   1.146
18087WAT     H154503   9.333   6.124   1.129
18087WAT     H254504   9.203   6.028   1.105
18088WAT      O54505   6.270   6.877   8.117
18088WAT     H154506   6.191   6.886   8.056
18088WAT     H254507   6.310   6.967   8.135
18089WAT      O54508   9.224   2.025   9.788
18089WAT     H154509   9.204   1.928   9.803
18089WAT     H254510   9.141   2.072   9.760
18090WAT      O54511   4.517   4.185   3.887
18090WAT     H154512   4.508   4.115   3.815
18090WAT     H254513   4.480   4.149   3.973
18091WAT      O54514   8.259   0.411   0.495
18091WAT     H154515   8.277   0.353   0.574
18091WAT     H254516   8.229   0.354   0.418
18092WAT      O54517   3.694   5.806   3.642
18092WAT     H154518   3.606   5.758   3.637
18092WAT     H254519   3.679   5.902   3.662
18093WAT      O54520   7.739   6.999   7.620
18093WAT     H154521   7.730   6.908   7.580
18093WAT     H254522   7.671   7.010   7.692
18094WAT      O54523   4.497   0.509   0.524
18094WAT     H154524   4.560   0.512   0.601
18094WAT     H254525   4.480   0.603   0.491
18095WAT      O54526   9.523   5.272   1.933
18095WAT     H154527   9.428   5.275   1.966
18095WAT     H254528   9.527   5.309   1.840
18096WAT      O54529   4.962   4.048   2.539
18096WAT     H154530   4.997   4.066   2.447
18096WAT     H254531   4.867   4.078   2.545
18097WAT      O54532   3.532   3.036   0.656
18097WAT     H154533   3.608   3.041   0.591
18097WAT     H254534   3.555   2.971   0.729
18098WAT      O54535   9.256   5.104   2.268
18098WAT     H154536   9.223   5.014   2.239
18098WAT     H254537   9.178   5.166   2.280
18099WAT      O54538   1.299   9.481   3.766
18099WAT     H154539   1.387   9.499   3.721
18099WAT     H254540   1.241   9.427   3.705
18100WAT      O54541   0.845   6.030   3.870
18100WAT     H154542   0.763   5.991   3.829
18100WAT     H254543   0.853   6.126   3.843
18101WAT      O54544   0.314   4.948   2.182
18101WAT     H154545   0.299   4.898   2.267
18101WAT     H254546   0.287   5.043   2.194
18102WAT      O54547   9.102   8.714   5.414
18102WAT     H154548   9.124   8.622   5.445
18102WAT     H254549   9.186   8.766   5.400
18103WAT      O54550   8.041   8.871   6.705
18103WAT     H154551   8.083   8.780   6.700
18103WAT     H254552   8.074   8.927   6.629
18104WAT      O54553   1.630   7.653   5.218
18104WAT     H154554   1.681   7.599   5.285
18104WAT     H254555   1.543   7.681   5.258
18105WAT      O54556   6.665   1.719   7.948
18105WAT     H154557   6.722   1.638   7.933
18105WAT     H254558   6.619   1.712   8.036
18106WAT      O54559   2.895   9.346   7.007
18106WAT     H154560   2.960   9.314   6.938
18106WAT     H254561   2.944   9.364   7.093
18107WAT      O54562   6.981   6.183   9.500
18107WAT     H154563   6.944   6.140   9.583
18107WAT     H254564   6.921   6.258   9.473
18108WAT      O54565   0.449   4.397   4.429
18108WAT     H154566   0.535   4.349   4.419
18108WAT     H254567   0.454   4.485   4.381
18109WAT      O54568   2.230   2.704   4.815
18109WAT     H154569   2.252   2.635   4.884
18109WAT     H254570   2.152   2.674   4.761
18110WAT      O54571   5.186   3.841   0.443
18110WAT     H154572   5.209   3.938   0.442
18110WAT     H254573   5.189   3.807   0.537
18111WAT      O54574   0.574   6.443   1.189
18111WAT     H154575   0.609   6.396   1.108
18111WAT     H254576   0.613   6.535   1.193
18112WAT      O54577   7.854   3.784   3.639
18112WAT     H154578   7.802   3.750   3.561
18112WAT     H254579   7.800   3.771   3.723
18113WAT      O54580   3.278   6.394   9.755
18113WAT     H154581   3.347   6.353   9.696
18113WAT     H254582   3.276   6.347   9.843
18114WAT      O54583   4.898   9.159   7.537
18114WAT     H154584   4.822   9.189   7.479
18114WAT     H254585   4.919   9.063   7.519
18115WAT      O54586   5.855   8.579   9.395
18115WAT     H154587   5.860   8.482   9.419
18115WAT     H254588   5.883   8.634   9.474
18116WAT      O54589   3.518   7.828   2.925
18116WAT     H154590   3.606   7.784   2.940
18116WAT     H254591   3.460   7.815   3.006
18117WAT      O54592   5.747   9.734   8.273
18117WAT     H154593   5.648   9.742   8.273
18117WAT     H254594   5.777   9.689   8.189
18118WAT      O54595   0.466   1.252   4.116
18118WAT     H154596   0.502   1.239   4.024
18118WAT     H254597   0.475   1.167   4.168
18119WAT      O54598   3.243   6.615   2.090
18119WAT     H154599   3.337   6.620   2.123
18119WAT     H254600   3.191   6.550   2.145
18120WAT      O54601   9.593   8.048   7.986
18120WAT     H154602   9.542   8.129   8.017
18120WAT     H254603   9.528   7.977   7.960
18121WAT      O54604   9.097   3.750   4.851
18121WAT     H154605   9.022   3.804   4.890
18121WAT     H254606   9.183   3.779   4.893
18122WAT      O54607   7.386   5.481   0.669
18122WAT     H154608   7.322   5.507   0.742
18122WAT     H254609   7.356   5.520   0.582
18123WAT      O54610   2.142   8.336   7.018
18123WAT     H154611   2.158   8.381   6.931
18123WAT     H254612   2.230   8.321   7.064
18124WAT      O54613   7.455   2.281   6.923
18124WAT     H154614   7.502   2.237   7.000
18124WAT     H254615   7.495   2.371   6.906
18125WAT      O54616   6.698   5.701   2.865
18125WAT     H154617   6.662   5.655   2.946
18125WAT     H254618   6.690   5.640   2.786
18126WAT      O54619   5.485   9.063   8.115
18126WAT     H154620   5.560   9.000   8.098
18126WAT     H254621   5.463   9.112   8.030
18127WAT      O54622   1.372   1.843   0.346
18127WAT     H154623   1.379   1.749   0.378
18127WAT     H254624   1.276   1.865   0.329
18128WAT      O54625   8.723   1.507   5.619
18128WAT     H154626   8.722   1.423   5.674
18128WAT     H254627   8.814   1.521   5.582
18129WAT      O54628   8.723   6.390   6.900
18129WAT     H154629   8.773   6.461   6.852
18129WAT     H254630   8.709   6.311   6.839
18130WAT      O54631   3.282   1.316   5.776
18130WAT     H154632   3.269   1.274   5.686
18130WAT     H254633   3.283   1.416   5.766
18131WAT      O54634   9.200   2.486   5.393
18131WAT     H154635   9.170   2.557   5.330
18131WAT     H254636   9.122   2.435   5.427
18132WAT      O54637   9.685   3.007   8.142
18132WAT     H154638   9.683   2.972   8.236
18132WAT     H254639   9.635   3.093   8.137
18133WAT      O54640   7.661   7.336   0.555
18133WAT     H154641   7.567   7.370   0.548
18133WAT     H254642   7.684   7.321   0.651
18134WAT      O54643   6.016   4.130   9.657
18134WAT     H154644   6.001   4.060   9.586
18134WAT     H254645   6.017   4.086   9.747
18135WAT      O54646   9.453   5.755   7.634
18135WAT     H154647   9.362   5.738   7.671
18135WAT     H254648   9.497   5.668   7.611
18136WAT      O54649   1.819   0.058   7.804
18136WAT     H154650   1.778   0.149   7.797
18136WAT     H254651   1.759  -0.002   7.857
18137WAT      O54652   4.805   3.141   1.496
18137WAT     H154653   4.761   3.054   1.478
18137WAT     H254654   4.840   3.142   1.590
18138WAT      O54655   4.207   1.251   0.479
18138WAT     H154656   4.173   1.241   0.385
18138WAT     H254657   4.156   1.323   0.525
18139WAT      O54658   4.784   2.186   3.546
18139WAT     H154659   4.745   2.254   3.483
18139WAT     H254660   4.857   2.136   3.499
18140WAT      O54661   8.924   1.006   9.650
18140WAT     H154662   8.826   0.985   9.647
18140WAT     H254663   8.957   0.995   9.744
18141WAT      O54664   7.036   6.875   1.407
18141WAT     H154665   7.006   6.871   1.312
18141WAT     H254666   6.964   6.918   1.462
18142WAT      O54667   8.776   3.525   7.106
18142WAT     H154668   8.754   3.613   7.063
18142WAT     H254669   8.727   3.518   7.193
18143WAT      O54670   6.297   8.657   1.888
18143WAT     H154671   6.226   8.667   1.818
18143WAT     H254672   6.361   8.585   1.861
18144WAT      O54673   0.995   7.328   8.068
18144WAT     H154674   0.966   7.405   8.124
18144WAT     H254675   1.077   7.353   8.016
18145WAT      O54676   7.104   9.005   5.681
18145WAT     H154677   7.060   9.008   5.591
18145WAT     H254678   7.201   8.984   5.669
18146WAT      O54679   8.619   3.644   9.142
18146WAT     H154680   8.639   3.613   9.235
18146WAT     H254681   8.699   3.690   9.104
18147WAT      O54682   9.842   4.684   4.805
18147WAT     H154683   9.882   4.653   4.891
18147WAT     H254684   9.822   4.781   4.810
18148WAT      O54685   0.165   8.637   1.566
18148WAT     H154686   0.177   8.551   1.516
18148WAT     H254687   0.146   8.617   1.662
18149WAT      O54688   1.669   5.457   8.064
18149WAT     H154689   1.760   5.499   8.072
18149WAT     H254690   1.678   5.365   8.028
18150WAT      O54691   8.789   8.154   6.829
18150WAT     H154692   8.741   8.070   6.805
18150WAT     H254693   8.723   8.222   6.861
18151WAT      O54694   1.747   8.706   5.700
18151WAT     H154695   1.758   8.614   5.735
18151WAT     H254696   1.834   8.739   5.663
18152WAT      O54697   1.008   3.885   2.298
18152WAT     H154698   1.089   3.841   2.258
18152WAT     H254699   0.954   3.816   2.347
18153WAT      O54700   7.456   5.338   2.044
18153WAT     H154701   7.488   5.431   2.062
18153WAT     H254702   7.419   5.333   1.951
18154WAT      O54703   1.831   8.448   6.545
18154WAT     H154704   1.900   8.471   6.614
18154WAT     H254705   1.876   8.404   6.467
18155WAT      O54706   8.710   5.950   9.281
18155WAT     H154707   8.719   5.974   9.185
18155WAT     H254708   8.800   5.925   9.318
18156WAT      O54709   0.546   7.785   9.672
18156WAT     H154710   0.517   7.752   9.762
18156WAT     H254711   0.566   7.707   9.612
18157WAT      O54712   9.113   4.977   1.499
18157WAT     H154713   9.204   4.940   1.479
18157WAT     H254714   9.044   4.907   1.481
18158WAT      O54715   9.764   4.944   9.702
18158WAT     H154716   9.787   5.014   9.633
18158WAT     H254717   9.692   4.885   9.667
18159WAT      O54718   6.402   3.014   1.267
18159WAT     H154719   6.462   3.064   1.204
18159WAT     H254720   6.316   2.994   1.220
18160WAT      O54721   7.924   6.390   0.161
18160WAT     H154722   7.941   6.375   0.064
18160WAT     H254723   7.950   6.483   0.186
18161WAT      O54724   5.852   2.725   3.373
18161WAT     H154725   5.906   2.742   3.291
18161WAT     H254726   5.878   2.638   3.414
18162WAT      O54727   4.099   5.332   4.120
18162WAT     H154728   4.098   5.418   4.069
18162WAT     H254729   4.052   5.344   4.208
18163WAT      O54730   7.400   8.189   1.317
18163WAT     H154731   7.317   8.210   1.369
18163WAT     H254732   7.381   8.112   1.255
18164WAT      O54733   0.070   1.242   3.992
18164WAT     H154734   0.110   1.227   4.082
18164WAT     H254735  -0.029   1.243   4.000
18165WAT      O54736   8.354   2.054   8.459
18165WAT     H154737   8.361   2.022   8.554
18165WAT     H254738   8.266   2.029   8.421
18166WAT      O54739   8.067   8.493   9.592
18166WAT     H154740   8.135   8.420   9.580
18166WAT     H254741   8.029   8.518   9.503
18167WAT      O54742   8.425   5.413   0.692
18167WAT     H154743   8.505   5.361   0.722
18167WAT     H254744   8.369   5.436   0.772
18168WAT      O54745   8.321   5.283   8.780
18168WAT     H154746   8.297   5.369   8.826
18168WAT     H254747   8.403   5.297   8.724
18169WAT      O54748   7.236   7.959   1.944
18169WAT     H154749   7.214   8.053   1.969
18169WAT     H254750   7.171   7.927   1.875
18170WAT      O54751   6.067   6.483   6.817
18170WAT     H154752   6.092   6.394   6.778
18170WAT     H254753   6.147   6.543   6.817
18171WAT      O54754   6.097   9.024   7.103
18171WAT     H154755   6.128   9.118   7.086
18171WAT     H254756   6.117   8.967   7.024
18172WAT      O54757   1.138   9.645   5.801
18172WAT     H154758   1.201   9.667   5.726
18172WAT     H254759   1.157   9.553   5.835
18173WAT      O54760   5.871   1.915   2.443
18173WAT     H154761   5.798   1.972   2.406
18173WAT     H254762   5.902   1.952   2.530
18174WAT      O54763   6.697   4.297   8.101
18174WAT     H154764   6.643   4.379   8.083
18174WAT     H254765   6.794   4.321   8.104
18175WAT      O54766   6.855   1.900   6.551
18175WAT     H154767   6.882   1.949   6.468
18175WAT     H254768   6.838   1.804   6.529
18176WAT      O54769   7.757   3.245   9.505
18176WAT     H154770   7.742   3.338   9.473
18176WAT     H254771   7.758   3.182   9.428
18177WAT      O54772   5.065   9.367   7.434
18177WAT     H154773   5.018   9.294   7.482
18177WAT     H254774   5.003   9.408   7.367
18178WAT      O54775   6.809   4.022   2.356
18178WAT     H154776   6.716   4.049   2.379
18178WAT     H254777   6.866   4.104   2.348
18179WAT      O54778   9.242   8.964   2.512
18179WAT     H154779   9.337   8.972   2.543
18179WAT     H254780   9.225   9.030   2.438
18180WAT      O54781   1.084   7.472   4.276
18180WAT     H154782   1.073   7.568   4.301
18180WAT     H254783   1.017   7.448   4.205
18181WAT      O54784   1.338   6.488   0.618
18181WAT     H154785   1.355   6.546   0.539
18181WAT     H254786   1.357   6.393   0.594
18182WAT      O54787   4.853   1.760   2.504
18182WAT     H154788   4.886   1.711   2.585
18182WAT     H254789   4.885   1.855   2.508
18183WAT      O54790   7.929   1.717   1.181
18183WAT     H154791   7.926   1.816   1.166
18183WAT     H254792   8.004   1.678   1.128
18184WAT      O54793   6.898   9.383   8.434
18184WAT     H154794   6.814   9.369   8.381
18184WAT     H254795   6.937   9.294   8.459
18185WAT      O54796   2.549   4.078   6.008
18185WAT     H154797   2.596   4.010   5.952
18185WAT     H254798   2.607   4.103   6.086
18186WAT      O54799   5.251   2.185   0.128
18186WAT     H154800   5.341   2.225   0.108
18186WAT     H254801   5.262   2.089   0.151
18187WAT      O54802   9.808   8.947   0.343
18187WAT     H154803   9.864   8.934   0.260
18187WAT     H254804   9.732   9.009   0.322
18188WAT      O54805   6.461   9.361   9.748
18188WAT     H154806   6.363   9.352   9.729
18188WAT     H254807   6.494   9.449   9.713
18189WAT      O54808   6.008   6.785   0.194
18189WAT     H154809   6.095   6.764   0.150
18189WAT     H254810   6.015   6.769   0.292
18190WAT      O54811   4.249   2.866   7.317
18190WAT     H154812   4.315   2.867   7.241
18190WAT     H254813   4.226   2.960   7.342
18191WAT      O54814   9.166   8.398   8.796
18191WAT     H154815   9.231   8.472   8.815
18191WAT     H254816   9.138   8.355   8.883
18192WAT      O54817   5.747   8.788   6.666
18192WAT     H154818   5.661   8.743   6.640
18192WAT     H254819   5.759   8.783   6.765
18193WAT      O54820   2.702   3.071   2.067
18193WAT     H154821   2.801   3.069   2.076
18193WAT     H254822   2.671   2.988   2.019
18194WAT      O54823   3.226   7.265   6.207
18194WAT     H154824   3.324   7.284   6.206
18194WAT     H254825   3.205   7.196   6.138
18195WAT      O54826   4.919   3.817   5.655
18195WAT     H154827   4.991   3.762   5.613
18195WAT     H254828   4.838   3.760   5.670
18196WAT      O54829   2.352   9.219   4.532
18196WAT     H154830   2.325   9.180   4.621
18196WAT     H254831   2.285   9.287   4.503
18197WAT      O54832   9.668   7.015   1.152
18197WAT     H154833   9.729   7.044   1.226
18197WAT     H254834   9.624   7.095   1.112
18198WAT      O54835   6.318   2.785   4.000
18198WAT     H154836   6.353   2.874   3.972
18198WAT     H254837   6.247   2.798   4.070
18199WAT      O54838   8.572   2.199   7.806
18199WAT     H154839   8.514   2.242   7.737
18199WAT     H254840   8.529   2.209   7.896
18200WAT      O54841   4.170   4.917   0.701
18200WAT     H154842   4.078   4.879   0.701
18200WAT     H254843   4.221   4.881   0.780
18201WAT      O54844   0.079   0.862   7.911
18201WAT     H154845   0.144   0.935   7.931
18201WAT     H254846   0.046   0.823   7.997
18202WAT      O54847   7.019   9.083   4.751
18202WAT     H154848   7.049   8.991   4.776
18202WAT     H254849   7.084   9.150   4.788
18203WAT      O54850   0.559   0.809   2.254
18203WAT     H154851   0.616   0.727   2.251
18203WAT     H254852   0.613   0.888   2.228
18204WAT      O54853   7.755   8.844   5.353
18204WAT     H154854   7.717   8.801   5.271
18204WAT     H254855   7.845   8.805   5.372
18205WAT      O54856   7.503   3.035   5.753
18205WAT     H154857   7.422   3.088   5.779
18205WAT     H254858   7.561   3.022   5.834
18206WAT      O54859   0.909   6.788   3.396
18206WAT     H154860   0.927   6.800   3.299
18206WAT     H254861   0.920   6.692   3.421
18207WAT      O54862   6.099   1.952   7.777
18207WAT     H154863   6.104   2.033   7.718
18207WAT     H254864   6.044   1.882   7.733
18208WAT      O54865   2.665   4.242   6.717
18208WAT     H154866   2.581   4.286   6.747
18208WAT     H254867   2.698   4.180   6.788
18209WAT      O54868   6.534   2.200   3.578
18209WAT     H154869   6.446   2.204   3.530
18209WAT     H254870   6.608   2.213   3.512
18210WAT      O54871   8.880   2.758   4.613
18210WAT     H154872   8.810   2.698   4.574
18210WAT     H254873   8.971   2.721   4.594
18211WAT      O54874   2.829   6.784   2.129
18211WAT     H154875   2.853   6.693   2.095
18211WAT     H254876   2.735   6.783   2.165
18212WAT      O54877   8.991   3.459   2.432
18212WAT     H154878   9.058   3.526   2.398
18212WAT     H254879   8.900   3.500   2.431
18213WAT      O54880   1.698   8.106   4.809
18213WAT     H154881   1.649   8.112   4.896
18213WAT     H254882   1.782   8.160   4.814
18214WAT      O54883   1.830   9.717   1.844
18214WAT     H154884   1.903   9.653   1.868
18214WAT     H254885   1.806   9.771   1.925
18215WAT      O54886   7.724   7.458   6.442
18215WAT     H154887   7.764   7.396   6.509
18215WAT     H254888   7.788   7.531   6.420
18216WAT      O54889   0.934   8.152   6.830
18216WAT     H154890   0.846   8.154   6.877
18216WAT     H254891   0.994   8.084   6.873
18217WAT      O54892   8.441   4.896   1.789
18217WAT     H154893   8.367   4.830   1.775
18217WAT     H254894   8.451   4.914   1.887
18218WAT      O54895   9.839   0.696   6.716
18218WAT     H154896   9.866   0.765   6.649
18218WAT     H254897   9.893   0.612   6.700
18219WAT      O54898   2.252   1.022   1.078
18219WAT     H154899   2.222   1.117   1.081
18219WAT     H254900   2.281   0.994   1.169
18220WAT      O54901   5.741   4.908   9.312
18220WAT     H154902   5.674   4.907   9.238
18220WAT     H254903   5.794   4.823   9.311
18221WAT      O54904   3.427   0.365   8.538
18221WAT     H154905   3.392   0.432   8.604
18221WAT     H254906   3.409   0.398   8.445
18222WAT      O54907   5.538   8.690   5.743
18222WAT     H154908   5.524   8.617   5.810
18222WAT     H254909   5.632   8.723   5.750
18223WAT      O54910   4.311   4.217   0.752
18223WAT     H154911   4.306   4.309   0.713
18223WAT     H254912   4.401   4.178   0.735
18224WAT      O54913   0.654   7.365   0.893
18224WAT     H154914   0.649   7.276   0.846
18224WAT     H254915   0.658   7.438   0.824
18225WAT      O54916   9.815   2.445   4.094
18225WAT     H154917   9.827   2.412   4.188
18225WAT     H254918   9.836   2.371   4.030
18226WAT      O54919   3.281   9.487   8.960
18226WAT     H154920   3.350   9.432   8.913
18226WAT     H254921   3.252   9.440   9.043
18227WAT      O54922   6.738   2.283   8.781
18227WAT     H154923   6.706   2.191   8.761
18227WAT     H254924   6.828   2.278   8.824
18228WAT      O54925   5.289   3.006   7.031
18228WAT     H154926   5.300   2.969   7.123
18228WAT     H254927   5.378   3.035   6.996
18229WAT      O54928   9.790   1.136   7.038
18229WAT     H154929   9.844   1.200   7.093
18229WAT     H254930   9.789   1.047   7.082
18230WAT      O54931   8.819   5.483   4.142
18230WAT     H154932   8.785   5.405   4.089
18230WAT     H254933   8.910   5.509   4.110
18231WAT      O54934   9.134   7.604   6.364
18231WAT     H154935   9.207   7.545   6.396
18231WAT     H254936   9.092   7.651   6.442
18232WAT      O54937   1.548   9.344   0.803
18232WAT     H154938   1.556   9.438   0.838
18232WAT     H254939   1.494   9.289   0.867
18233WAT      O54940   6.296   6.075   7.259
18233WAT     H154941   6.204   6.094   7.293
18233WAT     H254942   6.364   6.113   7.322
18234WAT      O54943   1.401   7.397   3.013
18234WAT     H154944   1.430   7.492   2.996
18234WAT     H254945   1.383   7.384   3.110
18235WAT      O54946   1.532   3.242   2.235
18235WAT     H154947   1.458   3.261   2.170
18235WAT     H254948   1.618   3.232   2.185
18236WAT      O54949   0.944   2.171   4.189
18236WAT     H154950   0.873   2.144   4.255
18236WAT     H254951   0.901   2.202   4.105
18237WAT      O54952   1.992   8.290   6.349
18237WAT     H154953   1.996   8.219   6.420
18237WAT     H254954   2.067   8.276   6.284
18238WAT      O54955   9.247   9.632   9.657
18238WAT     H154956   9.244   9.639   9.757
18238WAT     H254957   9.342   9.618   9.628
18239WAT      O54958   4.111   4.115   1.250
18239WAT     H154959   4.180   4.057   1.295
18239WAT     H254960   4.149   4.152   1.165
18240WAT      O54961   1.206   4.354   3.290
18240WAT     H154962   1.148   4.329   3.368
18240WAT     H254963   1.183   4.446   3.260
18241WAT      O54964   4.602   4.062   1.213
18241WAT     H154965   4.599   4.152   1.257
18241WAT     H254966   4.692   4.047   1.173
18242WAT      O54967   8.823   6.440   7.157
18242WAT     H154968   8.781   6.404   7.074
18242WAT     H254969   8.825   6.540   7.153
18243WAT      O54970   5.748   5.617   8.970
18243WAT     H154971   5.649   5.622   8.974
18243WAT     H254972   5.777   5.521   8.963
18244WAT      O54973   9.883   3.465   6.476
18244WAT     H154974   9.864   3.370   6.499
18244WAT     H254975   9.974   3.489   6.509
18245WAT      O54976   9.164   2.140   7.280
18245WAT     H154977   9.141   2.232   7.248
18245WAT     H254978   9.200   2.087   7.204
18246WAT      O54979   3.836   2.241   2.169
18246WAT     H154980   3.892   2.203   2.242
18246WAT     H254981   3.740   2.245   2.199
18247WAT      O54982   5.751   0.286   6.349
18247WAT     H154983   5.784   0.373   6.312
18247WAT     H254984   5.826   0.238   6.395
18248WAT      O54985   4.173   6.352   3.237
18248WAT     H154986   4.232   6.410   3.181
18248WAT     H254987   4.093   6.404   3.266
18249WAT      O54988   4.206   6.407   3.710
18249WAT     H154989   4.114   6.375   3.735
18249WAT     H254990   4.200   6.497   3.668
18250WAT      O54991   1.866   0.543   5.320
18250WAT     H154992   1.824   0.613   5.377
18250WAT     H254993   1.884   0.580   5.228
18251WAT      O54994   8.906   8.982   7.867
18251WAT     H154995   8.866   8.974   7.776
18251WAT     H254996   8.983   8.918   7.875
18252WAT      O54997   0.279   7.485   4.264
18252WAT     H154998   0.193   7.459   4.307
18252WAT     H254999   0.293   7.583   4.275
18253WAT      O55000   5.472   5.322   6.358
18253WAT     H155001   5.490   5.418   6.379
18253WAT     H255002   5.495   5.265   6.437
18254WAT      O55003   0.785   6.935   4.974
18254WAT     H155004   0.882   6.918   4.956
18254WAT     H255005   0.755   7.016   4.923
18255WAT      O55006   6.364   1.292   2.072
18255WAT     H155007   6.368   1.252   1.980
18255WAT     H255008   6.457   1.297   2.110
18256WAT      O55009   9.544   9.118   0.891
18256WAT     H155010   9.557   9.159   0.981
18256WAT     H255011   9.518   9.189   0.825
18257WAT      O55012   3.530   6.381   7.037
18257WAT     H155013   3.488   6.291   7.052
18257WAT     H255014   3.492   6.447   7.102
18258WAT      O55015   2.164   8.182   4.461
18258WAT     H155016   2.143   8.246   4.388
18258WAT     H255017   2.184   8.232   4.545
18259WAT      O55018   0.463   2.179   2.609
18259WAT     H155019   0.554   2.152   2.575
18259WAT     H255020   0.452   2.147   2.703
18260WAT      O55021   4.188   2.919   2.640
18260WAT     H155022   4.237   2.858   2.578
18260WAT     H255023   4.120   2.971   2.589
18261WAT      O55024   3.616   8.870   7.261
18261WAT     H155025   3.677   8.946   7.237
18261WAT     H255026   3.531   8.907   7.299
18262WAT      O55027   9.558   8.260   9.372
18262WAT     H155028   9.624   8.216   9.434
18262WAT     H255029   9.497   8.191   9.334
18263WAT      O55030   3.735   1.726   7.097
18263WAT     H155031   3.704   1.706   7.190
18263WAT     H255032   3.828   1.761   7.099
18264WAT      O55033   4.082   1.446   1.124
18264WAT     H155034   4.005   1.396   1.086
18264WAT     H255035   4.056   1.541   1.140
18265WAT      O55036   6.725   7.112   5.782
18265WAT     H155037   6.631   7.145   5.788
18265WAT     H255038   6.727   7.014   5.804
18266WAT      O55039   5.310   0.581   7.502
18266WAT     H155040   5.245   0.559   7.575
18266WAT     H255041   5.268   0.645   7.438
18267WAT      O55042   8.130   2.227   3.945
18267WAT     H155043   8.220   2.185   3.956
18267WAT     H255044   8.073   2.168   3.888
18268WAT      O55045   8.572   2.664   4.172
18268WAT     H155046   8.590   2.623   4.083
18268WAT     H255047   8.609   2.604   4.244
18269WAT      O55048   7.591   4.315   1.964
18269WAT     H155049   7.519   4.332   1.896
18269WAT     H255050   7.628   4.403   1.995
18270WAT      O55051   4.561   2.135   7.193
18270WAT     H155052   4.465   2.106   7.185
18270WAT     H255053   4.598   2.153   7.101
18271WAT      O55054   6.239   9.732   4.900
18271WAT     H155055   6.314   9.672   4.873
18271WAT     H255056   6.271   9.827   4.900
18272WAT      O55057   2.353   9.445   3.445
18272WAT     H155058   2.375   9.500   3.526
18272WAT     H255059   2.347   9.505   3.365
18273WAT      O55060   3.635   7.548   6.915
18273WAT     H155061   3.624   7.453   6.942
18273WAT     H255062   3.639   7.606   6.997
18274WAT      O55063   5.426   4.555   7.789
18274WAT     H155064   5.487   4.514   7.721
18274WAT     H255065   5.331   4.539   7.762
18275WAT      O55066   8.148   3.950   2.574
18275WAT     H155067   8.141   4.010   2.495
18275WAT     H255068   8.244   3.942   2.602
18276WAT      O55069   0.267   7.794   5.292
18276WAT     H155070   0.230   7.879   5.253
18276WAT     H255071   0.318   7.744   5.222
18277WAT      O55072   3.284   5.898   2.485
18277WAT     H155073   3.330   5.812   2.505
18277WAT     H255074   3.353   5.971   2.478
18278WAT      O55075   1.250   2.341   5.488
18278WAT     H155076   1.303   2.376   5.565
18278WAT     H255077   1.271   2.394   5.406
18279WAT      O55078   7.685   5.809   6.850
18279WAT     H155079   7.665   5.800   6.948
18279WAT     H255080   7.686   5.906   6.825
18280WAT      O55081   1.789   0.291   6.637
18280WAT     H155082   1.799   0.251   6.728
18280WAT     H255083   1.879   0.304   6.596
18281WAT      O55084   3.779   8.374   0.843
18281WAT     H155085   3.754   8.466   0.875
18281WAT     H255086   3.698   8.329   0.805
18282WAT      O55087   3.840   7.792   5.913
18282WAT     H155088   3.740   7.788   5.901
18282WAT     H255089   3.864   7.750   6.001
18283WAT      O55090   0.414   9.205   3.772
18283WAT     H155091   0.397   9.110   3.748
18283WAT     H255092   0.420   9.214   3.872
18284WAT      O55093   1.303   2.575   6.778
18284WAT     H155094   1.274   2.480   6.764
18284WAT     H255095   1.222   2.633   6.786
18285WAT      O55096   9.172   9.042   9.443
18285WAT     H155097   9.208   9.134   9.430
18285WAT     H255098   9.160   8.997   9.354
18286WAT      O55099   2.060   9.288   9.482
18286WAT     H155100   2.052   9.196   9.445
18286WAT     H255101   2.004   9.351   9.428
18287WAT      O55102   1.223   0.988   3.587
18287WAT     H155103   1.281   0.920   3.541
18287WAT     H255104   1.190   1.055   3.521
18288WAT      O55105   8.572   5.887   3.483
18288WAT     H155106   8.489   5.831   3.478
18288WAT     H255107   8.553   5.969   3.536
18289WAT      O55108   5.943   8.067   9.715
18289WAT     H155109   5.844   8.071   9.700
18289WAT     H255110   5.969   8.134   9.785
18290WAT      O55111   1.191   9.304   1.666
18290WAT     H155112   1.251   9.316   1.746
18290WAT     H255113   1.098   9.333   1.689
18291WAT      O55114   0.232   7.168   3.767
18291WAT     H155115   0.310   7.118   3.731
18291WAT     H255116   0.264   7.250   3.815
18292WAT      O55117   5.853   1.639   4.726
18292WAT     H155118   5.877   1.736   4.721
18292WAT     H255119   5.923   1.590   4.777
18293WAT      O55120   0.303   5.881   9.622
18293WAT     H155121   0.388   5.836   9.596
18293WAT     H255122   0.279   5.856   9.716
18294WAT      O55123   3.475   1.396   4.840
18294WAT     H155124   3.480   1.356   4.749
18294WAT     H255125   3.508   1.491   4.836
18295WAT      O55126   8.845   2.184   0.019
18295WAT     H155127   8.789   2.110  -0.019
18295WAT     H255128   8.791   2.235   0.086
18296WAT      O55129   7.687   5.613   2.058
18296WAT     H155130   7.758   5.547   2.034
18296WAT     H255131   7.703   5.698   2.007
18297WAT      O55132   0.861   0.681   5.602
18297WAT     H155133   0.813   0.627   5.533
18297WAT     H255134   0.904   0.620   5.668
18298WAT      O55135   4.249   1.305   8.495
18298WAT     H155136   4.166   1.251   8.505
18298WAT     H255137   4.302   1.271   8.417
18299WAT      O55138   3.533   6.287   3.000
18299WAT     H155139   3.610   6.237   2.960
18299WAT     H255140   3.468   6.311   2.928
18300WAT      O55141   1.706   8.142   7.173
18300WAT     H155142   1.616   8.139   7.128
18300WAT     H255143   1.772   8.090   7.119
18301WAT      O55144   9.544   9.768   1.346
18301WAT     H155145   9.638   9.746   1.374
18301WAT     H255146   9.482   9.696   1.376
18302WAT      O55147   0.827   6.998   4.608
18302WAT     H155148   0.760   7.052   4.557
18302WAT     H255149   0.888   6.951   4.545
18303WAT      O55150   5.197   2.953   5.092
18303WAT     H155151   5.277   2.931   5.036
18303WAT     H255152   5.175   2.876   5.151
18304WAT      O55153   0.676   4.867   9.732
18304WAT     H155154   0.657   4.963   9.751
18304WAT     H255155   0.768   4.844   9.764
18305WAT      O55156   8.831   3.771   5.702
18305WAT     H155157   8.811   3.747   5.607
18305WAT     H255158   8.877   3.694   5.746
18306WAT      O55159   7.334   0.100   0.380
18306WAT     H155160   7.288   0.128   0.296
18306WAT     H255161   7.279   0.030   0.426
18307WAT      O55162   9.178   1.236   7.623
18307WAT     H155163   9.223   1.324   7.611
18307WAT     H255164   9.090   1.250   7.669
18308WAT      O55165   8.663   8.864   2.251
18308WAT     H155166   8.659   8.771   2.213
18308WAT     H255167   8.635   8.929   2.181
18309WAT      O55168   8.545   2.275   8.287
18309WAT     H155169   8.471   2.254   8.352
18309WAT     H255170   8.630   2.233   8.320
18310WAT      O55171   3.070   1.914   0.732
18310WAT     H155172   3.058   1.931   0.830
18310WAT     H255173   3.042   1.994   0.680
18311WAT      O55174   6.429   2.957   9.503
18311WAT     H155175   6.391   2.865   9.513
18311WAT     H255176   6.519   2.962   9.548
18312WAT      O55177   4.572   1.280   7.407
18312WAT     H155178   4.518   1.244   7.331
18312WAT     H255179   4.512   1.329   7.470
18313WAT      O55180   1.236   4.574   9.716
18313WAT     H155181   1.176   4.500   9.746
18313WAT     H255182   1.184   4.638   9.659
18314WAT      O55183   2.776   1.356   4.830
18314WAT     H155184   2.870   1.340   4.861
18314WAT     H255185   2.712   1.340   4.905
18315WAT      O55186   5.378   2.165   6.554
18315WAT     H155187   5.455   2.201   6.607
18315WAT     H255188   5.390   2.066   6.542
18316WAT      O55189   5.742   8.411   5.241
18316WAT     H155190   5.687   8.343   5.291
18316WAT     H255191   5.721   8.405   5.143
18317WAT      O55192   9.065   1.513   3.980
18317WAT     H155193   9.158   1.532   4.011
18317WAT     H255194   9.023   1.445   4.040
18318WAT      O55195   0.529   3.349   8.212
18318WAT     H155196   0.627   3.366   8.208
18318WAT     H255197   0.511   3.268   8.268
18319WAT      O55198   5.929   3.537   0.304
18319WAT     H155199   5.969   3.594   0.232
18319WAT     H255200   5.942   3.441   0.281
18320WAT      O55201   5.193   1.839   5.969
18320WAT     H155202   5.203   1.815   5.873
18320WAT     H255203   5.179   1.938   5.978
18321WAT      O55204   1.234   3.403   9.507
18321WAT     H155205   1.141   3.408   9.544
18321WAT     H255206   1.231   3.417   9.408
18322WAT      O55207   3.979   5.324   5.873
18322WAT     H155208   3.921   5.326   5.954
18322WAT     H255209   3.956   5.402   5.814
18323WAT      O55210   7.993   0.260   6.489
18323WAT     H155211   8.014   0.357   6.502
18323WAT     H255212   7.983   0.241   6.392
18324WAT      O55213   1.714   0.373   7.233
18324WAT     H155214   1.631   0.318   7.246
18324WAT     H255215   1.748   0.359   7.140
18325WAT      O55216   5.618   7.359   3.402
18325WAT     H155217   5.579   7.451   3.392
18325WAT     H255218   5.714   7.360   3.372
18326WAT      O55219   0.363   1.121   0.044
18326WAT     H155220   0.460   1.140   0.055
18326WAT     H255221   0.309   1.200   0.072
18327WAT      O55222   4.323   6.247   4.209
18327WAT     H155223   4.382   6.184   4.259
18327WAT     H255224   4.356   6.341   4.221
18328WAT      O55225   1.699   1.154   9.220
18328WAT     H155226   1.754   1.128   9.299
18328WAT     H255227   1.616   1.200   9.250
18329WAT      O55228   1.708   7.252   2.169
18329WAT     H155229   1.636   7.259   2.239
18329WAT     H255230   1.703   7.161   2.126
18330WAT      O55231   1.587   3.613   1.036
18330WAT     H155232   1.509   3.597   0.975
18330WAT     H255233   1.658   3.663   0.986
18331WAT      O55234   8.129   6.314   2.964
18331WAT     H155235   8.059   6.334   3.032
18331WAT     H255236   8.142   6.215   2.958
18332WAT      O55237   3.573   7.834   1.938
18332WAT     H155238   3.478   7.817   1.963
18332WAT     H255239   3.580   7.844   1.839
18333WAT      O55240   1.803   1.277   2.419
18333WAT     H155241   1.799   1.256   2.321
18333WAT     H255242   1.898   1.283   2.448
18334WAT      O55243   9.092   3.042   2.151
18334WAT     H155244   9.074   3.093   2.235
18334WAT     H255245   9.108   3.106   2.075
18335WAT      O55246   9.269   8.543   7.038
18335WAT     H155247   9.196   8.524   6.972
18335WAT     H255248   9.321   8.623   7.008
18336WAT      O55249   7.648   2.291   3.410
18336WAT     H155250   7.732   2.332   3.373
18336WAT     H255251   7.569   2.328   3.362
18337WAT      O55252   5.438   6.688   7.749
18337WAT     H155253   5.522   6.698   7.802
18337WAT     H255254   5.369   6.753   7.784
18338WAT      O55255   1.435   3.862   2.986
18338WAT     H155256   1.535   3.865   2.984
18338WAT     H255257   1.404   3.772   2.956
18339WAT      O55258   6.807   5.161   7.953
18339WAT     H155259   6.800   5.132   8.048
18339WAT     H255260   6.892   5.213   7.940
18340WAT      O55261   9.097   1.297   6.826
18340WAT     H155262   9.006   1.260   6.806
18340WAT     H255263   9.146   1.234   6.887
18341WAT      O55264   6.115   5.410   1.131
18341WAT     H155265   6.016   5.403   1.144
18341WAT     H255266   6.134   5.465   1.049
18342WAT      O55267   9.002   0.188   6.861
18342WAT     H155268   9.062   0.112   6.886
18342WAT     H255269   9.011   0.261   6.929
18343WAT      O55270   7.928   8.001   9.019
18343WAT     H155271   7.955   7.960   8.931
18343WAT     H255272   7.850   7.951   9.056
18344WAT      O55273   8.540   2.119   2.326
18344WAT     H155274   8.607   2.149   2.394
18344WAT     H255275   8.510   2.198   2.272
18345WAT      O55276   2.625   7.685   3.483
18345WAT     H155277   2.681   7.707   3.403
18345WAT     H255278   2.571   7.603   3.464
18346WAT      O55279   1.416   7.542   0.304
18346WAT     H155280   1.345   7.532   0.235
18346WAT     H255281   1.484   7.469   0.293
18347WAT      O55282   1.009   0.887   1.364
18347WAT     H155283   1.070   0.829   1.310
18347WAT     H255284   1.063   0.947   1.422
18348WAT      O55285   7.416   7.473   5.993
18348WAT     H155286   7.348   7.539   5.963
18348WAT     H255287   7.502   7.520   6.015
18349WAT      O55288   1.283   4.594   9.198
18349WAT     H155289   1.303   4.636   9.110
18349WAT     H255290   1.322   4.651   9.271
18350WAT      O55291   9.751   4.749   1.456
18350WAT     H155292   9.832   4.691   1.440
18350WAT     H255293   9.680   4.694   1.500
18351WAT      O55294   7.842   1.868   8.416
18351WAT     H155295   7.873   1.780   8.451
18351WAT     H255296   7.773   1.853   8.345
18352WAT      O55297   0.966   6.832   0.884
18352WAT     H155298   0.927   6.877   0.804
18352WAT     H255299   1.009   6.901   0.943
18353WAT      O55300   2.720   6.589   7.817
18353WAT     H155301   2.659   6.661   7.852
18353WAT     H255302   2.775   6.626   7.743
18354WAT      O55303   5.499   3.702   2.045
18354WAT     H155304   5.493   3.608   2.010
18354WAT     H255305   5.463   3.706   2.138
18355WAT      O55306   7.358   4.593   9.453
18355WAT     H155307   7.363   4.692   9.439
18355WAT     H255308   7.340   4.548   9.366
18356WAT      O55309   9.020   6.777   6.781
18356WAT     H155310   9.058   6.807   6.868
18356WAT     H255311   9.094   6.739   6.725
18357WAT      O55312   3.627   2.293   8.478
18357WAT     H155313   3.589   2.305   8.386
18357WAT     H255314   3.562   2.327   8.546
18358WAT      O55315   6.893   7.809   2.018
18358WAT     H155316   6.943   7.729   1.986
18358WAT     H255317   6.940   7.892   1.989
18359WAT      O55318   4.013   8.461   6.667
18359WAT     H155319   3.930   8.515   6.680
18359WAT     H255320   3.989   8.365   6.654
18360WAT      O55321   6.030   7.973   1.055
18360WAT     H155322   5.963   7.904   1.027
18360WAT     H255323   5.982   8.054   1.090
18361WAT      O55324   1.492   7.589   9.426
18361WAT     H155325   1.586   7.604   9.456
18361WAT     H255326   1.476   7.636   9.339
18362WAT      O55327   5.228   6.561   8.134
18362WAT     H155328   5.195   6.601   8.048
18362WAT     H255329   5.314   6.605   8.160
18363WAT      O55330   3.371   1.024   0.221
18363WAT     H155331   3.389   0.926   0.221
18363WAT     H255332   3.282   1.042   0.263
18364WAT      O55333   7.774   6.708   1.880
18364WAT     H155334   7.744   6.661   1.797
18364WAT     H255335   7.746   6.656   1.960
18365WAT      O55336   2.073   0.956   2.394
18365WAT     H155337   2.093   0.984   2.488
18365WAT     H255338   2.087   1.033   2.333
18366WAT      O55339   6.883   9.644   6.591
18366WAT     H155340   6.830   9.626   6.674
18366WAT     H255341   6.855   9.580   6.519
18367WAT      O55342   8.703   2.065   4.905
18367WAT     H155343   8.638   2.014   4.962
18367WAT     H255344   8.663   2.080   4.815
18368WAT      O55345   4.331   3.636   2.521
18368WAT     H155346   4.282   3.560   2.480
18368WAT     H255347   4.404   3.601   2.581
18369WAT      O55348   1.496   7.442   9.183
18369WAT     H155349   1.511   7.471   9.278
18369WAT     H255350   1.577   7.463   9.129
18370WAT      O55351   9.541   5.653   5.627
18370WAT     H155352   9.558   5.752   5.625
18370WAT     H255353   9.578   5.611   5.544
18371WAT      O55354   5.063   7.805   2.101
18371WAT     H155355   5.134   7.746   2.062
18371WAT     H255356   4.980   7.752   2.116
18372WAT      O55357   0.476   4.267   3.272
18372WAT     H155358   0.465   4.334   3.199
18372WAT     H255359   0.399   4.203   3.271
18373WAT      O55360   4.016   7.297   7.434
18373WAT     H155361   4.037   7.389   7.466
18373WAT     H255362   3.932   7.265   7.478
18374WAT      O55363   2.594   6.132   9.261
18374WAT     H155364   2.506   6.124   9.309
18374WAT     H255365   2.662   6.171   9.322
18375WAT      O55366   3.258   2.166   8.294
18375WAT     H155367   3.329   2.103   8.325
18375WAT     H255368   3.297   2.258   8.285
18376WAT      O55369   6.419   2.112   1.209
18376WAT     H155370   6.350   2.119   1.137
18376WAT     H255371   6.508   2.092   1.169
18377WAT      O55372   3.438   2.743   2.658
18377WAT     H155373   3.436   2.777   2.751
18377WAT     H255374   3.436   2.643   2.658
18378WAT      O55375   7.515   4.632   1.550
18378WAT     H155376   7.433   4.587   1.585
18378WAT     H255377   7.505   4.731   1.558
18379WAT      O55378   0.922   6.087   9.484
18379WAT     H155379   0.828   6.117   9.472
18379WAT     H255380   0.964   6.070   9.395
18380WAT      O55381   8.314   3.561   8.747
18380WAT     H155382   8.328   3.522   8.656
18380WAT     H255383   8.345   3.496   8.816
18381WAT      O55384   4.746   3.660   4.942
18381WAT     H155385   4.828   3.616   4.906
18381WAT     H255386   4.692   3.593   4.993
18382WAT      O55387   7.772   5.310   8.745
18382WAT     H155388   7.786   5.245   8.821
18382WAT     H255389   7.674   5.327   8.733
18383WAT      O55390   6.694   3.768   0.941
18383WAT     H155391   6.789   3.740   0.927
18383WAT     H255392   6.684   3.809   1.032
18384WAT      O55393   5.964   8.273   6.808
18384WAT     H155394   6.051   8.231   6.836
18384WAT     H255395   5.982   8.366   6.777
18385WAT      O55396   9.708   0.073   6.573
18385WAT     H155397   9.699   0.170   6.595
18385WAT     H255398   9.766   0.029   6.642
18386WAT      O55399   0.031   2.595   0.551
18386WAT     H155400  -0.013   2.680   0.580
18386WAT     H255401  -0.004   2.569   0.461
18387WAT      O55402   9.033   0.734   4.261
18387WAT     H155403   9.014   0.640   4.289
18387WAT     H255404   9.065   0.734   4.166
18388WAT      O55405   1.324   3.587   4.347
18388WAT     H155406   1.338   3.621   4.440
18388WAT     H255407   1.250   3.519   4.348
18389WAT      O55408   0.282   4.504   1.032
18389WAT     H155409   0.205   4.527   1.091
18389WAT     H255410   0.352   4.456   1.085
18390WAT      O55411   7.232   4.237   4.446
18390WAT     H155412   7.210   4.185   4.529
18390WAT     H255413   7.155   4.295   4.422
18391WAT      O55414   0.194   1.444   7.070
18391WAT     H155415   0.276   1.493   7.101
18391WAT     H255416   0.193   1.443   6.970
18392WAT      O55417   7.944   3.582   9.343
18392WAT     H155418   7.925   3.670   9.301
18392WAT     H255419   8.039   3.557   9.328
18393WAT      O55420   5.815   3.275   0.940
18393WAT     H155421   5.756   3.201   0.908
18393WAT     H255422   5.831   3.340   0.865
18394WAT      O55423   2.420   8.124   4.790
18394WAT     H155424   2.371   8.042   4.762
18394WAT     H255425   2.510   8.098   4.826
18395WAT      O55426   1.945   0.757   3.708
18395WAT     H155427   1.847   0.759   3.686
18395WAT     H255428   1.993   0.824   3.652
18396WAT      O55429   6.812   2.536   9.091
18396WAT     H155430   6.812   2.608   9.161
18396WAT     H255431   6.790   2.577   9.002
18397WAT      O55432   2.933   2.666   8.267
18397WAT     H155433   2.843   2.668   8.225
18397WAT     H255434   2.964   2.759   8.285
18398WAT      O55435   4.644   2.434   6.525
18398WAT     H155436   4.728   2.471   6.563
18398WAT     H255437   4.574   2.431   6.597
18399WAT      O55438   3.377   9.821   3.662
18399WAT     H155439   3.445   9.748   3.672
18399WAT     H255440   3.350   9.828   3.566
18400WAT      O55441   6.844   9.052   9.177
18400WAT     H155442   6.857   8.991   9.255
18400WAT     H255443   6.747   9.055   9.153
18401WAT      O55444   6.682   7.580   6.757
18401WAT     H155445   6.680   7.498   6.701
18401WAT     H255446   6.688   7.554   6.854
18402WAT      O55447   2.348   7.875   5.119
18402WAT     H155448   2.390   7.960   5.152
18402WAT     H255449   2.318   7.820   5.197
18403WAT      O55450   0.332   0.251   4.571
18403WAT     H155451   0.333   0.223   4.475
18403WAT     H255452   0.287   0.181   4.626
18404WAT      O55453   9.041   6.707   4.201
18404WAT     H155454   9.038   6.769   4.123
18404WAT     H255455   9.084   6.621   4.173
18405WAT      O55456   1.039   7.171   8.325
18405WAT     H155457   1.059   7.091   8.382
18405WAT     H255458   1.103   7.175   8.248
18406WAT      O55459   0.684   0.706   9.689
18406WAT     H155460   0.735   0.771   9.632
18406WAT     H255461   0.586   0.727   9.683
18407WAT      O55462   8.204   6.218   7.320
18407WAT     H155463   8.186   6.192   7.415
18407WAT     H255464   8.177   6.143   7.260
18408WAT      O55465   0.784   9.010   0.147
18408WAT     H155466   0.858   8.946   0.132
18408WAT     H255467   0.785   9.080   0.075
18409WAT      O55468   8.610   1.447   0.671
18409WAT     H155469   8.674   1.522   0.660
18409WAT     H255470   8.658   1.366   0.704
18410WAT      O55471   2.448   0.891   0.495
18410WAT     H155472   2.419   0.964   0.434
18410WAT     H255473   2.485   0.931   0.579
18411WAT      O55474   7.002   1.190   6.018
18411WAT     H155475   6.963   1.269   6.065
18411WAT     H255476   6.936   1.115   6.019
18412WAT      O55477   3.747   2.739   6.787
18412WAT     H155478   3.816   2.690   6.733
18412WAT     H255479   3.706   2.811   6.731
18413WAT      O55480   4.944   1.627   7.645
18413WAT     H155481   4.846   1.633   7.629
18413WAT     H255482   4.971   1.696   7.712
18414WAT      O55483   2.893   3.398   3.799
18414WAT     H155484   2.876   3.434   3.707
18414WAT     H255485   2.805   3.383   3.845
18415WAT      O55486   0.970   9.128   0.520
18415WAT     H155487   0.949   9.225   0.536
18415WAT     H255488   0.895   9.085   0.470
18416WAT      O55489   9.623   7.365   7.447
18416WAT     H155490   9.695   7.424   7.481
18416WAT     H255491   9.591   7.305   7.520
18417WAT      O55492   7.041   8.071   8.037
18417WAT     H155493   6.945   8.092   8.054
18417WAT     H255494   7.090   8.155   8.012
18418WAT      O55495   5.831   7.694   4.693
18418WAT     H155496   5.876   7.605   4.691
18418WAT     H255497   5.799   7.717   4.601
18419WAT      O55498   4.899   8.668   0.676
18419WAT     H155499   4.925   8.684   0.772
18419WAT     H255500   4.906   8.753   0.625
18420WAT      O55501   2.883   0.559   4.596
18420WAT     H155502   2.856   0.654   4.611
18420WAT     H255503   2.838   0.500   4.663
18421WAT      O55504   6.781   2.718   2.311
18421WAT     H155505   6.785   2.816   2.290
18421WAT     H255506   6.736   2.704   2.399
18422WAT      O55507   3.858   6.860   4.142
18422WAT     H155508   3.906   6.790   4.194
18422WAT     H255509   3.893   6.950   4.169
18423WAT      O55510   5.533   9.012   3.536
18423WAT     H155511   5.458   9.055   3.586
18423WAT     H255512   5.620   9.040   3.576
18424WAT      O55513   4.635   7.891   9.076
18424WAT     H155514   4.594   7.966   9.024
18424WAT     H255515   4.567   7.820   9.092
18425WAT      O55516   0.929   0.159   7.933
18425WAT     H155517   0.978   0.093   7.990
18425WAT     H255518   0.840   0.120   7.907
18426WAT      O55519   2.163   0.261   8.651
18426WAT     H155520   2.191   0.326   8.581
18426WAT     H255521   2.081   0.212   8.621
18427WAT      O55522   4.392   9.107   1.943
18427WAT     H155523   4.446   9.191   1.936
18427WAT     H255524   4.376   9.071   1.851
18428WAT      O55525   8.137   3.385   5.487
18428WAT     H155526   8.138   3.334   5.401
18428WAT     H255527   8.180   3.331   5.559
18429WAT      O55528   4.574   9.202   3.515
18429WAT     H155529   4.568   9.286   3.461
18429WAT     H255530   4.493   9.147   3.499
18430WAT      O55531   6.703   8.211   7.433
18430WAT     H155532   6.786   8.185   7.483
18430WAT     H255533   6.625   8.159   7.467
18431WAT      O55534   5.697   8.629   3.969
18431WAT     H155535   5.689   8.688   3.889
18431WAT     H255536   5.793   8.606   3.985
18432WAT      O55537   8.068   5.055   0.287
18432WAT     H155538   8.166   5.062   0.268
18432WAT     H255539   8.031   5.146   0.306
18433WAT      O55540   9.290   9.538   9.206
18433WAT     H155541   9.203   9.557   9.252
18433WAT     H255542   9.284   9.569   9.111
18434WAT      O55543   2.656   8.672   0.129
18434WAT     H155544   2.710   8.611   0.187
18434WAT     H255545   2.706   8.758   0.116
18435WAT      O55546   7.683   4.184   9.534
18435WAT     H155547   7.600   4.141   9.570
18435WAT     H255548   7.660   4.273   9.495
18436WAT      O55549   6.204   7.698   8.796
18436WAT     H155550   6.242   7.609   8.774
18436WAT     H255551   6.180   7.746   8.711
18437WAT      O55552   2.389   3.952   5.064
18437WAT     H155553   2.460   4.021   5.080
18437WAT     H255554   2.341   3.973   4.979
18438WAT      O55555   9.834   3.240   9.508
18438WAT     H155556   9.912   3.215   9.450
18438WAT     H255557   9.805   3.161   9.561
18439WAT      O55558   1.916   6.395   4.654
18439WAT     H155559   1.929   6.491   4.629
18439WAT     H255560   1.833   6.385   4.709
18440WAT      O55561   7.601   5.058   1.755
18440WAT     H155562   7.613   5.049   1.854
18440WAT     H255563   7.684   5.098   1.715
18441WAT      O55564   1.414   9.389   8.556
18441WAT     H155565   1.481   9.397   8.482
18441WAT     H255566   1.460   9.402   8.643
18442WAT      O55567   7.521   1.980   8.628
18442WAT     H155568   7.558   1.902   8.577
18442WAT     H255569   7.595   2.045   8.646
18443WAT      O55570   7.637   4.663   6.840
18443WAT     H155571   7.633   4.585   6.777
18443WAT     H255572   7.576   4.735   6.809
18444WAT      O55573   9.053   5.332   3.442
18444WAT     H155574   8.973   5.378   3.402
18444WAT     H255575   9.023   5.257   3.500
18445WAT      O55576   1.023   0.268   0.847
18445WAT     H155577   1.023   0.352   0.901
18445WAT     H255578   0.938   0.218   0.863
18446WAT      O55579   4.205   8.841   5.438
18446WAT     H155580   4.292   8.888   5.452
18446WAT     H255581   4.167   8.813   5.526
18447WAT      O55582   1.436   2.344   0.012
18447WAT     H155583   1.374   2.419  -0.010
18447WAT     H255584   1.509   2.377   0.072
18448WAT      O55585   5.301   9.791   3.359
18448WAT     H155586   5.269   9.867   3.416
18448WAT     H255587   5.401   9.792   3.356
18449WAT      O55588   9.872   8.570   5.645
18449WAT     H155589   9.815   8.641   5.685
18449WAT     H255590   9.816   8.510   5.588
18450WAT      O55591   0.996   3.677   0.179
18450WAT     H155592   1.078   3.690   0.234
18450WAT     H255593   1.022   3.656   0.085
18451WAT      O55594   0.109   3.528   8.490
18451WAT     H155595   0.019   3.538   8.447
18451WAT     H255596   0.121   3.597   8.561
18452WAT      O55597   5.957   0.647   1.609
18452WAT     H155598   6.051   0.666   1.639
18452WAT     H255599   5.894   0.671   1.683
18453WAT      O55600   0.762   8.233   9.599
18453WAT     H155601   0.748   8.252   9.697
18453WAT     H255602   0.673   8.223   9.554
18454WAT      O55603   3.811   4.326   4.757
18454WAT     H155604   3.738   4.363   4.700
18454WAT     H255605   3.794   4.229   4.775
18455WAT      O55606   7.538   3.125   6.612
18455WAT     H155607   7.554   3.053   6.544
18455WAT     H255608   7.626   3.158   6.647
18456WAT      O55609   2.300   8.993   1.748
18456WAT     H155610   2.355   8.909   1.748
18456WAT     H255611   2.243   8.995   1.666
18457WAT      O55612   4.372   8.967   9.409
18457WAT     H155613   4.445   8.965   9.477
18457WAT     H255614   4.398   9.027   9.334
18458WAT      O55615   8.839   4.205   7.942
18458WAT     H155616   8.749   4.249   7.944
18458WAT     H255617   8.909   4.275   7.928
18459WAT      O55618   1.829   3.034   8.658
18459WAT     H155619   1.767   2.960   8.685
18459WAT     H255620   1.900   3.045   8.728
18460WAT      O55621   5.954   5.228   1.881
18460WAT     H155622   5.916   5.169   1.810
18460WAT     H255623   5.886   5.297   1.907
18461WAT      O55624   7.922   4.042   7.496
18461WAT     H155625   7.956   3.957   7.456
18461WAT     H255626   7.992   4.113   7.486
18462WAT      O55627   5.619   0.953   5.950
18462WAT     H155628   5.681   1.032   5.956
18462WAT     H255629   5.673   0.869   5.951
18463WAT      O55630   1.668   1.063   4.782
18463WAT     H155631   1.676   1.058   4.881
18463WAT     H255632   1.625   0.979   4.747
18464WAT      O55633   7.787   9.279   2.968
18464WAT     H155634   7.772   9.233   3.056
18464WAT     H255635   7.699   9.299   2.926
18465WAT      O55636   5.536   3.414   3.360
18465WAT     H155637   5.528   3.348   3.434
18465WAT     H255638   5.532   3.507   3.397
18466WAT      O55639   3.506   4.288   8.638
18466WAT     H155640   3.527   4.344   8.557
18466WAT     H255641   3.421   4.320   8.679
18467WAT      O55642   2.195   3.347   5.769
18467WAT     H155643   2.228   3.280   5.836
18467WAT     H255644   2.225   3.320   5.677
18468WAT      O55645   0.061   7.033   8.159
18468WAT     H155646   0.039   6.958   8.222
18468WAT     H255647  -0.008   7.105   8.168
18469WAT      O55648   7.789   4.560   0.743
18469WAT     H155649   7.868   4.600   0.790
18469WAT     H255650   7.819   4.481   0.689
18470WAT      O55651   6.909   0.479   6.703
18470WAT     H155652   6.917   0.576   6.723
18470WAT     H255653   6.813   0.452   6.707
18471WAT      O55654   7.318   7.492   8.261
18471WAT     H155655   7.283   7.559   8.196
18471WAT     H255656   7.359   7.539   8.339
18472WAT      O55657   7.833   2.252   5.296
18472WAT     H155658   7.804   2.190   5.369
18472WAT     H255659   7.769   2.247   5.220
18473WAT      O55660   7.602   2.759   8.208
18473WAT     H155661   7.528   2.718   8.262
18473WAT     H255662   7.570   2.773   8.114
18474WAT      O55663   4.913   2.856   3.731
18474WAT     H155664   4.921   2.915   3.812
18474WAT     H255665   4.819   2.824   3.721
18475WAT      O55666   1.489   7.249   5.981
18475WAT     H155667   1.394   7.226   5.961
18475WAT     H255668   1.493   7.342   6.018
18476WAT      O55669   6.700   2.086   1.145
18476WAT     H155670   6.710   2.066   1.047
18476WAT     H255671   6.713   2.003   1.198
18477WAT      O55672   1.161   2.592   9.313
18477WAT     H155673   1.243   2.624   9.264
18477WAT     H255674   1.176   2.498   9.343
18478WAT      O55675   8.800   3.056   8.025
18478WAT     H155676   8.883   3.049   7.970
18478WAT     H255677   8.725   3.007   7.979
18479WAT      O55678   5.022   2.462   8.656
18479WAT     H155679   4.965   2.518   8.717
18479WAT     H255680   5.085   2.522   8.607
18480WAT      O55681   4.853   8.714   4.426
18480WAT     H155682   4.856   8.671   4.516
18480WAT     H255683   4.864   8.643   4.356
18481WAT      O55684   7.902   6.866   1.292
18481WAT     H155685   7.990   6.848   1.249
18481WAT     H255686   7.855   6.779   1.311
18482WAT      O55687   5.956   2.260   2.816
18482WAT     H155688   5.873   2.265   2.761
18482WAT     H255689   5.932   2.255   2.913
18483WAT      O55690   8.317   7.874   9.497
18483WAT     H155691   8.297   7.924   9.413
18483WAT     H255692   8.245   7.890   9.564
18484WAT      O55693   0.645   7.330   6.745
18484WAT     H155694   0.586   7.359   6.820
18484WAT     H255695   0.592   7.328   6.660
18485WAT      O55696   2.024   5.914   6.422
18485WAT     H155697   1.988   6.006   6.404
18485WAT     H255698   1.974   5.847   6.368
18486WAT      O55699   1.564   3.093   1.504
18486WAT     H155700   1.636   3.135   1.560
18486WAT     H255701   1.589   2.999   1.483
18487WAT      O55702   5.063   8.010   3.466
18487WAT     H155703   5.071   8.091   3.524
18487WAT     H255704   5.051   8.039   3.371
18488WAT      O55705   1.579   4.615   5.552
18488WAT     H155706   1.644   4.672   5.602
18488WAT     H255707   1.590   4.629   5.454
18489WAT      O55708   9.452   1.704   1.076
18489WAT     H155709   9.520   1.760   1.028
18489WAT     H255710   9.497   1.652   1.148
18490WAT      O55711   3.150   4.342   0.958
18490WAT     H155712   3.221   4.378   0.896
18490WAT     H255713   3.174   4.250   0.987
18491WAT      O55714   4.972   4.434   7.011
18491WAT     H155715   5.041   4.428   7.083
18491WAT     H255716   4.988   4.516   6.956
18492WAT      O55717   5.907   4.064   4.659
18492WAT     H155718   5.860   4.005   4.594
18492WAT     H255719   5.943   4.144   4.612
18493WAT      O55720   6.423   2.009   7.215
18493WAT     H155721   6.450   2.045   7.304
18493WAT     H255722   6.496   2.025   7.149
18494WAT      O55723   8.625   0.739   4.039
18494WAT     H155724   8.540   0.707   4.080
18494WAT     H255725   8.693   0.666   4.039
18495WAT      O55726   3.506   8.459   2.077
18495WAT     H155727   3.408   8.460   2.058
18495WAT     H255728   3.551   8.533   2.027
18496WAT      O55729   5.532   1.347   4.574
18496WAT     H155730   5.437   1.323   4.598
18496WAT     H255731   5.581   1.372   4.657
18497WAT      O55732   3.507   1.732   1.872
18497WAT     H155733   3.538   1.820   1.836
18497WAT     H255734   3.575   1.662   1.852
18498WAT      O55735   9.150   4.799   5.962
18498WAT     H155736   9.191   4.873   6.016
18498WAT     H255737   9.062   4.773   6.002
18499WAT      O55738   9.293   4.156   0.927
18499WAT     H155739   9.197   4.165   0.952
18499WAT     H255740   9.301   4.104   0.842
18500WAT      O55741   2.122   1.320   7.169
18500WAT     H155742   2.190   1.255   7.201
18500WAT     H255743   2.043   1.318   7.231
18501WAT      O55744   2.321   5.259   0.325
18501WAT     H155745   2.224   5.277   0.343
18501WAT     H255746   2.372   5.264   0.411
18502WAT      O55747   3.250   3.628   0.920
18502WAT     H155748   3.331   3.612   0.863
18502WAT     H255749   3.184   3.683   0.869
18503WAT      O55750   9.196   8.488   2.576
18503WAT     H155751   9.100   8.466   2.595
18503WAT     H255752   9.255   8.415   2.610
18504WAT      O55753   6.853   1.325   7.127
18504WAT     H155754   6.766   1.317   7.077
18504WAT     H255755   6.844   1.278   7.215
18505WAT      O55756   8.628   3.274   4.600
18505WAT     H155757   8.552   3.258   4.538
18505WAT     H255758   8.671   3.186   4.623
18506WAT      O55759   7.786   4.675   7.060
18506WAT     H155760   7.739   4.682   6.972
18506WAT     H255761   7.785   4.764   7.106
18507WAT      O55762   6.201   6.135   2.096
18507WAT     H155763   6.290   6.121   2.141
18507WAT     H255764   6.204   6.096   2.004
18508WAT      O55765   5.727   7.292   4.834
18508WAT     H155766   5.640   7.339   4.820
18508WAT     H255767   5.802   7.358   4.827
18509WAT      O55768   1.549   7.158   0.182
18509WAT     H155769   1.524   7.241   0.132
18509WAT     H255770   1.619   7.181   0.250
18510WAT      O55771   9.758   8.568   4.483
18510WAT     H155772   9.747   8.652   4.428
18510WAT     H255773   9.779   8.593   4.577
18511WAT      O55774   3.322   0.518   0.134
18511WAT     H155775   3.287   0.508   0.040
18511WAT     H255776   3.378   0.601   0.139
18512WAT      O55777   6.118   4.809   8.579
18512WAT     H155778   6.181   4.736   8.603
18512WAT     H255779   6.169   4.886   8.541
18513WAT      O55780   2.971   1.853   9.595
18513WAT     H155781   3.037   1.793   9.552
18513WAT     H255782   2.907   1.889   9.526
18514WAT      O55783   8.211   8.461   5.651
18514WAT     H155784   8.116   8.493   5.656
18514WAT     H255785   8.212   8.365   5.622
18515WAT      O55786   0.536   4.422   7.783
18515WAT     H155787   0.589   4.414   7.868
18515WAT     H255788   0.500   4.515   7.775
18516WAT      O55789   9.330   3.173   1.576
18516WAT     H155790   9.272   3.254   1.568
18516WAT     H255791   9.302   3.104   1.510
18517WAT      O55792   3.534   5.091   1.085
18517WAT     H155793   3.451   5.142   1.063
18517WAT     H255794   3.521   4.994   1.063
18518WAT      O55795   5.593   5.502   0.725
18518WAT     H155796   5.692   5.495   0.735
18518WAT     H255797   5.551   5.414   0.749
18519WAT      O55798   2.469   9.284   2.442
18519WAT     H155799   2.407   9.359   2.464
18519WAT     H255800   2.563   9.317   2.443
18520WAT      O55801   0.537   1.670   8.861
18520WAT     H155802   0.519   1.753   8.913
18520WAT     H255803   0.555   1.594   8.923
18521WAT      O55804   8.064   1.281   2.044
18521WAT     H155805   8.021   1.339   2.113
18521WAT     H255806   7.995   1.252   1.977
18522WAT      O55807   3.367   1.797   9.171
18522WAT     H155808   3.307   1.872   9.198
18522WAT     H255809   3.312   1.722   9.133
18523WAT      O55810   2.876   7.544   5.086
18523WAT     H155811   2.970   7.532   5.119
18523WAT     H255812   2.856   7.641   5.079
18524WAT      O55813   0.219   6.908   7.904
18524WAT     H155814   0.317   6.924   7.887
18524WAT     H255815   0.187   6.972   7.974
18525WAT      O55816   2.708   0.075   9.745
18525WAT     H155817   2.805   0.055   9.730
18525WAT     H255818   2.695   0.103   9.840
18526WAT      O55819   6.746   6.524   3.865
18526WAT     H155820   6.824   6.466   3.840
18526WAT     H255821   6.772   6.583   3.942
18527WAT      O55822   5.856   8.585   3.691
18527WAT     H155823   5.950   8.608   3.669
18527WAT     H255824   5.854   8.502   3.747
18528WAT      O55825   4.269   2.995   5.620
18528WAT     H155826   4.345   2.956   5.567
18528WAT     H255827   4.280   3.094   5.625
18529WAT      O55828   1.720   7.656   9.528
18529WAT     H155829   1.801   7.604   9.557
18529WAT     H255830   1.680   7.702   9.606
18530WAT      O55831   0.453   6.551   5.601
18530WAT     H155832   0.550   6.563   5.624
18530WAT     H255833   0.423   6.626   5.543
18531WAT      O55834   2.467   8.278   5.619
18531WAT     H155835   2.454   8.179   5.619
18531WAT     H255836   2.549   8.300   5.566
18532WAT      O55837   3.274   5.117   3.498
18532WAT     H155838   3.221   5.111   3.413
18532WAT     H255839   3.220   5.082   3.574
18533WAT      O55840   5.999   5.522   5.301
18533WAT     H155841   6.063   5.453   5.266
18533WAT     H255842   6.025   5.612   5.265
18534WAT      O55843   4.131   7.958   0.657
18534WAT     H155844   4.154   8.031   0.721
18534WAT     H255845   4.100   7.998   0.571
18535WAT      O55846   5.608   7.799   2.215
18535WAT     H155847   5.582   7.727   2.279
18535WAT     H255848   5.698   7.834   2.239
18536WAT      O55849   8.647   3.565   8.215
18536WAT     H155850   8.664   3.474   8.177
18536WAT     H255851   8.592   3.618   8.151
18537WAT      O55852   8.557   0.235   3.336
18537WAT     H155853   8.622   0.268   3.405
18537WAT     H255854   8.523   0.145   3.363
18538WAT      O55855   7.001   3.469   7.402
18538WAT     H155856   6.924   3.512   7.450
18538WAT     H255857   6.969   3.433   7.315
18539WAT      O55858   2.214   7.670   4.216
18539WAT     H155859   2.222   7.759   4.261
18539WAT     H255860   2.148   7.613   4.265
18540WAT      O55861   6.851   0.226   7.501
18540WAT     H155862   6.824   0.278   7.419
18540WAT     H255863   6.950   0.214   7.502
18541WAT      O55864   2.525   4.959   5.042
18541WAT     H155865   2.598   4.919   5.097
18541WAT     H255866   2.556   5.046   5.004
18542WAT      O55867   8.891   0.257   6.033
18542WAT     H155868   8.827   0.267   5.957
18542WAT     H255869   8.846   0.288   6.117
18543WAT      O55870   3.126   3.251   2.702
18543WAT     H155871   3.147   3.315   2.629
18543WAT     H255872   3.142   3.158   2.671
18544WAT      O55873   7.811   1.022   2.232
18544WAT     H155874   7.891   0.967   2.208
18544WAT     H255875   7.746   1.020   2.156
18545WAT      O55876   2.535   0.783   7.026
18545WAT     H155877   2.586   0.713   7.076
18545WAT     H255878   2.445   0.747   7.002
18546WAT      O55879   7.385   1.451   8.610
18546WAT     H155880   7.338   1.485   8.529
18546WAT     H255881   7.356   1.357   8.628
18547WAT      O55882   8.893   1.647   1.710
18547WAT     H155883   8.843   1.699   1.641
18547WAT     H255884   8.866   1.678   1.801
18548WAT      O55885   2.951   5.288   9.555
18548WAT     H155886   2.948   5.306   9.457
18548WAT     H255887   2.887   5.350   9.602
18549WAT      O55888   1.862   4.027   4.212
18549WAT     H155889   1.786   4.043   4.148
18549WAT     H255890   1.946   4.068   4.176
18550WAT      O55891   4.733   6.550   4.895
18550WAT     H155892   4.777   6.479   4.841
18550WAT     H255893   4.704   6.625   4.835
18551WAT      O55894   1.758   2.046   2.849
18551WAT     H155895   1.740   2.143   2.865
18551WAT     H255896   1.672   1.995   2.849
18552WAT      O55897   8.742   5.929   0.506
18552WAT     H155898   8.751   5.998   0.578
18552WAT     H255899   8.804   5.853   0.526
18553WAT      O55900   4.623   5.118   3.699
18553WAT     H155901   4.595   5.158   3.787
18553WAT     H255902   4.715   5.081   3.707
18554WAT      O55903   7.481   7.885   3.785
18554WAT     H155904   7.489   7.837   3.872
18554WAT     H255905   7.568   7.927   3.761
18555WAT      O55906   0.140   4.847   3.827
18555WAT     H155907   0.152   4.941   3.794
18555WAT     H255908   0.073   4.800   3.769
18556WAT      O55909   4.864   7.724   4.440
18556WAT     H155910   4.880   7.765   4.530
18556WAT     H255911   4.923   7.644   4.428
18557WAT      O55912   2.510   0.825   7.969
18557WAT     H155913   2.462   0.840   8.055
18557WAT     H255914   2.608   0.829   7.985
18558WAT      O55915   0.281   7.862   7.383
18558WAT     H155916   0.292   7.809   7.467
18558WAT     H255917   0.219   7.938   7.400
18559WAT      O55918   8.752   2.331   9.003
18559WAT     H155919   8.791   2.401   8.945
18559WAT     H255920   8.746   2.365   9.097
18560WAT      O55921   0.908   3.193   5.569
18560WAT     H155922   0.834   3.191   5.636
18560WAT     H255923   0.875   3.237   5.485
18561WAT      O55924   0.023   9.181   9.659
18561WAT     H155925  -0.054   9.126   9.688
18561WAT     H255926   0.090   9.187   9.733
18562WAT      O55927   0.591   4.903   8.376
18562WAT     H155928   0.582   4.931   8.472
18562WAT     H255929   0.593   4.803   8.371
18563WAT      O55930   9.589   3.588   1.497
18563WAT     H155931   9.590   3.618   1.592
18563WAT     H255932   9.664   3.524   1.481
18564WAT      O55933   9.838   0.914   7.260
18564WAT     H155934   9.898   0.988   7.289
18564WAT     H255935   9.890   0.828   7.255
18565WAT      O55936   9.692   6.781   4.357
18565WAT     H155937   9.611   6.799   4.302
18565WAT     H255938   9.767   6.840   4.326
18566WAT      O55939   3.158   9.726   6.309
18566WAT     H155940   3.197   9.634   6.303
18566WAT     H255941   3.079   9.733   6.248
18567WAT      O55942   1.242   5.880   6.737
18567WAT     H155943   1.278   5.841   6.653
18567WAT     H255944   1.304   5.951   6.771
18568WAT      O55945   7.444   8.679   2.032
18568WAT     H155946   7.414   8.763   1.987
18568WAT     H255947   7.476   8.614   1.963
18569WAT      O55948   7.497   6.845   6.754
18569WAT     H155949   7.460   6.933   6.782
18569WAT     H255950   7.588   6.858   6.713
18570WAT      O55951   0.438   5.763   8.443
18570WAT     H155952   0.517   5.720   8.488
18570WAT     H255953   0.466   5.850   8.404
18571WAT      O55954   1.793   4.100   6.105
18571WAT     H155955   1.795   4.187   6.057
18571WAT     H255956   1.714   4.047   6.075
18572WAT      O55957   0.650   1.251   0.118
18572WAT     H155958   0.625   1.217   0.209
18572WAT     H255959   0.741   1.294   0.122
18573WAT      O55960   5.686   7.821   5.372
18573WAT     H155961   5.712   7.769   5.453
18573WAT     H255962   5.588   7.808   5.355
18574WAT      O55963   4.704   9.032   2.773
18574WAT     H155964   4.728   8.940   2.804
18574WAT     H255965   4.610   9.034   2.742
18575WAT      O55966   4.466   4.651   4.633
18575WAT     H155967   4.449   4.709   4.553
18575WAT     H255968   4.383   4.644   4.688
18576WAT      O55969   2.322   7.783   2.741
18576WAT     H155970   2.323   7.694   2.785
18576WAT     H255971   2.315   7.855   2.810
18577WAT      O55972   0.554   9.685   4.537
18577WAT     H155973   0.560   9.761   4.602
18577WAT     H255974   0.628   9.693   4.470
18578WAT      O55975   0.447   2.345   0.377
18578WAT     H155976   0.409   2.434   0.403
18578WAT     H255977   0.517   2.359   0.307
18579WAT      O55978   2.070   9.057   4.187
18579WAT     H155979   2.127   8.975   4.198
18579WAT     H255980   2.075   9.089   4.093
18580WAT      O55981   9.671   3.339   9.684
18580WAT     H155982   9.743   3.314   9.619
18580WAT     H255983   9.650   3.260   9.742
18581WAT      O55984   6.905   0.404   6.180
18581WAT     H155985   6.889   0.387   6.277
18581WAT     H255986   6.992   0.451   6.168
18582WAT      O55987   4.779   6.593   0.576
18582WAT     H155988   4.822   6.670   0.528
18582WAT     H255989   4.828   6.576   0.661
18583WAT      O55990   4.233   5.690   1.916
18583WAT     H155991   4.160   5.710   1.852
18583WAT     H255992   4.253   5.592   1.915
18584WAT      O55993   5.058   3.744   7.598
18584WAT     H155994   5.039   3.658   7.551
18584WAT     H255995   5.122   3.728   7.674
18585WAT      O55996   0.794   5.692   9.530
18585WAT     H155997   0.823   5.686   9.434
18585WAT     H255998   0.839   5.770   9.574
18586WAT      O55999   6.243   0.150   0.031
18586WAT     H156000   6.316   0.174  -0.033
18586WAT     H256001   6.282   0.105   0.111
18587WAT      O56002   2.075   3.839   9.053
18587WAT     H156003   2.122   3.754   9.030
18587WAT     H256004   2.143   3.910   9.072
18588WAT      O56005   5.403   7.457   6.550
18588WAT     H156006   5.435   7.375   6.503
18588WAT     H256007   5.310   7.441   6.584
18589WAT      O56008   4.028   6.197   5.480
18589WAT     H156009   4.047   6.134   5.555
18589WAT     H256010   4.053   6.290   5.507
18590WAT      O56011   4.094   2.080   5.640
18590WAT     H156012   4.127   2.172   5.662
18590WAT     H256013   4.172   2.023   5.613
18591WAT      O56014   0.629   9.218   3.031
18591WAT     H156015   0.567   9.224   3.110
18591WAT     H256016   0.711   9.167   3.057
18592WAT      O56017   2.817   7.331   3.125
18592WAT     H156018   2.759   7.412   3.136
18592WAT     H256019   2.907   7.360   3.093
18593WAT      O56020   5.770   8.599   2.183
18593WAT     H156021   5.729   8.677   2.230
18593WAT     H256022   5.848   8.631   2.128
18594WAT      O56023   5.116   5.760   6.481
18594WAT     H156024   5.211   5.771   6.511
18594WAT     H256025   5.099   5.664   6.461
18595WAT      O56026   1.096   7.011   7.898
18595WAT     H156027   1.150   7.049   7.822
18595WAT     H256028   1.005   7.053   7.898
18596WAT      O56029   3.914   8.457   0.021
18596WAT     H156030   3.844   8.507   0.072
18596WAT     H256031   3.982   8.521  -0.013
18597WAT      O56032   8.836   5.365   5.796
18597WAT     H156033   8.816   5.385   5.700
18597WAT     H256034   8.817   5.446   5.852
18598WAT      O56035   7.124   6.850   6.556
18598WAT     H156036   7.177   6.772   6.590
18598WAT     H256037   7.058   6.878   6.626
18599WAT      O56038   5.271   0.527   7.045
18599WAT     H156039   5.340   0.598   7.059
18599WAT     H256040   5.269   0.467   7.125
18600WAT      O56041   8.390   9.793   2.629
18600WAT     H156042   8.307   9.763   2.677
18600WAT     H256043   8.468   9.789   2.691
18601WAT      O56044   1.373   8.907   5.191
18601WAT     H156045   1.457   8.942   5.234
18601WAT     H256046   1.302   8.977   5.193
18602WAT      O56047   1.623   0.979   0.329
18602WAT     H156048   1.688   0.955   0.257
18602WAT     H256049   1.643   1.070   0.363
18603WAT      O56050   3.607   2.421   5.959
18603WAT     H156051   3.666   2.484   5.907
18603WAT     H256052   3.522   2.467   5.984
18604WAT      O56053   6.433   6.020   0.445
18604WAT     H156054   6.349   6.073   0.438
18604WAT     H256055   6.427   5.958   0.524
18605WAT      O56056   1.153   3.090   7.966
18605WAT     H156057   1.094   3.038   7.904
18605WAT     H256058   1.247   3.059   7.956
18606WAT      O56059   5.069   1.704   3.201
18606WAT     H156060   5.103   1.788   3.243
18606WAT     H256061   5.091   1.626   3.259
18607WAT      O56062   9.826   8.354   7.448
18607WAT     H156063   9.769   8.351   7.366
18607WAT     H256064   9.780   8.308   7.523
18608WAT      O56065   7.389   2.610   4.340
18608WAT     H156066   7.473   2.621   4.393
18608WAT     H256067   7.352   2.519   4.354
18609WAT      O56068   7.962   4.056   8.927
18609WAT     H156069   8.048   4.100   8.951
18609WAT     H256070   7.978   3.959   8.907
18610WAT      O56071   0.050   0.086   8.061
18610WAT     H156072   0.148   0.105   8.071
18610WAT     H256073   0.022   0.103   7.967
18611WAT      O56074   8.353   6.469   2.935
18611WAT     H156075   8.272   6.412   2.947
18611WAT     H256076   8.327   6.565   2.942
18612WAT      O56077   6.825   6.670   7.346
18612WAT     H156078   6.780   6.613   7.414
18612WAT     H256079   6.864   6.612   7.275
18613WAT      O56080   7.680   9.235   5.847
18613WAT     H156081   7.614   9.296   5.803
18613WAT     H256082   7.696   9.265   5.941
18614WAT      O56083   4.294   3.644   4.095
18614WAT     H156084   4.227   3.718   4.092
18614WAT     H256085   4.333   3.638   4.186
18615WAT      O56086   8.837   2.033   2.800
18615WAT     H156087   8.891   2.065   2.722
18615WAT     H256088   8.768   2.102   2.824
18616WAT      O56089   4.681   6.867   6.059
18616WAT     H156090   4.629   6.837   5.979
18616WAT     H256091   4.655   6.961   6.082
18617WAT      O56092   7.785   1.193   3.493
18617WAT     H156093   7.685   1.203   3.502
18617WAT     H256094   7.830   1.239   3.570
18618WAT      O56095   4.417   1.183   6.268
18618WAT     H156096   4.490   1.164   6.202
18618WAT     H256097   4.329   1.155   6.230
18619WAT      O56098   3.265   8.683   5.202
18619WAT     H156099   3.337   8.693   5.271
18619WAT     H256100   3.288   8.737   5.121
18620WAT      O56101   2.932   8.266   1.900
18620WAT     H156102   3.009   8.223   1.854
18620WAT     H256103   2.926   8.232   1.995
18621WAT      O56104   7.040   2.711   6.515
18621WAT     H156105   7.087   2.685   6.430
18621WAT     H256106   6.975   2.785   6.496
18622WAT      O56107   1.177   2.816   5.556
18622WAT     H156108   1.195   2.886   5.626
18622WAT     H256109   1.262   2.769   5.533
18623WAT      O56110   6.360   9.135   9.235
18623WAT     H156111   6.443   9.110   9.185
18623WAT     H256112   6.280   9.119   9.178
18624WAT      O56113   7.508   2.042   3.777
18624WAT     H156114   7.477   2.134   3.800
18624WAT     H256115   7.445   2.002   3.710
18625WAT      O56116   0.826   4.839   7.699
18625WAT     H156117   0.798   4.757   7.750
18625WAT     H256118   0.779   4.840   7.610
18626WAT      O56119   8.992   2.013   9.465
18626WAT     H156120   9.012   2.077   9.539
18626WAT     H256121   8.954   2.062   9.387
18627WAT      O56122   5.505   7.299   2.332
18627WAT     H156123   5.426   7.246   2.365
18627WAT     H256124   5.474   7.388   2.301
18628WAT      O56125   6.152   7.028   0.386
18628WAT     H156126   6.097   7.014   0.304
18628WAT     H256127   6.248   7.010   0.365
18629WAT      O56128   9.825   4.781   3.676
18629WAT     H156129   9.786   4.691   3.658
18629WAT     H256130   9.865   4.817   3.592
18630WAT      O56131   6.156   2.342   3.614
18630WAT     H156132   6.145   2.440   3.631
18630WAT     H256133   6.075   2.294   3.646
18631WAT      O56134   0.630   9.365   2.799
18631WAT     H156135   0.629   9.310   2.883
18631WAT     H256136   0.715   9.417   2.795
18632WAT      O56137   6.262   1.230   6.923
18632WAT     H156138   6.323   1.156   6.952
18632WAT     H256139   6.198   1.251   6.996
18633WAT      O56140   3.637   0.980   7.879
18633WAT     H156141   3.584   0.895   7.883
18633WAT     H256142   3.664   0.999   7.785
18634WAT      O56143   6.360   9.187   6.741
18634WAT     H156144   6.289   9.243   6.784
18634WAT     H256145   6.433   9.169   6.807
18635WAT      O56146   0.185   0.760   0.169
18635WAT     H156147   0.238   0.684   0.208
18635WAT     H256148   0.238   0.806   0.099
18636WAT      O56149   3.615   2.616   6.996
18636WAT     H156150   3.679   2.652   6.928
18636WAT     H256151   3.529   2.591   6.951
18637WAT      O56152   2.734   4.761   2.916
18637WAT     H156153   2.746   4.848   2.963
18637WAT     H256154   2.809   4.747   2.851
18638WAT      O56155   8.924   8.118   2.757
18638WAT     H156156   8.969   8.030   2.772
18638WAT     H256157   8.962   8.186   2.819
18639WAT      O56158   6.520   9.473   5.248
18639WAT     H156159   6.594   9.420   5.206
18639WAT     H256160   6.443   9.412   5.266
18640WAT      O56161   3.261   1.668   1.503
18640WAT     H156162   3.310   1.753   1.518
18640WAT     H256163   3.163   1.687   1.490
18641WAT      O56164   5.653   0.093   5.400
18641WAT     H156165   5.570   0.114   5.450
18641WAT     H256166   5.685   0.174   5.351
18642WAT      O56167   8.527   1.994   2.092
18642WAT     H156168   8.556   2.061   2.024
18642WAT     H256169   8.537   2.032   2.184
18643WAT      O56170   8.011   3.413   0.353
18643WAT     H156171   7.924   3.462   0.344
18643WAT     H256172   8.018   3.374   0.444
18644WAT      O56173   5.308   3.348   1.906
18644WAT     H156174   5.273   3.399   1.985
18644WAT     H256175   5.261   3.260   1.899
18645WAT      O56176   0.157   7.570   0.833
18645WAT     H156177   0.217   7.574   0.754
18645WAT     H256178   0.198   7.513   0.904
18646WAT      O56179   8.857   7.299   5.155
18646WAT     H156180   8.804   7.383   5.141
18646WAT     H256181   8.924   7.289   5.082
18647WAT      O56182   4.178   8.551   6.403
18647WAT     H156183   4.140   8.511   6.486
18647WAT     H256184   4.220   8.639   6.424
18648WAT      O56185   8.975   5.622   2.656
18648WAT     H156186   8.931   5.673   2.730
18648WAT     H256187   8.993   5.528   2.686
18649WAT      O56188   3.433   9.737   9.314
18649WAT     H156189   3.393   9.669   9.375
18649WAT     H256190   3.363   9.802   9.285
18650WAT      O56191   9.512   7.911   1.528
18650WAT     H156192   9.484   8.006   1.514
18650WAT     H256193   9.534   7.896   1.624
18651WAT      O56194   5.219   8.271   1.366
18651WAT     H156195   5.274   8.207   1.312
18651WAT     H256196   5.151   8.314   1.307
18652WAT      O56197   3.334   1.555   1.736
18652WAT     H156198   3.400   1.611   1.786
18652WAT     H256199   3.305   1.604   1.654
18653WAT      O56200   9.210   9.445   2.638
18653WAT     H156201   9.233   9.530   2.590
18653WAT     H256202   9.139   9.396   2.587
18654WAT      O56203   5.046   8.734   6.028
18654WAT     H156204   5.004   8.648   5.999
18654WAT     H256205   5.086   8.781   5.949
18655WAT      O56206   6.102   1.088   1.796
18655WAT     H156207   6.115   0.993   1.823
18655WAT     H256208   6.104   1.147   1.877
18656WAT      O56209   7.315   7.730   2.079
18656WAT     H156210   7.390   7.687   2.029
18656WAT     H256211   7.287   7.813   2.032
18657WAT      O56212   7.494   7.892   2.245
18657WAT     H156213   7.575   7.923   2.196
18657WAT     H256214   7.445   7.824   2.190
18658WAT      O56215   5.556   2.370   1.096
18658WAT     H156216   5.518   2.284   1.061
18658WAT     H256217   5.574   2.432   1.020
18659WAT      O56218   7.151   6.739   5.128
18659WAT     H156219   7.221   6.711   5.194
18659WAT     H256220   7.065   6.757   5.177
18660WAT      O56221   1.547   9.196   3.725
18660WAT     H156222   1.522   9.274   3.781
18660WAT     H256223   1.558   9.115   3.783
18661WAT      O56224   5.007   5.901   2.033
18661WAT     H156225   4.936   5.934   2.095
18661WAT     H256226   5.026   5.805   2.051
18662WAT      O56227   1.932   7.940   3.520
18662WAT     H156228   1.995   7.991   3.577
18662WAT     H256229   1.885   8.003   3.458
18663WAT      O56230   1.903   7.849   2.973
18663WAT     H156231   1.970   7.882   2.908
18663WAT     H256232   1.822   7.908   2.971
18664WAT      O56233   0.576   3.952   9.820
18664WAT     H156234   0.650   3.975   9.882
18664WAT     H256235   0.498   3.917   9.872
18665WAT      O56236   2.944   0.011   0.498
18665WAT     H156237   3.037  -0.009   0.466
18665WAT     H256238   2.911  -0.066   0.554
18666WAT      O56239   4.439   8.147   0.595
18666WAT     H156240   4.415   8.113   0.504
18666WAT     H256241   4.367   8.121   0.660
18667WAT      O56242   6.455   7.503   1.455
18667WAT     H156243   6.525   7.520   1.525
18667WAT     H256244   6.414   7.589   1.428
18668WAT      O56245   8.137   2.924   1.381
18668WAT     H156246   8.142   3.023   1.369
18668WAT     H256247   8.043   2.899   1.404
18669WAT      O56248   4.165   5.300   7.854
18669WAT     H156249   4.079   5.347   7.876
18669WAT     H256250   4.214   5.353   7.784
18670WAT      O56251   9.324   5.511   0.851
18670WAT     H156252   9.246   5.559   0.812
18670WAT     H256253   9.409   5.555   0.821
18671WAT      O56254   3.874   3.211   9.016
18671WAT     H156255   3.960   3.252   9.046
18671WAT     H256256   3.890   3.155   8.934
18672WAT      O56257   5.888   7.549   8.773
18672WAT     H156258   5.986   7.565   8.783
18672WAT     H256259   5.841   7.637   8.766
18673WAT      O56260   9.136   2.818   1.819
18673WAT     H156261   9.162   2.911   1.845
18673WAT     H256262   9.214   2.774   1.773
18674WAT      O56263   1.659   2.980   5.353
18674WAT     H156264   1.622   3.070   5.330
18674WAT     H256265   1.709   2.943   5.275
18675WAT      O56266   3.267   1.935   9.406
18675WAT     H156267   3.237   1.840   9.418
18675WAT     H256268   3.350   1.951   9.459
18676WAT      O56269   4.993   6.874   7.992
18676WAT     H156270   4.984   6.827   8.080
18676WAT     H256271   5.036   6.813   7.926
18677WAT      O56272   6.367   3.129   7.118
18677WAT     H156273   6.360   3.030   7.123
18677WAT     H256274   6.455   3.155   7.078
18678WAT      O56275   0.830   8.693   9.564
18678WAT     H156276   0.749   8.635   9.552
18678WAT     H256277   0.912   8.640   9.544
18679WAT      O56278   7.598   5.521   3.877
18679WAT     H156279   7.628   5.613   3.903
18679WAT     H256280   7.642   5.494   3.791
18680WAT      O56281   5.804   6.247   0.443
18680WAT     H156282   5.771   6.174   0.383
18680WAT     H256283   5.816   6.330   0.389
18681WAT      O56284   2.451   3.527   3.424
18681WAT     H156285   2.408   3.600   3.479
18681WAT     H256286   2.533   3.495   3.471
18682WAT      O56287   0.370   2.614   6.320
18682WAT     H156288   0.344   2.710   6.327
18682WAT     H256289   0.292   2.556   6.342
18683WAT      O56290   7.632   3.178   4.099
18683WAT     H156291   7.652   3.085   4.128
18683WAT     H256292   7.620   3.237   4.179
18684WAT      O56293   2.979   6.704   9.018
18684WAT     H156294   3.034   6.625   8.991
18684WAT     H256295   3.036   6.770   9.066
18685WAT      O56296   2.679   5.582   6.444
18685WAT     H156297   2.612   5.654   6.465
18685WAT     H256298   2.735   5.611   6.366
18686WAT      O56299   1.383   8.309   2.393
18686WAT     H156300   1.477   8.318   2.360
18686WAT     H256301   1.379   8.338   2.489
18687WAT      O56302   4.067   1.560   9.760
18687WAT     H156303   4.063   1.628   9.833
18687WAT     H256304   4.163   1.540   9.739
18688WAT      O56305   2.960   0.824   2.750
18688WAT     H156306   3.037   0.799   2.692
18688WAT     H256307   2.887   0.757   2.740
18689WAT      O56308   6.918   8.528   7.360
18689WAT     H156309   6.998   8.577   7.326
18689WAT     H256310   6.940   8.485   7.447
18690WAT      O56311   7.433   1.519   8.969
18690WAT     H156312   7.387   1.475   9.046
18690WAT     H256313   7.513   1.465   8.943
18691WAT      O56314   7.820   5.893   5.710
18691WAT     H156315   7.884   5.823   5.676
18691WAT     H256316   7.871   5.976   5.731
18692WAT      O56317   0.675   4.741   2.968
18692WAT     H156318   0.727   4.811   3.016
18692WAT     H256319   0.580   4.743   2.999
18693WAT      O56320   1.008   4.847   2.477
18693WAT     H156321   0.937   4.778   2.491
18693WAT     H256322   1.004   4.880   2.383
18694WAT      O56323   0.225   7.163   9.121
18694WAT     H156324   0.148   7.225   9.139
18694WAT     H256325   0.196   7.069   9.139
18695WAT      O56326   1.209   7.374   7.899
18695WAT     H156327   1.297   7.397   7.941
18695WAT     H256328   1.225   7.318   7.817
18696WAT      O56329   9.796   5.287   7.470
18696WAT     H156330   9.735   5.284   7.549
18696WAT     H256331   9.759   5.230   7.397
18697WAT      O56332   8.717   3.336   8.043
18697WAT     H156333   8.689   3.240   8.050
18697WAT     H256334   8.687   3.373   7.955
18698WAT      O56335   5.340   2.642   3.005
18698WAT     H156336   5.318   2.667   2.911
18698WAT     H256337   5.439   2.642   3.017
18699WAT      O56338   8.336   4.578   0.857
18699WAT     H156339   8.331   4.633   0.773
18699WAT     H256340   8.253   4.594   0.911
18700WAT      O56341   6.170   3.864   3.474
18700WAT     H156342   6.192   3.766   3.465
18700WAT     H256343   6.134   3.882   3.565
18701WAT      O56344   6.461   2.240   2.534
18701WAT     H156345   6.365   2.214   2.527
18701WAT     H256346   6.488   2.291   2.452
18702WAT      O56347   4.402   7.974   8.693
18702WAT     H156348   4.308   7.970   8.662
18702WAT     H256349   4.454   8.039   8.638
18703WAT      O56350   2.221   1.753   5.649
18703WAT     H156351   2.162   1.694   5.594
18703WAT     H256352   2.312   1.756   5.609
18704WAT      O56353   7.380   5.278   7.690
18704WAT     H156354   7.312   5.341   7.654
18704WAT     H256355   7.433   5.323   7.762
18705WAT      O56356   0.271   7.402   6.656
18705WAT     H156357   0.304   7.491   6.625
18705WAT     H256358   0.277   7.397   6.756
18706WAT      O56359   7.158   1.056   5.335
18706WAT     H156360   7.097   1.110   5.277
18706WAT     H256361   7.239   1.111   5.357
18707WAT      O56362   1.797   0.989   7.021
18707WAT     H156363   1.836   0.978   7.113
18707WAT     H256364   1.735   1.067   7.021
18708WAT      O56365   7.921   3.873   9.636
18708WAT     H156366   8.003   3.815   9.640
18708WAT     H256367   7.842   3.820   9.668
18709WAT      O56368   6.549   4.349   7.710
18709WAT     H156369   6.632   4.343   7.767
18709WAT     H256370   6.562   4.294   7.628
18710WAT      O56371   0.580   3.218   4.407
18710WAT     H156372   0.615   3.187   4.495
18710WAT     H256373   0.644   3.283   4.367
18711WAT      O56374   5.615   0.442   3.203
18711WAT     H156375   5.554   0.520   3.221
18711WAT     H256376   5.659   0.456   3.114
18712WAT      O56377   0.881   4.107   2.416
18712WAT     H156378   0.919   4.025   2.374
18712WAT     H256379   0.823   4.081   2.493
18713WAT      O56380   6.812   9.228   7.958
18713WAT     H156381   6.893   9.217   8.016
18713WAT     H256382   6.833   9.196   7.865
18714WAT      O56383   2.739   7.028   5.006
18714WAT     H156384   2.831   7.018   4.967
18714WAT     H256385   2.686   6.945   4.988
18715WAT      O56386   5.224   4.826   1.445
18715WAT     H156387   5.209   4.882   1.364
18715WAT     H256388   5.137   4.791   1.479
18716WAT      O56389   1.778   8.843   0.732
18716WAT     H156390   1.856   8.881   0.781
18716WAT     H256391   1.807   8.760   0.683
18717WAT      O56392   3.486   0.761   3.599
18717WAT     H156393   3.417   0.765   3.671
18717WAT     H256394   3.466   0.831   3.530
18718WAT      O56395   9.737   8.207   4.863
18718WAT     H156396   9.664   8.212   4.931
18718WAT     H256397   9.747   8.112   4.832
18719WAT      O56398   0.412   0.821   7.645
18719WAT     H156399   0.502   0.819   7.690
18719WAT     H256400   0.405   0.902   7.588
18720WAT      O56401   4.962   2.005   0.991
18720WAT     H156402   4.924   1.951   1.066
18720WAT     H256403   5.027   2.072   1.027
18721WAT      O56404   8.235   0.956   1.536
18721WAT     H156405   8.270   1.026   1.475
18721WAT     H256406   8.306   0.928   1.600
18722WAT      O56407   9.569   5.935   8.040
18722WAT     H156408   9.595   5.851   7.994
18722WAT     H256409   9.472   5.932   8.063
18723WAT      O56410   1.315   4.921   4.051
18723WAT     H156411   1.348   4.828   4.067
18723WAT     H256412   1.304   4.937   3.953
18724WAT      O56413   2.257   8.355   9.819
18724WAT     H156414   2.257   8.409   9.903
18724WAT     H256415   2.202   8.272   9.832
18725WAT      O56416   8.469   3.250   6.684
18725WAT     H156417   8.402   3.319   6.711
18725WAT     H256418   8.450   3.165   6.734
18726WAT      O56419   4.317   9.085   0.427
18726WAT     H156420   4.290   8.990   0.412
18726WAT     H256421   4.238   9.138   0.457
18727WAT      O56422   7.031   1.496   9.470
18727WAT     H156423   6.943   1.529   9.503
18727WAT     H256424   7.104   1.550   9.510
18728WAT      O56425   8.928   1.756   9.410
18728WAT     H156426   9.008   1.708   9.374
18728WAT     H256427   8.952   1.850   9.434
18729WAT      O56428   7.387   6.842   7.894
18729WAT     H156429   7.308   6.804   7.943
18729WAT     H256430   7.356   6.915   7.833
18730WAT      O56431   1.616   9.567   8.246
18730WAT     H156432   1.636   9.541   8.341
18730WAT     H256433   1.677   9.518   8.184
18731WAT      O56434   3.699   1.549   1.802
18731WAT     H156435   3.674   1.475   1.740
18731WAT     H256436   3.693   1.516   1.897
18732WAT      O56437   5.397   7.417   8.125
18732WAT     H156438   5.317   7.440   8.181
18732WAT     H256439   5.432   7.500   8.082
18733WAT      O56440   5.283   6.025   1.939
18733WAT     H156441   5.210   5.980   1.990
18733WAT     H256442   5.257   6.120   1.919
18734WAT      O56443   5.862   6.697   6.812
18734WAT     H156444   5.911   6.613   6.791
18734WAT     H256445   5.900   6.738   6.895
18735WAT      O56446   0.250   3.464   7.914
18735WAT     H156447   0.202   3.409   7.983
18735WAT     H256448   0.222   3.559   7.923
18736WAT      O56449   4.260   3.302   0.212
18736WAT     H156450   4.295   3.391   0.183
18736WAT     H256451   4.189   3.272   0.149
18737WAT      O56452   5.527   8.919   4.984
18737WAT     H156453   5.514   9.006   4.937
18737WAT     H256454   5.531   8.934   5.083
18738WAT      O56455   2.493   1.338   0.762
18738WAT     H156456   2.394   1.348   0.754
18738WAT     H256457   2.514   1.267   0.829
18739WAT      O56458   4.374   7.273   0.169
18739WAT     H156459   4.465   7.289   0.131
18739WAT     H256460   4.307   7.272   0.094
18740WAT      O56461   7.068   3.875   3.267
18740WAT     H156462   7.071   3.961   3.318
18740WAT     H256463   7.143   3.873   3.200
18741WAT      O56464   2.059   7.830   7.106
18741WAT     H156465   1.968   7.795   7.084
18741WAT     H256466   2.127   7.758   7.089
18742WAT      O56467   4.879   2.518   3.640
18742WAT     H156468   4.914   2.461   3.715
18742WAT     H256469   4.806   2.577   3.674
18743WAT      O56470   5.703   1.454   1.284
18743WAT     H156471   5.749   1.473   1.371
18743WAT     H256472   5.646   1.533   1.259
18744WAT      O56473   6.286   4.367   0.309
18744WAT     H156474   6.271   4.324   0.220
18744WAT     H256475   6.381   4.352   0.337
18745WAT      O56476   6.992   0.323   7.198
18745WAT     H156477   7.027   0.277   7.116
18745WAT     H256478   7.047   0.297   7.277
18746WAT      O56479   7.645   8.018   5.246
18746WAT     H156480   7.715   7.949   5.225
18746WAT     H256481   7.593   7.988   5.326
18747WAT      O56482   8.377   0.727   8.839
18747WAT     H156483   8.372   0.635   8.878
18747WAT     H256484   8.472   0.750   8.820
18748WAT      O56485   3.675   1.391   7.273
18748WAT     H156486   3.680   1.490   7.286
18748WAT     H256487   3.656   1.370   7.177
18749WAT      O56488   1.940   1.021   3.127
18749WAT     H156489   2.013   1.002   3.062
18749WAT     H256490   1.881   1.094   3.091
18750WAT      O56491   3.620   2.497   9.294
18750WAT     H156492   3.609   2.505   9.393
18750WAT     H256493   3.698   2.437   9.274
18751WAT      O56494   8.175   9.393   6.972
18751WAT     H156495   8.186   9.298   7.000
18751WAT     H256496   8.245   9.416   6.905
18752WAT      O56497   9.863   5.265   2.686
18752WAT     H156498   9.917   5.336   2.731
18752WAT     H256499   9.812   5.213   2.754
18753WAT      O56500   3.528   5.927   9.145
18753WAT     H156501   3.603   5.975   9.100
18753WAT     H256502   3.545   5.829   9.144
18754WAT      O56503   2.016   1.992   4.708
18754WAT     H156504   1.991   1.971   4.802
18754WAT     H256505   2.103   1.948   4.686
18755WAT      O56506   5.332   6.037   9.518
18755WAT     H156507   5.387   5.953   9.519
18755WAT     H256508   5.339   6.083   9.607
18756WAT      O56509   9.563   4.210   0.980
18756WAT     H156510   9.601   4.291   0.934
18756WAT     H256511   9.463   4.219   0.985
18757WAT      O56512   8.304   8.369   9.611
18757WAT     H156513   8.312   8.304   9.535
18757WAT     H256514   8.375   8.439   9.602
18758WAT      O56515   4.594   3.104   2.963
18758WAT     H156516   4.549   3.017   2.943
18758WAT     H256517   4.572   3.132   3.056
18759WAT      O56518   7.357   9.257   2.166
18759WAT     H156519   7.450   9.238   2.136
18759WAT     H256520   7.297   9.181   2.140
18760WAT      O56521   0.785   6.334   1.894
18760WAT     H156522   0.747   6.288   1.974
18760WAT     H256523   0.788   6.271   1.817
18761WAT      O56524   7.851   0.815   1.509
18761WAT     H156525   7.926   0.781   1.452
18761WAT     H256526   7.764   0.799   1.463
18762WAT      O56527   2.363   2.821   1.237
18762WAT     H156528   2.450   2.836   1.191
18762WAT     H256529   2.303   2.766   1.179
18763WAT      O56530   3.627   1.145   3.773
18763WAT     H156531   3.540   1.143   3.723
18763WAT     H256532   3.702   1.123   3.710
18764WAT      O56533   8.035   1.449   9.105
18764WAT     H156534   8.031   1.350   9.120
18764WAT     H256535   7.957   1.493   9.148
18765WAT      O56536   0.774   0.162   0.963
18765WAT     H156537   0.765   0.119   1.053
18765WAT     H256538   0.718   0.245   0.959
18766WAT      O56539   9.635   9.142   0.261
18766WAT     H156540   9.536   9.157   0.258
18766WAT     H256541   9.678   9.188   0.183
18767WAT      O56542   6.835   9.420   7.577
18767WAT     H156543   6.856   9.386   7.485
18767WAT     H256544   6.921   9.435   7.627
18768WAT      O56545   2.481   7.061   1.059
18768WAT     H156546   2.525   7.121   1.126
18768WAT     H256547   2.469   7.110   0.973
18769WAT      O56548   1.620   2.986   4.071
18769WAT     H156549   1.594   3.081   4.052
18769WAT     H256550   1.620   2.934   3.986
18770WAT      O56551   1.803   5.967   6.065
18770WAT     H156552   1.806   5.992   6.162
18770WAT     H256553   1.806   5.867   6.057
18771WAT      O56554   1.175   5.999   7.103
18771WAT     H156555   1.228   6.083   7.090
18771WAT     H256556   1.097   5.999   7.041
18772WAT      O56557   4.613   2.668   3.257
18772WAT     H156558   4.545   2.638   3.324
18772WAT     H256559   4.567   2.711   3.180
18773WAT      O56560   1.336   2.400   1.049
18773WAT     H156561   1.421   2.365   1.011
18773WAT     H256562   1.352   2.491   1.089
18774WAT      O56563   8.993   8.477   5.202
18774WAT     H156564   9.013   8.514   5.292
18774WAT     H256565   8.978   8.552   5.137
18775WAT      O56566   5.256   8.107   1.857
18775WAT     H156567   5.237   8.012   1.835
18775WAT     H256568   5.204   8.167   1.796
18776WAT      O56569   7.647   2.741   5.881
18776WAT     H156570   7.626   2.745   5.784
18776WAT     H256571   7.661   2.834   5.916
18777WAT      O56572   3.761   1.502   8.729
18777WAT     H156573   3.851   1.462   8.745
18777WAT     H256574   3.761   1.552   8.643
18778WAT      O56575   5.309   8.544   8.672
18778WAT     H156576   5.268   8.452   8.666
18778WAT     H256577   5.303   8.588   8.582
18779WAT      O56578   6.220   7.255   3.533
18779WAT     H156579   6.133   7.244   3.582
18779WAT     H256580   6.276   7.324   3.578
18780WAT      O56581   6.068   8.756   9.860
18780WAT     H156582   6.058   8.848   9.823
18780WAT     H256583   6.160   8.744   9.896
18781WAT      O56584   4.576   1.103   8.841
18781WAT     H156585   4.562   1.076   8.746
18781WAT     H256586   4.599   1.200   8.845
18782WAT      O56587   3.015   0.428   2.368
18782WAT     H156588   2.948   0.467   2.305
18782WAT     H256589   3.106   0.433   2.327
18783WAT      O56590   7.099   3.401   5.087
18783WAT     H156591   7.153   3.318   5.102
18783WAT     H256592   7.066   3.436   5.175
18784WAT      O56593   5.248   8.972   5.659
18784WAT     H156594   5.284   8.879   5.662
18784WAT     H256595   5.321   9.036   5.637
18785WAT      O56596   4.301   1.836   0.485
18785WAT     H156597   4.378   1.894   0.511
18785WAT     H256598   4.247   1.881   0.414
18786WAT      O56599   8.171   5.146   7.803
18786WAT     H156600   8.146   5.107   7.714
18786WAT     H256601   8.093   5.194   7.842
18787WAT      O56602   6.797   0.643   4.139
18787WAT     H156603   6.823   0.707   4.066
18787WAT     H256604   6.861   0.566   4.141
18788WAT      O56605   9.525   7.657   8.032
18788WAT     H156606   9.496   7.745   7.995
18788WAT     H256607   9.588   7.613   7.967
18789WAT      O56608   7.369   7.647   6.949
18789WAT     H156609   7.370   7.548   6.932
18789WAT     H256610   7.380   7.664   7.047
18790WAT      O56611   5.960   0.349   6.780
18790WAT     H156612   5.918   0.414   6.843
18790WAT     H256613   5.933   0.256   6.804
18791WAT      O56614   4.248   4.495   7.551
18791WAT     H156615   4.263   4.588   7.585
18791WAT     H256616   4.290   4.485   7.462
18792WAT      O56617   8.440   5.144   1.674
18792WAT     H156618   8.420   5.131   1.577
18792WAT     H256619   8.419   5.060   1.724
18793WAT      O56620   8.136   5.631   8.179
18793WAT     H156621   8.221   5.662   8.222
18793WAT     H256622   8.075   5.592   8.248
18794WAT      O56623   6.300   3.609   1.447
18794WAT     H156624   6.299   3.509   1.437
18794WAT     H256625   6.365   3.634   1.519
18795WAT      O56626   8.214   1.613   2.046
18795WAT     H156627   8.136   1.605   1.984
18795WAT     H256628   8.181   1.632   2.139
18796WAT      O56629   5.070   1.606   8.533
18796WAT     H156630   4.975   1.584   8.514
18796WAT     H256631   5.075   1.695   8.580
18797WAT      O56632   0.534   5.380   9.386
18797WAT     H156633   0.601   5.320   9.341
18797WAT     H256634   0.442   5.347   9.367
18798WAT      O56635   3.955   2.330   2.579
18798WAT     H156636   3.956   2.398   2.507
18798WAT     H256637   4.022   2.355   2.649
18799WAT      O56638   2.926   3.545   6.477
18799WAT     H156639   2.924   3.548   6.577
18799WAT     H256640   2.946   3.636   6.441
18800WAT      O56641   0.664   9.313   5.992
18800WAT     H156642   0.598   9.366   6.046
18800WAT     H256643   0.631   9.304   5.898
18801WAT      O56644   5.731   2.326   6.359
18801WAT     H156645   5.631   2.318   6.363
18801WAT     H256646   5.768   2.247   6.309
18802WAT      O56647   4.096   7.545   2.772
18802WAT     H156648   4.073   7.540   2.869
18802WAT     H256649   4.014   7.524   2.718
18803WAT      O56650   8.596   8.901   5.577
18803WAT     H156651   8.566   8.954   5.497
18803WAT     H256652   8.623   8.810   5.548
18804WAT      O56653   8.260   8.298   3.660
18804WAT     H156654   8.337   8.343   3.706
18804WAT     H256655   8.291   8.262   3.572
18805WAT      O56656   5.163   4.957   1.208
18805WAT     H156657   5.081   4.906   1.185
18805WAT     H256658   5.202   4.998   1.125
18806WAT      O56659   8.972   0.328   7.262
18806WAT     H156660   8.971   0.399   7.333
18806WAT     H256661   8.979   0.371   7.172
18807WAT      O56662   1.330   5.623   9.047
18807WAT     H156663   1.282   5.691   8.993
18807WAT     H256664   1.310   5.532   9.011
18808WAT      O56665   6.975   1.527   3.168
18808WAT     H156666   6.944   1.579   3.248
18808WAT     H256667   6.922   1.553   3.088
18809WAT      O56668   1.714   0.884   9.116
18809WAT     H156669   1.719   0.975   9.158
18809WAT     H256670   1.804   0.842   9.117
18810WAT      O56671   7.816   0.237   4.911
18810WAT     H156672   7.799   0.319   4.965
18810WAT     H256673   7.734   0.179   4.911
18811WAT      O56674   0.767   7.405   5.765
18811WAT     H156675   0.740   7.363   5.851
18811WAT     H256676   0.806   7.336   5.704
18812WAT      O56677   0.479   6.340   2.922
18812WAT     H156678   0.493   6.434   2.954
18812WAT     H256679   0.428   6.289   2.991
18813WAT      O56680   5.975   1.868   5.867
18813WAT     H156681   5.972   1.795   5.799
18813WAT     H256682   5.919   1.944   5.836
18814WAT      O56683   5.970   9.052   6.669
18814WAT     H156684   5.893   9.031   6.608
18814WAT     H256685   5.951   9.137   6.718
18815WAT      O56686   2.315   2.615   2.307
18815WAT     H156687   2.229   2.666   2.301
18815WAT     H256688   2.370   2.631   2.225
18816WAT      O56689   5.548   0.990   9.597
18816WAT     H156690   5.646   0.981   9.584
18816WAT     H256691   5.500   0.926   9.537
18817WAT      O56692   4.832   2.960   4.487
18817WAT     H156693   4.854   2.901   4.409
18817WAT     H256694   4.737   2.944   4.515
18818WAT      O56695   1.296   7.481   8.974
18818WAT     H156696   1.350   7.524   8.901
18818WAT     H256697   1.358   7.441   9.042
18819WAT      O56698   3.909   3.939   7.118
18819WAT     H156699   3.843   3.937   7.193
18819WAT     H256700   3.950   4.030   7.112
18820WAT      O56701   8.936   6.730   1.139
18820WAT     H156702   8.847   6.771   1.159
18820WAT     H256703   9.009   6.785   1.179
18821WAT      O56704   3.332   1.305   3.405
18821WAT     H156705   3.425   1.305   3.367
18821WAT     H256706   3.289   1.394   3.391
18822WAT      O56707   7.811   5.499   2.520
18822WAT     H156708   7.761   5.518   2.604
18822WAT     H256709   7.755   5.526   2.441
18823WAT      O56710   3.345   3.828   5.507
18823WAT     H156711   3.336   3.729   5.502
18823WAT     H256712   3.293   3.863   5.585
18824WAT      O56713   9.699   2.056   3.064
18824WAT     H156714   9.735   2.138   3.108
18824WAT     H256715   9.672   1.990   3.134
18825WAT      O56716   7.508   2.303   0.460
18825WAT     H156717   7.515   2.270   0.366
18825WAT     H256718   7.583   2.366   0.479
18826WAT      O56719   3.485   7.553   8.345
18826WAT     H156720   3.465   7.467   8.392
18826WAT     H256721   3.549   7.536   8.270
18827WAT      O56722   7.264   4.386   7.545
18827WAT     H156723   7.352   4.362   7.504
18827WAT     H256724   7.226   4.307   7.592
18828WAT      O56725   9.033   6.149   6.931
18828WAT     H156726   9.025   6.219   7.001
18828WAT     H256727   9.122   6.105   6.937
18829WAT      O56728   0.342   0.645   5.066
18829WAT     H156729   0.290   0.706   5.006
18829WAT     H256730   0.284   0.616   5.142
18830WAT      O56731   8.463   4.769   3.709
18830WAT     H156732   8.371   4.731   3.698
18830WAT     H256733   8.523   4.700   3.751
18831WAT      O56734   0.848   0.208   3.334
18831WAT     H156735   0.803   0.148   3.269
18831WAT     H256736   0.781   0.267   3.379
18832WAT      O56737   5.672   4.809   5.203
18832WAT     H156738   5.625   4.841   5.120
18832WAT     H256739   5.604   4.780   5.270
18833WAT      O56740   4.095   8.428   4.717
18833WAT     H156741   4.026   8.481   4.667
18833WAT     H256742   4.153   8.491   4.769
18834WAT      O56743   2.600   3.733   0.292
18834WAT     H156744   2.569   3.638   0.301
18834WAT     H256745   2.536   3.784   0.234
18835WAT      O56746   9.476   7.826   3.839
18835WAT     H156747   9.495   7.873   3.753
18835WAT     H256748   9.440   7.892   3.906
18836WAT      O56749   2.008   2.417   6.109
18836WAT     H156750   2.036   2.462   6.194
18836WAT     H256751   1.940   2.347   6.129
18837WAT      O56752   7.641   1.877   6.923
18837WAT     H156753   7.649   1.862   7.022
18837WAT     H256754   7.571   1.946   6.906
18838WAT      O56755   6.258   6.927   0.726
18838WAT     H156756   6.241   6.829   0.736
18838WAT     H256757   6.317   6.943   0.647
18839WAT      O56758   0.029   6.804   8.317
18839WAT     H156759   0.069   6.791   8.226
18839WAT     H256760   0.042   6.721   8.371
18840WAT      O56761   8.293   6.228   9.052
18840WAT     H156762   8.378   6.180   9.027
18840WAT     H256763   8.287   6.313   9.000
18841WAT      O56764   3.327   7.303   0.645
18841WAT     H156765   3.263   7.350   0.583
18841WAT     H256766   3.315   7.337   0.738
18842WAT      O56767   7.517   7.633   6.299
18842WAT     H156768   7.442   7.626   6.366
18842WAT     H256769   7.550   7.541   6.276
18843WAT      O56770   7.311   0.817   0.792
18843WAT     H156771   7.291   0.860   0.880
18843WAT     H256772   7.245   0.744   0.774
18844WAT      O56773   9.786   0.772   8.480
18844WAT     H156774   9.748   0.864   8.473
18844WAT     H256775   9.886   0.776   8.472
18845WAT      O56776   6.643   0.540   1.642
18845WAT     H156777   6.624   0.568   1.547
18845WAT     H256778   6.720   0.594   1.677
18846WAT      O56779   0.145   5.865   8.844
18846WAT     H156780   0.185   5.812   8.770
18846WAT     H256781   0.061   5.820   8.876
18847WAT      O56782   3.533   4.750   2.963
18847WAT     H156783   3.543   4.829   3.023
18847WAT     H256784   3.505   4.781   2.872
18848WAT      O56785   3.598   0.366   1.680
18848WAT     H156786   3.550   0.401   1.599
18848WAT     H256787   3.607   0.438   1.748
18849WAT      O56788   1.022   0.801   5.428
18849WAT     H156789   0.965   0.754   5.496
18849WAT     H256790   1.111   0.756   5.422
18850WAT      O56791   1.517   0.131   0.975
18850WAT     H156792   1.569   0.111   0.891
18850WAT     H256793   1.421   0.111   0.960
18851WAT      O56794   0.724   8.372   7.420
18851WAT     H156795   0.792   8.306   7.452
18851WAT     H256796   0.648   8.323   7.377
18852WAT      O56797   3.249   7.101   4.273
18852WAT     H156798   3.243   7.165   4.196
18852WAT     H256799   3.273   7.011   4.239
18853WAT      O56800   3.046   1.931   3.419
18853WAT     H156801   3.041   1.869   3.497
18853WAT     H256802   3.140   1.933   3.384
18854WAT      O56803   8.404   0.212   7.453
18854WAT     H156804   8.308   0.229   7.430
18854WAT     H256805   8.413   0.201   7.552
18855WAT      O56806   3.328   7.975   1.709
18855WAT     H156807   3.421   7.947   1.685
18855WAT     H256808   3.296   8.044   1.644
18856WAT      O56809   3.908   2.848   1.081
18856WAT     H156810   3.960   2.902   1.147
18856WAT     H256811   3.843   2.790   1.129
18857WAT      O56812   7.933   7.308   9.603
18857WAT     H156813   7.978   7.222   9.628
18857WAT     H256814   7.874   7.292   9.524
18858WAT      O56815   1.430   5.982   7.251
18858WAT     H156816   1.333   5.960   7.244
18858WAT     H256817   1.442   6.078   7.274
18859WAT      O56818   4.844   2.814   0.860
18859WAT     H156819   4.764   2.764   0.894
18859WAT     H256820   4.823   2.853   0.770
18860WAT      O56821   8.690   2.158   5.975
18860WAT     H156822   8.776   2.203   6.000
18860WAT     H256823   8.690   2.065   6.011
18861WAT      O56824   4.755   4.251   3.668
18861WAT     H156825   4.772   4.227   3.764
18861WAT     H256826   4.783   4.175   3.609
18862WAT      O56827   8.802   8.083   3.313
18862WAT     H156828   8.729   8.038   3.262
18862WAT     H256829   8.833   8.164   3.263
18863WAT      O56830   9.868   8.792   1.398
18863WAT     H156831   9.921   8.716   1.437
18863WAT     H256832   9.885   8.797   1.299
18864WAT      O56833   6.859   9.445   2.568
18864WAT     H156834   6.775   9.395   2.546
18864WAT     H256835   6.837   9.542   2.579
18865WAT      O56836   5.997   8.583   1.348
18865WAT     H156837   5.975   8.485   1.352
18865WAT     H256838   5.928   8.635   1.398
18866WAT      O56839   5.084   5.467   4.032
18866WAT     H156840   5.072   5.488   3.935
18866WAT     H256841   5.008   5.504   4.084
18867WAT      O56842   4.032   5.779   0.790
18867WAT     H156843   4.071   5.793   0.699
18867WAT     H256844   3.999   5.685   0.798
18868WAT      O56845   7.025   2.338   6.016
18868WAT     H156846   7.050   2.288   5.933
18868WAT     H256847   7.099   2.332   6.082
18869WAT      O56848   9.227   2.171   4.764
18869WAT     H156849   9.265   2.079   4.774
18869WAT     H256850   9.298   2.232   4.730
18870WAT      O56851   1.430   4.246   5.957
18870WAT     H156852   1.482   4.287   5.882
18870WAT     H256853   1.396   4.319   6.017
18871WAT      O56854   6.620   1.939   2.404
18871WAT     H156855   6.656   2.031   2.392
18871WAT     H256856   6.521   1.942   2.413
18872WAT      O56857   4.153   8.726   5.703
18872WAT     H156858   4.213   8.796   5.742
18872WAT     H256859   4.086   8.699   5.771
18873WAT      O56860   2.127   8.882   1.306
18873WAT     H156861   2.092   8.877   1.400
18873WAT     H256862   2.099   8.969   1.266
18874WAT      O56863   9.223   9.357   9.686
18874WAT     H156864   9.132   9.343   9.725
18874WAT     H256865   9.236   9.453   9.663
18875WAT      O56866   5.022   3.626   3.438
18875WAT     H156867   4.984   3.549   3.386
18875WAT     H256868   5.098   3.594   3.494
18876WAT      O56869   8.669   9.040   3.254
18876WAT     H156870   8.591   9.081   3.207
18876WAT     H256871   8.647   8.948   3.284
18877WAT      O56872   3.304   9.785   5.204
18877WAT     H156873   3.334   9.733   5.123
18877WAT     H256874   3.350   9.874   5.205
18878WAT      O56875   5.291   3.062   8.349
18878WAT     H156876   5.245   2.990   8.298
18878WAT     H256877   5.298   3.036   8.445
18879WAT      O56878   7.299   9.366   3.988
18879WAT     H156879   7.309   9.302   4.064
18879WAT     H256880   7.277   9.457   4.023
18880WAT      O56881   0.116   6.696   1.971
18880WAT     H156882   0.170   6.776   1.996
18880WAT     H256883   0.090   6.702   1.874
18881WAT      O56884   4.725   0.605   7.155
18881WAT     H156885   4.823   0.601   7.172
18881WAT     H256886   4.704   0.559   7.068
18882WAT      O56887   2.412   8.955   5.912
18882WAT     H156888   2.414   9.027   5.983
18882WAT     H256889   2.319   8.946   5.878
18883WAT      O56890   4.984   7.301   1.691
18883WAT     H156891   5.074   7.341   1.707
18883WAT     H256892   4.973   7.220   1.750
18884WAT      O56893   0.589   6.094   2.595
18884WAT     H156894   0.593   6.191   2.571
18884WAT     H256895   0.682   6.056   2.594
18885WAT      O56896   9.330   4.147   3.058
18885WAT     H156897   9.311   4.077   3.127
18885WAT     H256898   9.280   4.126   2.974
18886WAT      O56899   7.384   3.339   9.773
18886WAT     H156900   7.301   3.358   9.721
18886WAT     H256901   7.368   3.262   9.836
18887WAT      O56902   0.165   2.169   4.239
18887WAT     H156903   0.229   2.239   4.270
18887WAT     H256904   0.137   2.112   4.316
18888WAT      O56905   0.163   8.188   6.215
18888WAT     H156906   0.259   8.161   6.213
18888WAT     H256907   0.148   8.251   6.291
18889WAT      O56908   5.322   6.628   5.711
18889WAT     H156909   5.297   6.554   5.648
18889WAT     H256910   5.298   6.716   5.671
18890WAT      O56911   8.705   2.626   5.822
18890WAT     H156912   8.680   2.651   5.729
18890WAT     H256913   8.804   2.608   5.826
18891WAT      O56914   6.155   0.056   1.624
18891WAT     H156915   6.249   0.084   1.607
18891WAT     H256916   6.101   0.136   1.652
18892WAT      O56917   7.696   5.946   2.411
18892WAT     H156918   7.769   5.969   2.476
18892WAT     H256919   7.611   5.930   2.462
18893WAT      O56920   1.688   7.564   1.527
18893WAT     H156921   1.606   7.613   1.499
18893WAT     H256922   1.768   7.605   1.483
18894WAT      O56923   7.461   2.634   6.549
18894WAT     H156924   7.455   2.535   6.557
18894WAT     H256925   7.492   2.659   6.457
18895WAT      O56926   1.965   1.200   8.031
18895WAT     H156927   2.019   1.127   7.989
18895WAT     H256928   1.893   1.160   8.088
18896WAT      O56929   2.315   4.770   4.976
18896WAT     H156930   2.307   4.775   4.877
18896WAT     H256931   2.391   4.828   5.007
18897WAT      O56932   5.549   8.654   7.603
18897WAT     H156933   5.601   8.592   7.661
18897WAT     H256934   5.480   8.602   7.552
18898WAT      O56935   6.043   3.743   7.533
18898WAT     H156936   6.108   3.727   7.459
18898WAT     H256937   5.981   3.818   7.508
18899WAT      O56938   1.970   2.668   3.122
18899WAT     H156939   2.054   2.707   3.160
18899WAT     H256940   1.974   2.568   3.126
18900WAT      O56941   4.569   9.267   4.985
18900WAT     H156942   4.528   9.179   4.962
18900WAT     H256943   4.631   9.294   4.912
18901WAT      O56944   3.651   8.840   3.858
18901WAT     H156945   3.623   8.771   3.926
18901WAT     H256946   3.635   8.931   3.895
18902WAT      O56947   5.689   0.574   9.505
18902WAT     H156948   5.600   0.540   9.537
18902WAT     H256949   5.718   0.521   9.425
18903WAT      O56950   6.903   2.657   7.531
18903WAT     H156951   6.836   2.694   7.466
18903WAT     H256952   6.994   2.692   7.508
18904WAT      O56953   2.015   7.056   8.609
18904WAT     H156954   1.928   7.094   8.639
18904WAT     H256955   2.087   7.080   8.675
18905WAT      O56956   0.792   4.521   3.153
18905WAT     H156957   0.810   4.426   3.130
18905WAT     H256958   0.772   4.573   3.070
18906WAT      O56959   3.849   8.656   4.439
18906WAT     H156960   3.903   8.717   4.381
18906WAT     H256961   3.825   8.574   4.387
18907WAT      O56962   2.624   2.476   5.977
18907WAT     H156963   2.632   2.507   5.882
18907WAT     H256964   2.638   2.553   6.039
18908WAT      O56965   0.327   9.410   8.572
18908WAT     H156966   0.382   9.479   8.620
18908WAT     H256967   0.330   9.324   8.623
18909WAT      O56968   5.590   6.067   4.238
18909WAT     H156969   5.621   6.143   4.296
18909WAT     H256970   5.669   6.025   4.194
18910WAT      O56971   3.604   8.042   3.737
18910WAT     H156972   3.591   8.123   3.795
18910WAT     H256973   3.694   8.047   3.694
18911WAT      O56974   0.082   2.080   6.197
18911WAT     H156975   0.137   2.148   6.245
18911WAT     H256976  -0.005   2.067   6.245
18912WAT      O56977   6.303   2.030   8.195
18912WAT     H156978   6.275   1.942   8.234
18912WAT     H256979   6.243   2.053   8.118
18913WAT      O56980   1.338   9.011   0.825
18913WAT     H156981   1.273   9.086   0.807
18913WAT     H256982   1.402   9.004   0.748
18914WAT      O56983   4.713   7.802   3.927
18914WAT     H156984   4.780   7.727   3.928
18914WAT     H256985   4.741   7.872   3.993
18915WAT      O56986   0.434   3.469   2.065
18915WAT     H156987   0.515   3.462   2.123
18915WAT     H256988   0.426   3.562   2.029
18916WAT      O56989   0.040   5.554   7.184
18916WAT     H156990   0.075   5.478   7.238
18916WAT     H256991   0.019   5.631   7.244
18917WAT      O56992   9.747   0.910   1.001
18917WAT     H156993   9.769   0.856   0.919
18917WAT     H256994   9.652   0.893   1.026
18918WAT      O56995   2.352   4.962   3.678
18918WAT     H156996   2.384   5.041   3.730
18918WAT     H256997   2.421   4.936   3.610
18919WAT      O56998   4.915   6.308   0.894
18919WAT     H156999   4.849   6.351   0.956
18919WAT     H257000   4.875   6.301   0.802
18920WAT      O57001   1.663   7.925   1.326
18920WAT     H157002   1.610   8.006   1.298
18920WAT     H257003   1.603   7.845   1.329
18921WAT      O57004   9.670   3.021   7.821
18921WAT     H157005   9.661   3.071   7.735
18921WAT     H257006   9.586   3.030   7.874
18922WAT      O57007   0.401   3.072   4.237
18922WAT     H157008   0.302   3.071   4.245
18922WAT     H257009   0.441   3.124   4.312
18923WAT      O57010   7.063   3.077   1.830
18923WAT     H157011   7.122   3.155   1.853
18923WAT     H257012   7.120   3.001   1.799
18924WAT      O57013   9.648   4.013   7.586
18924WAT     H157014   9.549   4.000   7.592
18924WAT     H257015   9.693   3.924   7.580
18925WAT      O57016   0.201   9.437   0.883
18925WAT     H157017   0.108   9.423   0.918
18925WAT     H257018   0.266   9.424   0.958
18926WAT      O57019   5.519   1.768   8.981
18926WAT     H157020   5.444   1.732   9.036
18926WAT     H257021   5.585   1.814   9.041
18927WAT      O57022   1.474   6.946   5.036
18927WAT     H157023   1.538   6.874   5.064
18927WAT     H257024   1.385   6.928   5.078
18928WAT      O57025   2.077   2.925   7.850
18928WAT     H157026   2.012   2.872   7.905
18928WAT     H257027   2.158   2.945   7.905
18929WAT      O57028   6.542   4.451   9.070
18929WAT     H157029   6.593   4.373   9.034
18929WAT     H257030   6.598   4.499   9.138
18930WAT      O57031   1.694   1.986   9.393
18930WAT     H157032   1.716   1.954   9.486
18930WAT     H257033   1.626   2.059   9.399
18931WAT      O57034   3.968   9.712   6.210
18931WAT     H157035   3.949   9.662   6.126
18931WAT     H257036   3.941   9.657   6.289
18932WAT      O57037   1.815   2.967   4.823
18932WAT     H157038   1.753   3.031   4.778
18932WAT     H257039   1.810   2.978   4.922
18933WAT      O57040   4.505   3.039   1.234
18933WAT     H157041   4.475   2.954   1.277
18933WAT     H257042   4.580   3.019   1.171
18934WAT      O57043   1.617   0.109   2.484
18934WAT     H157044   1.659   0.032   2.532
18934WAT     H257045   1.676   0.138   2.408
18935WAT      O57046   5.282   6.827   4.348
18935WAT     H157047   5.218   6.856   4.277
18935WAT     H257048   5.284   6.895   4.421
18936WAT      O57049   6.180   0.721   1.192
18936WAT     H157050   6.174   0.723   1.092
18936WAT     H257051   6.244   0.791   1.223
18937WAT      O57052   0.617   8.088   1.504
18937WAT     H157053   0.667   8.170   1.533
18937WAT     H257054   0.645   8.063   1.411
18938WAT      O57055   7.838   8.293   0.167
18938WAT     H157056   7.888   8.301   0.253
18938WAT     H257057   7.855   8.203   0.127
18939WAT      O57058   6.838   7.967   6.228
18939WAT     H157059   6.829   7.948   6.130
18939WAT     H257060   6.927   8.008   6.246
18940WAT      O57061   8.875   3.535   7.770
18940WAT     H157062   8.912   3.539   7.863
18940WAT     H257063   8.926   3.597   7.711
18941WAT      O57064   4.608   1.508   9.836
18941WAT     H157065   4.668   1.511   9.916
18941WAT     H257066   4.664   1.505   9.753
18942WAT      O57067   0.280   2.765   3.933
18942WAT     H157068   0.326   2.839   3.982
18942WAT     H257069   0.209   2.726   3.992
18943WAT      O57070   9.220   1.712   4.564
18943WAT     H157071   9.305   1.664   4.546
18943WAT     H257072   9.198   1.772   4.487
18944WAT      O57073   8.148   5.579   9.776
18944WAT     H157074   8.163   5.495   9.828
18944WAT     H257075   8.237   5.618   9.750
18945WAT      O57076   6.757   9.497   2.115
18945WAT     H157077   6.827   9.464   2.179
18945WAT     H257078   6.702   9.420   2.083
18946WAT      O57079   6.554   6.699   1.097
18946WAT     H157080   6.468   6.717   1.146
18946WAT     H257081   6.542   6.621   1.037
18947WAT      O57082   7.107   8.493   8.086
18947WAT     H157083   7.134   8.435   8.009
18947WAT     H257084   7.183   8.554   8.109
18948WAT      O57085   8.876   4.343   0.945
18948WAT     H157086   8.885   4.440   0.923
18948WAT     H257087   8.783   4.324   0.977
18949WAT      O57088   8.715   1.449   8.465
18949WAT     H157089   8.740   1.367   8.516
18949WAT     H257090   8.710   1.428   8.368
18950WAT      O57091   0.775   0.018   0.552
18950WAT     H157092   0.853  -0.045   0.543
18950WAT     H257093   0.721  -0.007   0.632
18951WAT      O57094   8.651   3.688   3.567
18951WAT     H157095   8.561   3.727   3.584
18951WAT     H257096   8.701   3.681   3.654
18952WAT      O57097   4.412   4.858   9.681
18952WAT     H157098   4.366   4.939   9.646
18952WAT     H257099   4.384   4.778   9.627
18953WAT      O57100   3.086   1.438   0.962
18953WAT     H157101   2.988   1.421   0.958
18953WAT     H257102   3.117   1.436   1.057
18954WAT      O57103   6.393   0.919   5.055
18954WAT     H157104   6.384   0.992   4.987
18954WAT     H257105   6.395   0.959   5.147
18955WAT      O57106   8.518   5.244   9.205
18955WAT     H157107   8.489   5.190   9.125
18955WAT     H257108   8.437   5.281   9.250
18956WAT      O57109   8.556   0.044   5.216
18956WAT     H157110   8.501   0.007   5.141
18956WAT     H257111   8.610   0.121   5.183
18957WAT      O57112   7.706   3.373   3.023
18957WAT     H157113   7.628   3.401   2.966
18957WAT     H257114   7.719   3.274   3.016
18958WAT      O57115   4.389   6.011   9.872
18958WAT     H157116   4.483   6.031   9.845
18958WAT     H257117   4.388   5.971   9.963
18959WAT      O57118   4.109   1.860   2.827
18959WAT     H157119   4.113   1.827   2.921
18959WAT     H257120   4.200   1.852   2.785
18960WAT      O57121   4.629   6.177   1.778
18960WAT     H157122   4.537   6.138   1.787
18960WAT     H257123   4.697   6.106   1.796
18961WAT      O57124   8.223   4.597   8.197
18961WAT     H157125   8.135   4.621   8.155
18961WAT     H257126   8.214   4.509   8.243
18962WAT      O57127   6.556   2.063   7.821
18962WAT     H157128   6.536   2.073   7.918
18962WAT     H257129   6.560   1.966   7.797
18963WAT      O57130   6.408   0.121   1.627
18963WAT     H157131   6.492   0.067   1.624
18963WAT     H257132   6.426   0.209   1.672
18964WAT      O57133   1.556   8.707   3.107
18964WAT     H157134   1.616   8.677   3.181
18964WAT     H257135   1.526   8.801   3.123
18965WAT      O57136   1.867   0.129   4.810
18965WAT     H157137   1.960   0.094   4.794
18965WAT     H257138   1.803   0.079   4.752
18966WAT      O57139   2.560   9.613   0.820
18966WAT     H157140   2.565   9.679   0.745
18966WAT     H257141   2.476   9.560   0.811
18967WAT      O57142   7.932   8.493   6.876
18967WAT     H157143   7.862   8.542   6.823
18967WAT     H257144   7.892   8.408   6.911
18968WAT      O57145   6.570   0.561   6.880
18968WAT     H157146   6.500   0.538   6.948
18968WAT     H257147   6.604   0.477   6.837
18969WAT      O57148   1.859   0.140   0.290
18969WAT     H157149   1.805   0.056   0.290
18969WAT     H257150   1.954   0.119   0.313
18970WAT      O57151   5.484   4.743   1.828
18970WAT     H157152   5.551   4.743   1.903
18970WAT     H257153   5.410   4.680   1.850
18971WAT      O57154   2.792   7.895   1.531
18971WAT     H157155   2.810   7.941   1.618
18971WAT     H257156   2.750   7.959   1.467
18972WAT      O57157   2.907   2.094   2.449
18972WAT     H157158   2.946   2.075   2.359
18972WAT     H257159   2.898   2.193   2.461
18973WAT      O57160   3.368   0.577   5.127
18973WAT     H157161   3.364   0.548   5.031
18973WAT     H257162   3.463   0.593   5.153
18974WAT      O57163   3.000   7.561   5.432
18974WAT     H157164   3.049   7.534   5.349
18974WAT     H257165   3.009   7.660   5.445
18975WAT      O57166   2.552   0.103   5.889
18975WAT     H157167   2.595   0.013   5.896
18975WAT     H257168   2.564   0.152   5.976
18976WAT      O57169   7.468   6.370   3.729
18976WAT     H157170   7.463   6.278   3.768
18976WAT     H257171   7.482   6.364   3.631
18977WAT      O57172   5.096   6.927   8.957
18977WAT     H157173   5.011   6.958   9.000
18977WAT     H257174   5.171   6.938   9.022
18978WAT      O57175   7.925   4.370   9.244
18978WAT     H157176   7.919   4.295   9.309
18978WAT     H257177   7.844   4.428   9.251
18979WAT      O57178   2.213   6.115   1.189
18979WAT     H157179   2.141   6.076   1.132
18979WAT     H257180   2.258   6.041   1.240
18980WAT      O57181   5.604   6.480   6.632
18980WAT     H157182   5.679   6.435   6.680
18980WAT     H257183   5.621   6.478   6.533
18981WAT      O57184   6.818   5.975   5.887
18981WAT     H157185   6.758   6.043   5.929
18981WAT     H257186   6.888   5.946   5.952
18982WAT      O57187   7.703   6.623   7.996
18982WAT     H157188   7.782   6.684   7.989
18982WAT     H257189   7.640   6.642   7.921
18983WAT      O57190   5.544   8.493   5.953
18983WAT     H157191   5.562   8.563   6.021
18983WAT     H257192   5.595   8.410   5.977
18984WAT      O57193   7.285   7.221   7.925
18984WAT     H157194   7.303   7.181   7.836
18984WAT     H257195   7.370   7.233   7.975
18985WAT      O57196   8.668   4.878   1.651
18985WAT     H157197   8.581   4.917   1.682
18985WAT     H257198   8.671   4.781   1.673
18986WAT      O57199   9.193   3.784   3.517
18986WAT     H157200   9.261   3.770   3.445
18986WAT     H257201   9.139   3.865   3.496
18987WAT      O57202   5.038   7.030   9.322
18987WAT     H157203   5.020   7.068   9.231
18987WAT     H257204   5.096   6.948   9.313
18988WAT      O57205   0.315   6.148   1.913
18988WAT     H157206   0.313   6.162   2.012
18988WAT     H257207   0.257   6.071   1.889
18989WAT      O57208   0.628   1.769   7.105
18989WAT     H157209   0.699   1.720   7.157
18989WAT     H257210   0.588   1.840   7.163
18990WAT      O57211   0.320   0.359   6.442
18990WAT     H157212   0.330   0.353   6.342
18990WAT     H257213   0.237   0.311   6.470
18991WAT      O57214   8.576   6.136   0.119
18991WAT     H157215   8.529   6.223   0.133
18991WAT     H257216   8.535   6.066   0.178
18992WAT      O57217   0.684   7.776   7.802
18992WAT     H157218   0.728   7.698   7.846
18992WAT     H257219   0.586   7.758   7.793
18993WAT      O57220   8.024   1.700   0.190
18993WAT     H157221   7.965   1.642   0.134
18993WAT     H257222   8.004   1.796   0.171
18994WAT      O57223   5.137   3.577   7.165
18994WAT     H157224   5.068   3.594   7.094
18994WAT     H257225   5.096   3.593   7.255
18995WAT      O57226   1.993   9.553   7.241
18995WAT     H157227   2.049   9.623   7.286
18995WAT     H257228   1.904   9.548   7.285
18996WAT      O57229   3.834   0.982   8.360
18996WAT     H157230   3.774   1.050   8.403
18996WAT     H257231   3.833   0.995   8.261
18997WAT      O57232   6.878   2.972   9.029
18997WAT     H157233   6.791   2.961   9.077
18997WAT     H257234   6.862   2.969   8.931
18998WAT      O57235   1.297   4.629   5.535
18998WAT     H157236   1.263   4.535   5.543
18998WAT     H257237   1.397   4.628   5.530
18999WAT      O57238   9.384   5.061   5.845
18999WAT     H157239   9.463   5.029   5.896
18999WAT     H257240   9.372   5.003   5.764
19000WAT      O57241   6.182   9.090   6.009
19000WAT     H157242   6.176   9.161   6.079
19000WAT     H257243   6.278   9.076   5.983
19001WAT      O57244   3.531   4.067   3.774
19001WAT     H157245   3.631   4.073   3.780
19001WAT     H257246   3.492   4.159   3.778
19002WAT      O57247   7.121   5.618   7.270
19002WAT     H157248   7.083   5.530   7.243
19002WAT     H257249   7.049   5.677   7.305
19003WAT      O57250   6.916   0.133   4.699
19003WAT     H157251   6.833   0.189   4.708
19003WAT     H257252   6.923   0.098   4.606
19004WAT      O57253   2.162   4.418   4.156
19004WAT     H157254   2.202   4.378   4.073
19004WAT     H257255   2.067   4.444   4.138
19005WAT      O57256   3.699   1.523   9.633
19005WAT     H157257   3.634   1.450   9.613
19005WAT     H257258   3.706   1.584   9.554
19006WAT      O57259   7.252   5.024   8.688
19006WAT     H157260   7.250   5.037   8.787
19006WAT     H257261   7.347   5.022   8.657
19007WAT      O57262   4.183   1.482   5.754
19007WAT     H157263   4.178   1.441   5.846
19007WAT     H257264   4.266   1.451   5.709
19008WAT      O57265   1.973   6.312   0.965
19008WAT     H157266   1.967   6.242   1.037
19008WAT     H257267   2.051   6.291   0.906
19009WAT      O57268   2.316   5.813   5.137
19009WAT     H157269   2.385   5.822   5.208
19009WAT     H257270   2.312   5.717   5.107
19010WAT      O57271   8.944   7.485   2.951
19010WAT     H157272   8.913   7.577   2.975
19010WAT     H257273   8.897   7.418   3.009
19011WAT      O57274   3.715   7.304   3.417
19011WAT     H157275   3.637   7.255   3.379
19011WAT     H257276   3.759   7.248   3.488
19012WAT      O57277   2.630   0.635   3.255
19012WAT     H157278   2.642   0.570   3.330
19012WAT     H257279   2.571   0.594   3.185
19013WAT      O57280   5.582   1.975   1.363
19013WAT     H157281   5.647   2.045   1.392
19013WAT     H257282   5.491   1.998   1.398
19014WAT      O57283   1.540   7.037   7.430
19014WAT     H157284   1.618   7.011   7.373
19014WAT     H257285   1.508   7.127   7.403
19015WAT      O57286   2.844   7.932   6.136
19015WAT     H157287   2.768   7.926   6.071
19015WAT     H257288   2.893   7.845   6.138
19016WAT      O57289   9.385   2.715   8.152
19016WAT     H157290   9.409   2.670   8.238
19016WAT     H257291   9.467   2.727   8.096
19017WAT      O57292   7.826   7.093   8.568
19017WAT     H157293   7.804   7.086   8.666
19017WAT     H257294   7.912   7.045   8.550
19018WAT      O57295   9.207   1.986   2.515
19018WAT     H157296   9.297   2.019   2.488
19018WAT     H257297   9.214   1.937   2.602
19019WAT      O57298   5.416   9.444   4.756
19019WAT     H157299   5.515   9.430   4.752
19019WAT     H257300   5.391   9.522   4.698
19020WAT      O57301   9.462   7.659   8.847
19020WAT     H157302   9.401   7.650   8.925
19020WAT     H257303   9.533   7.589   8.852
19021WAT      O57304   6.506   8.020   6.691
19021WAT     H157305   6.521   8.091   6.623
19021WAT     H257306   6.414   7.983   6.682
19022WAT      O57307   7.363   1.993   5.011
19022WAT     H157308   7.356   2.072   4.950
19022WAT     H257309   7.450   1.947   4.994
19023WAT      O57310   4.555   8.906   1.010
19023WAT     H157311   4.596   8.939   1.095
19023WAT     H257312   4.553   8.980   0.943
19024WAT      O57313   0.847   0.144   1.773
19024WAT     H157314   0.922   0.178   1.830
19024WAT     H257315   0.792   0.080   1.826
19025WAT      O57316   1.412   2.786   0.890
19025WAT     H157317   1.452   2.704   0.849
19025WAT     H257318   1.482   2.857   0.898
19026WAT      O57319   2.914   0.433   5.779
19026WAT     H157320   2.902   0.334   5.773
19026WAT     H257321   3.003   0.458   5.740
19027WAT      O57322   9.663   8.621   1.681
19027WAT     H157323   9.620   8.674   1.607
19027WAT     H257324   9.719   8.682   1.737
19028WAT      O57325   8.412   4.382   1.838
19028WAT     H157326   8.451   4.362   1.748
19028WAT     H257327   8.482   4.420   1.898
19029WAT      O57328   3.474   7.056   0.407
19029WAT     H157329   3.414   6.977   0.416
19029WAT     H257330   3.551   7.047   0.471
19030WAT      O57331   0.872   4.287   0.348
19030WAT     H157332   0.813   4.261   0.424
19030WAT     H257333   0.817   4.325   0.274
19031WAT      O57334   5.916   8.642   8.897
19031WAT     H157335   5.873   8.727   8.926
19031WAT     H257336   5.961   8.599   8.976
19032WAT      O57337   9.765   2.786   4.221
19032WAT     H157338   9.803   2.825   4.137
19032WAT     H257339   9.690   2.724   4.198
19033WAT      O57340   1.626   3.196   1.070
19033WAT     H157341   1.555   3.210   1.139
19033WAT     H257342   1.681   3.116   1.095
19034WAT      O57343   1.126   4.924   8.585
19034WAT     H157344   1.049   4.980   8.615
19034WAT     H257345   1.212   4.973   8.601
19035WAT      O57346   5.763   3.161   9.454
19035WAT     H157347   5.842   3.104   9.477
19035WAT     H257348   5.684   3.102   9.437
19036WAT      O57349   7.818   4.360   4.748
19036WAT     H157350   7.861   4.285   4.798
19036WAT     H257351   7.830   4.445   4.800
19037WAT      O57352   6.503   2.475   2.016
19037WAT     H157353   6.542   2.399   1.965
19037WAT     H257354   6.514   2.560   1.964
19038WAT      O57355   7.908   0.984   5.802
19038WAT     H157356   7.838   0.968   5.732
19038WAT     H257357   7.931   0.897   5.845
19039WAT      O57358   0.927   3.634   8.677
19039WAT     H157359   0.862   3.604   8.607
19039WAT     H257360   0.892   3.610   8.768
19040WAT      O57361   3.671   4.177   2.785
19040WAT     H157362   3.603   4.123   2.835
19040WAT     H257363   3.761   4.164   2.827
19041WAT      O57364   2.871   0.068   7.230
19041WAT     H157365   2.848   0.021   7.315
19041WAT     H257366   2.950   0.127   7.244
19042WAT      O57367   4.424   8.791   7.856
19042WAT     H157368   4.516   8.776   7.894
19042WAT     H257369   4.421   8.759   7.762
19043WAT      O57370   8.560   6.164   6.069
19043WAT     H157371   8.559   6.264   6.060
19043WAT     H257372   8.526   6.122   5.985
19044WAT      O57373   0.752   5.528   0.787
19044WAT     H157374   0.847   5.555   0.771
19044WAT     H257375   0.715   5.484   0.705
19045WAT      O57376   3.017   7.245   5.072
19045WAT     H157377   3.106   7.280   5.103
19045WAT     H257378   2.959   7.227   5.151
19046WAT      O57379   4.346   2.929   2.869
19046WAT     H157380   4.286   2.930   2.789
19046WAT     H257381   4.340   3.017   2.917
19047WAT      O57382   5.787   3.135   2.564
19047WAT     H157383   5.717   3.181   2.618
19047WAT     H257384   5.866   3.196   2.554
19048WAT      O57385   9.308   4.693   3.352
19048WAT     H157386   9.403   4.721   3.343
19048WAT     H257387   9.289   4.666   3.446
19049WAT      O57388   4.416   8.557   3.050
19049WAT     H157389   4.433   8.574   3.148
19049WAT     H257390   4.497   8.514   3.010
19050WAT      O57391   6.295   9.367   8.335
19050WAT     H157392   6.232   9.344   8.261
19050WAT     H257393   6.377   9.408   8.297
19051WAT      O57394   8.638   9.761   2.378
19051WAT     H157395   8.641   9.758   2.278
19051WAT     H257396   8.564   9.821   2.407
19052WAT      O57397   2.891   3.998   8.872
19052WAT     H157398   2.928   3.990   8.779
19052WAT     H257399   2.934   3.931   8.931
19053WAT      O57400   7.967   5.540   1.219
19053WAT     H157401   7.999   5.634   1.232
19053WAT     H257402   8.043   5.477   1.237
19054WAT      O57403   5.178   3.010   0.654
19054WAT     H157404   5.223   2.990   0.742
19054WAT     H257405   5.248   3.030   0.585
19055WAT      O57406   7.153   9.024   3.406
19055WAT     H157407   7.240   9.006   3.359
19055WAT     H257408   7.162   9.107   3.461
19056WAT      O57409   2.601   8.441   1.565
19056WAT     H157410   2.555   8.353   1.566
19056WAT     H257411   2.657   8.451   1.648
19057WAT      O57412   2.972   6.603   2.739
19057WAT     H157413   3.068   6.627   2.724
19057WAT     H257414   2.919   6.686   2.758
19058WAT      O57415   0.018   1.871   5.725
19058WAT     H157416   0.074   1.792   5.753
19058WAT     H257417   0.070   1.955   5.739
19059WAT      O57418   0.455   3.117   6.188
19059WAT     H157419   0.511   3.196   6.161
19059WAT     H257420   0.444   3.056   6.109
19060WAT      O57421   6.461   9.048   5.964
19060WAT     H157422   6.486   8.966   5.912
19060WAT     H257423   6.488   9.129   5.912
19061WAT      O57424   4.507   2.935   1.680
19061WAT     H157425   4.548   2.990   1.752
19061WAT     H257426   4.433   2.986   1.636
19062WAT      O57427   9.660   4.416   3.321
19062WAT     H157428   9.560   4.419   3.331
19062WAT     H257429   9.684   4.418   3.224
19063WAT      O57430   6.487   7.408   5.544
19063WAT     H157431   6.459   7.330   5.487
19063WAT     H257432   6.405   7.449   5.585
19064WAT      O57433   3.665   7.827   3.486
19064WAT     H157434   3.663   7.728   3.478
19064WAT     H257435   3.737   7.854   3.549
19065WAT      O57436   5.294   3.135   4.005
19065WAT     H157437   5.387   3.149   3.971
19065WAT     H257438   5.290   3.048   4.056
19066WAT      O57439   8.841   5.203   6.178
19066WAT     H157440   8.773   5.276   6.166
19066WAT     H257441   8.865   5.165   6.090
19067WAT      O57442   7.208   2.874   3.145
19067WAT     H157443   7.148   2.934   3.092
19067WAT     H257444   7.214   2.907   3.239
19068WAT      O57445   6.587   8.135   7.140
19068WAT     H157446   6.639   8.175   7.215
19068WAT     H257447   6.607   8.037   7.134
19069WAT      O57448   2.022   0.379   0.203
19069WAT     H157449   1.957   0.311   0.238
19069WAT     H257450   1.976   0.467   0.194
19070WAT      O57451   2.423   5.766   2.542
19070WAT     H157452   2.511   5.806   2.520
19070WAT     H257453   2.428   5.666   2.535
19071WAT      O57454   6.488   4.867   9.206
19071WAT     H157455   6.451   4.809   9.135
19071WAT     H257456   6.496   4.961   9.172
19072WAT      O57457   7.152   7.927   7.841
19072WAT     H157458   7.101   7.841   7.841
19072WAT     H257459   7.120   7.985   7.916
19073WAT      O57460   2.070   5.708   9.046
19073WAT     H157461   2.022   5.774   9.104
19073WAT     H257462   2.036   5.616   9.065
19074WAT      O57463   6.346   4.567   9.838
19074WAT     H157464   6.432   4.515   9.832
19074WAT     H257465   6.279   4.514   9.891
19075WAT      O57466   3.235   0.934   3.026
19075WAT     H157467   3.200   0.982   3.106
19075WAT     H257468   3.241   0.836   3.046
19076WAT      O57469   3.571   1.992   1.786
19076WAT     H157470   3.639   1.987   1.712
19076WAT     H257471   3.603   2.056   1.855
19077WAT      O57472   6.595   4.227   9.452
19077WAT     H157473   6.613   4.172   9.533
19077WAT     H257474   6.626   4.321   9.467
19078WAT      O57475   1.379   0.780   1.860
19078WAT     H157476   1.452   0.821   1.915
19078WAT     H257477   1.297   0.770   1.916
19079WAT      O57478   9.506   3.229   8.144
19079WAT     H157479   9.453   3.176   8.078
19079WAT     H257480   9.569   3.290   8.095
19080WAT      O57481   2.070   8.182   0.402
19080WAT     H157482   2.059   8.256   0.335
19080WAT     H257483   2.136   8.210   0.471
19081WAT      O57484   9.104   6.105   3.230
19081WAT     H157485   9.091   6.182   3.167
19081WAT     H257486   9.045   6.117   3.310
19082WAT      O57487   3.329   3.613   0.592
19082WAT     H157488   3.425   3.626   0.567
19082WAT     H257489   3.272   3.677   0.540
19083WAT      O57490   0.355   5.810   5.693
19083WAT     H157491   0.443   5.773   5.724
19083WAT     H257492   0.313   5.863   5.766
19084WAT      O57493   2.458   0.040   1.829
19084WAT     H157494   2.512  -0.036   1.793
19084WAT     H257495   2.369   0.005   1.860
19085WAT      O57496   2.909   6.544   2.032
19085WAT     H157497   2.947   6.488   2.105
19085WAT     H257498   2.974   6.550   1.957
19086WAT      O57499   3.112   1.628   3.067
19086WAT     H157500   3.033   1.646   3.126
19086WAT     H257501   3.186   1.691   3.091
19087WAT      O57502   9.456   8.879   5.345
19087WAT     H157503   9.407   8.848   5.263
19087WAT     H257504   9.554   8.881   5.327
19088WAT      O57505   6.463   6.311   1.544
19088WAT     H157506   6.458   6.254   1.463
19088WAT     H257507   6.375   6.354   1.561
19089WAT      O57508   7.671   1.147   0.849
19089WAT     H157509   7.608   1.218   0.883
19089WAT     H257510   7.763   1.187   0.839
19090WAT      O57511   0.699   8.744   7.793
19090WAT     H157512   0.751   8.663   7.821
19090WAT     H257513   0.743   8.787   7.714
19091WAT      O57514   7.874   7.090   5.976
19091WAT     H157515   7.910   7.088   5.883
19091WAT     H257516   7.780   7.056   5.977
19092WAT      O57517   8.075   0.847   3.638
19092WAT     H157518   8.000   0.894   3.593
19092WAT     H257519   8.055   0.837   3.735
19093WAT      O57520   7.230   8.525   8.507
19093WAT     H157521   7.249   8.524   8.606
19093WAT     H257522   7.135   8.551   8.492
19094WAT      O57523   1.146   9.359   8.529
19094WAT     H157524   1.117   9.392   8.440
19094WAT     H257525   1.240   9.390   8.547
19095WAT      O57526   2.154   5.623   6.869
19095WAT     H157527   2.162   5.644   6.967
19095WAT     H257528   2.159   5.707   6.816
19096WAT      O57529   6.676   1.920   6.756
19096WAT     H157530   6.677   1.825   6.787
19096WAT     H257531   6.754   1.936   6.695
19097WAT      O57532   6.004   1.370   3.085
19097WAT     H157533   6.052   1.452   3.054
19097WAT     H257534   5.908   1.375   3.057
19098WAT      O57535   3.990   0.613   7.937
19098WAT     H157536   3.907   0.627   7.883
19098WAT     H257537   3.967   0.618   8.035
19099WAT      O57538   9.002   8.996   1.488
19099WAT     H157539   9.014   9.077   1.545
19099WAT     H257540   8.998   8.915   1.547
19100WAT      O57541   6.204   9.624   9.487
19100WAT     H157542   6.158   9.709   9.460
19100WAT     H257543   6.218   9.624   9.586
19101WAT      O57544   4.244   9.268   9.067
19101WAT     H157545   4.306   9.201   9.027
19101WAT     H257546   4.244   9.259   9.167
19102WAT      O57547   3.846   9.434   5.078
19102WAT     H157548   3.814   9.452   5.171
19102WAT     H257549   3.842   9.336   5.059
19103WAT      O57550   4.755   3.423   5.389
19103WAT     H157551   4.847   3.450   5.416
19103WAT     H257552   4.726   3.477   5.310
19104WAT      O57553   8.585   8.163   8.314
19104WAT     H157554   8.610   8.083   8.261
19104WAT     H257555   8.667   8.216   8.337
19105WAT      O57556   6.042   9.371   8.770
19105WAT     H157557   6.116   9.437   8.755
19105WAT     H257558   5.998   9.390   8.857
19106WAT      O57559   4.551   2.380   3.608
19106WAT     H157560   4.544   2.479   3.610
19106WAT     H257561   4.561   2.348   3.514
19107WAT      O57562   5.006   5.135   7.185
19107WAT     H157563   5.000   5.146   7.086
19107WAT     H257564   4.943   5.063   7.214
19108WAT      O57565   5.833   4.820   1.926
19108WAT     H157566   5.817   4.864   2.015
19108WAT     H257567   5.825   4.888   1.854
19109WAT      O57568   3.100   6.452   8.058
19109WAT     H157569   3.082   6.417   8.149
19109WAT     H257570   3.199   6.455   8.041
19110WAT      O57571   2.471   5.654   1.213
19110WAT     H157572   2.499   5.671   1.308
19110WAT     H257573   2.485   5.558   1.191
19111WAT      O57574   1.249   0.575   1.524
19111WAT     H157575   1.174   0.606   1.583
19111WAT     H257576   1.217   0.500   1.467
19112WAT      O57577   2.136   9.033   5.126
19112WAT     H157578   2.044   9.038   5.087
19112WAT     H257579   2.168   8.939   5.125
19113WAT      O57580   7.277   1.547   0.525
19113WAT     H157581   7.347   1.530   0.455
19113WAT     H257582   7.260   1.463   0.576
19114WAT      O57583   9.599   6.455   7.101
19114WAT     H157584   9.572   6.375   7.155
19114WAT     H257585   9.688   6.488   7.132
19115WAT      O57586   7.670   2.985   8.345
19115WAT     H157587   7.662   2.892   8.309
19115WAT     H257588   7.704   3.045   8.272
19116WAT      O57589   2.458   8.554   7.161
19116WAT     H157590   2.400   8.627   7.126
19116WAT     H257591   2.550   8.589   7.179
19117WAT      O57592   2.925   4.861   0.382
19117WAT     H157593   2.902   4.950   0.420
19117WAT     H257594   2.915   4.790   0.452
19118WAT      O57595   6.782   1.883   0.172
19118WAT     H157596   6.768   1.965   0.118
19118WAT     H257597   6.704   1.869   0.233
19119WAT      O57598   3.085   8.518   8.522
19119WAT     H157599   3.144   8.477   8.453
19119WAT     H257600   3.125   8.604   8.554
19120WAT      O57601   3.937   9.105   8.357
19120WAT     H157602   4.029   9.143   8.371
19120WAT     H257603   3.876   9.139   8.428
19121WAT      O57604   4.354   0.626   5.919
19121WAT     H157605   4.375   0.592   6.011
19121WAT     H257606   4.293   0.561   5.873
19122WAT      O57607   6.438   0.937   8.808
19122WAT     H157608   6.497   0.933   8.889
19122WAT     H257609   6.364   0.870   8.817
19123WAT      O57610   6.725   6.931   1.046
19123WAT     H157611   6.745   6.947   0.949
19123WAT     H257612   6.657   6.858   1.054
19124WAT      O57613   8.338   7.189   5.277
19124WAT     H157614   8.407   7.126   5.240
19124WAT     H257615   8.285   7.228   5.203
19125WAT      O57616   3.770   1.554   6.299
19125WAT     H157617   3.719   1.578   6.217
19125WAT     H257618   3.714   1.493   6.356
19126WAT      O57619   4.184   0.209   1.595
19126WAT     H157620   4.213   0.235   1.503
19126WAT     H257621   4.172   0.110   1.600
19127WAT      O57622   3.467   0.101   0.871
19127WAT     H157623   3.426   0.101   0.963
19127WAT     H257624   3.401   0.137   0.806
19128WAT      O57625   8.204   0.339   2.703
19128WAT     H157626   8.268   0.288   2.760
19128WAT     H257627   8.205   0.301   2.610
19129WAT      O57628   0.669   3.322   8.597
19129WAT     H157629   0.734   3.280   8.660
19129WAT     H257630   0.716   3.389   8.540
19130WAT      O57631   0.141   4.817   1.971
19130WAT     H157632   0.157   4.838   2.068
19130WAT     H257633   0.160   4.899   1.916
19131WAT      O57634   3.505   2.274   9.198
19131WAT     H157635   3.534   2.361   9.237
19131WAT     H257636   3.474   2.289   9.104
19132WAT      O57637   6.238   4.224   2.108
19132WAT     H157638   6.305   4.247   2.179
19132WAT     H257639   6.148   4.260   2.135
19133WAT      O57640   8.375   3.150   8.561
19133WAT     H157641   8.293   3.206   8.554
19133WAT     H257642   8.455   3.203   8.531
19134WAT      O57643   4.317   6.750   4.746
19134WAT     H157644   4.266   6.739   4.661
19134WAT     H257645   4.263   6.713   4.822
19135WAT      O57646   5.282   2.674   6.499
19135WAT     H157647   5.323   2.751   6.450
19135WAT     H257648   5.355   2.617   6.538
19136WAT      O57649   2.029   3.073   8.821
19136WAT     H157650   2.088   3.090   8.900
19136WAT     H257651   2.084   3.045   8.743
19137WAT      O57652   2.151   3.588   9.087
19137WAT     H157653   2.247   3.591   9.113
19137WAT     H257654   2.098   3.541   9.157
19138WAT      O57655   6.311   1.387   2.499
19138WAT     H157656   6.213   1.396   2.518
19138WAT     H257657   6.360   1.461   2.544
19139WAT      O57658   9.587   4.216   3.980
19139WAT     H157659   9.661   4.181   4.038
19139WAT     H257660   9.544   4.140   3.932
19140WAT      O57661   1.254   2.997   5.759
19140WAT     H157662   1.248   3.010   5.858
19140WAT     H257663   1.345   3.022   5.728
19141WAT      O57664   1.641   5.299   8.777
19141WAT     H157665   1.575   5.306   8.702
19141WAT     H257666   1.695   5.215   8.767
19142WAT      O57667   8.046   6.883   2.573
19142WAT     H157668   8.112   6.891   2.648
19142WAT     H257669   8.045   6.790   2.538
19143WAT      O57670   4.295   7.092   9.548
19143WAT     H157671   4.255   7.184   9.555
19143WAT     H257672   4.361   7.079   9.622
19144WAT      O57673   6.449   2.990   0.595
19144WAT     H157674   6.389   3.034   0.528
19144WAT     H257675   6.535   3.042   0.603
19145WAT      O57676   7.317   0.844   5.660
19145WAT     H157677   7.254   0.899   5.714
19145WAT     H257678   7.392   0.901   5.628
19146WAT      O57679   6.041   0.227   7.993
19146WAT     H157680   6.049   0.242   8.091
19146WAT     H257681   6.071   0.309   7.944
19147WAT      O57682   5.025   3.483   5.421
19147WAT     H157683   5.079   3.513   5.343
19147WAT     H257684   5.030   3.383   5.429
19148WAT      O57685   7.789   5.375   4.373
19148WAT     H157686   7.735   5.458   4.357
19148WAT     H257687   7.728   5.297   4.385
19149WAT      O57688   3.017   9.836   2.977
19149WAT     H157689   3.063   9.805   3.060
19149WAT     H257690   3.083   9.842   2.902
19150WAT      O57691   8.261   8.080   0.184
19150WAT     H157692   8.311   8.067   0.270
19150WAT     H257693   8.252   7.992   0.137
19151WAT      O57694   0.034   8.386   3.365
19151WAT     H157695   0.069   8.379   3.459
19151WAT     H257696   0.112   8.394   3.302
19152WAT      O57697   4.198   9.310   5.281
19152WAT     H157698   4.141   9.230   5.300
19152WAT     H257699   4.293   9.281   5.269
19153WAT      O57700   1.945   4.946   6.854
19153WAT     H157701   1.968   5.005   6.777
19153WAT     H257702   1.849   4.958   6.879
19154WAT      O57703   9.014   4.049   6.203
19154WAT     H157704   8.957   4.044   6.285
19154WAT     H257705   8.956   4.042   6.122
19155WAT      O57706   6.295   9.617   0.300
19155WAT     H157707   6.295   9.717   0.289
19155WAT     H257708   6.387   9.586   0.322
19156WAT      O57709   8.433   5.562   4.125
19156WAT     H157710   8.507   5.611   4.170
19156WAT     H257711   8.346   5.588   4.165
19157WAT      O57712   2.036   4.692   2.981
19157WAT     H157713   2.096   4.630   2.931
19157WAT     H257714   1.945   4.690   2.941
19158WAT      O57715   7.670   0.926   9.214
19158WAT     H157716   7.602   0.922   9.287
19158WAT     H257717   7.731   0.847   9.220
19159WAT      O57718   1.169   0.550   0.572
19159WAT     H157719   1.185   0.646   0.594
19159WAT     H257720   1.185   0.493   0.652
19160WAT      O57721   0.911   9.486   6.053
19160WAT     H157722   0.980   9.417   6.031
19160WAT     H257723   0.871   9.521   5.968
19161WAT      O57724   8.983   8.408   5.993
19161WAT     H157725   8.891   8.446   6.009
19161WAT     H257726   9.038   8.475   5.942
19162WAT      O57727   9.829   8.744   9.845
19162WAT     H157728   9.813   8.804   9.766
19162WAT     H257729   9.872   8.796   9.919
19163WAT      O57730   0.077   8.144   9.010
19163WAT     H157731   0.101   8.059   8.965
19163WAT     H257732   0.134   8.218   8.974
19164WAT      O57733   7.562   6.147   3.080
19164WAT     H157734   7.498   6.185   3.014
19164WAT     H257735   7.575   6.212   3.155
19165WAT      O57736   0.468   1.544   6.153
19165WAT     H157737   0.534   1.607   6.112
19165WAT     H257738   0.452   1.467   6.091
19166WAT      O57739   6.367   3.264   5.990
19166WAT     H157740   6.451   3.316   6.007
19166WAT     H257741   6.303   3.280   6.065
19167WAT      O57742   5.268   7.537   9.508
19167WAT     H157743   5.313   7.523   9.596
19167WAT     H257744   5.173   7.567   9.522
19168WAT      O57745   8.889   0.159   1.233
19168WAT     H157746   8.967   0.196   1.183
19168WAT     H257747   8.892   0.189   1.328
19169WAT      O57748   2.135   0.534   7.561
19169WAT     H157749   2.195   0.531   7.640
19169WAT     H257750   2.051   0.483   7.582
19170WAT      O57751   0.701   5.710   3.260
19170WAT     H157752   0.602   5.721   3.271
19170WAT     H257753   0.725   5.714   3.163
19171WAT      O57754   2.458   6.703   3.074
19171WAT     H157755   2.521   6.733   3.003
19171WAT     H257756   2.379   6.657   3.031
19172WAT      O57757   0.317   1.003   4.648
19172WAT     H157758   0.320   1.099   4.676
19172WAT     H257759   0.405   0.979   4.606
19173WAT      O57760   2.157   3.636   5.633
19173WAT     H157761   2.188   3.558   5.687
19173WAT     H257762   2.143   3.608   5.538
19174WAT      O57763   3.696   2.884   1.314
19174WAT     H157764   3.668   2.789   1.331
19174WAT     H257765   3.675   2.909   1.220
19175WAT      O57766   4.317   3.294   2.719
19175WAT     H157767   4.356   3.244   2.796
19175WAT     H257768   4.218   3.299   2.729
19176WAT      O57769   2.774   9.494   5.632
19176WAT     H157770   2.738   9.587   5.639
19176WAT     H257771   2.759   9.459   5.539
19177WAT      O57772   8.797   1.616   0.588
19177WAT     H157773   8.879   1.559   0.582
19177WAT     H257774   8.785   1.666   0.502
19178WAT      O57775   3.127   1.357   3.097
19178WAT     H157776   3.127   1.455   3.076
19178WAT     H257777   3.195   1.311   3.039
19179WAT      O57778   8.931   7.390   3.613
19179WAT     H157779   8.876   7.470   3.591
19179WAT     H257780   8.968   7.351   3.528
19180WAT      O57781   7.718   6.717   4.999
19180WAT     H157782   7.749   6.812   5.009
19180WAT     H257783   7.728   6.670   5.087
19181WAT      O57784   3.033   1.566   5.510
19181WAT     H157785   3.014   1.525   5.421
19181WAT     H257786   3.030   1.665   5.503
19182WAT      O57787   6.473   2.052   0.884
19182WAT     H157788   6.496   2.008   0.797
19182WAT     H257789   6.520   2.140   0.890
19183WAT      O57790   5.269   1.624   4.349
19183WAT     H157791   5.200   1.696   4.344
19183WAT     H257792   5.229   1.537   4.318
19184WAT      O57793   4.100   9.457   7.119
19184WAT     H157794   4.036   9.409   7.058
19184WAT     H257795   4.087   9.425   7.213
19185WAT      O57796   4.370   3.666   3.675
19185WAT     H157797   4.405   3.610   3.751
19185WAT     H257798   4.275   3.689   3.693
19186WAT      O57799   1.958   4.670   6.865
19186WAT     H157800   1.978   4.654   6.962
19186WAT     H257801   1.979   4.765   6.842
19187WAT      O57802   1.253   6.409   3.796
19187WAT     H157803   1.340   6.360   3.786
19187WAT     H257804   1.243   6.475   3.722
19188WAT      O57805   4.284   6.162   7.500
19188WAT     H157806   4.350   6.144   7.427
19188WAT     H257807   4.252   6.075   7.538
19189WAT      O57808   6.679   3.767   3.045
19189WAT     H157809   6.713   3.800   3.133
19189WAT     H257810   6.697   3.835   2.974
19190WAT      O57811   3.731   8.033   7.447
19190WAT     H157812   3.750   8.130   7.435
19190WAT     H257813   3.741   7.985   7.360
19191WAT      O57814   6.291   4.380   9.083
19191WAT     H157815   6.388   4.391   9.062
19191WAT     H257816   6.281   4.317   9.160
19192WAT      O57817   2.729   3.063   7.281
19192WAT     H157818   2.750   3.124   7.204
19192WAT     H257819   2.646   3.011   7.260
19193WAT      O57820   9.007   6.225   3.458
19193WAT     H157821   8.911   6.201   3.474
19193WAT     H257822   9.023   6.319   3.488
19194WAT      O57823   7.270   1.033   3.767
19194WAT     H157824   7.179   1.056   3.734
19194WAT     H257825   7.266   0.951   3.824
19195WAT      O57826   1.852   0.994   4.479
19195WAT     H157827   1.805   1.060   4.420
19195WAT     H257828   1.788   0.924   4.510
19196WAT      O57829   7.450   8.913   5.283
19196WAT     H157830   7.422   8.886   5.375
19196WAT     H257831   7.463   9.012   5.279
19197WAT      O57832   2.660   5.648   9.553
19197WAT     H157833   2.708   5.732   9.530
19197WAT     H257834   2.563   5.658   9.529
19198WAT      O57835   6.139   2.406   4.008
19198WAT     H157836   6.116   2.376   4.101
19198WAT     H257837   6.061   2.456   3.969
19199WAT      O57838   5.925   6.804   5.803
19199WAT     H157839   5.918   6.849   5.714
19199WAT     H257840   5.916   6.705   5.792
19200WAT      O57841   8.159   3.979   5.171
19200WAT     H157842   8.246   3.938   5.145
19200WAT     H257843   8.169   4.028   5.257
19201WAT      O57844   3.140   2.711   2.902
19201WAT     H157845   3.115   2.681   2.810
19201WAT     H257846   3.082   2.788   2.930
19202WAT      O57847   7.637   9.375   3.786
19202WAT     H157848   7.599   9.467   3.787
19202WAT     H257849   7.670   9.352   3.877
19203WAT      O57850   5.976   7.137   2.153
19203WAT     H157851   5.897   7.169   2.205
19203WAT     H257852   6.001   7.206   2.084
19204WAT      O57853   4.502   7.358   4.429
19204WAT     H157854   4.472   7.279   4.483
19204WAT     H257855   4.510   7.332   4.333
19205WAT      O57856   4.492   4.211   6.398
19205WAT     H157857   4.424   4.237   6.467
19205WAT     H257858   4.534   4.294   6.360
19206WAT      O57859   1.887   7.688   5.581
19206WAT     H157860   1.987   7.691   5.586
19206WAT     H257861   1.859   7.612   5.522
19207WAT      O57862   3.870   3.238   0.080
19207WAT     H157863   3.945   3.279   0.028
19207WAT     H257864   3.900   3.152   0.121
19208WAT      O57865   2.209   8.816   4.788
19208WAT     H157866   2.296   8.861   4.804
19208WAT     H257867   2.162   8.801   4.875
19209WAT      O57868   5.694   4.680   2.654
19209WAT     H157869   5.790   4.672   2.680
19209WAT     H257870   5.638   4.691   2.736
19210WAT      O57871   9.782   0.902   3.087
19210WAT     H157872   9.850   0.964   3.048
19210WAT     H257873   9.828   0.820   3.121
19211WAT      O57874   3.433   8.718   3.676
19211WAT     H157875   3.386   8.770   3.605
19211WAT     H257876   3.423   8.765   3.764
19212WAT      O57877   5.163   3.963   3.491
19212WAT     H157878   5.235   4.028   3.515
19212WAT     H257879   5.170   3.941   3.393
19213WAT      O57880   0.656   2.034   5.558
19213WAT     H157881   0.713   2.057   5.637
19213WAT     H257882   0.710   2.045   5.475
19214WAT      O57883   1.787   2.562   4.889
19214WAT     H157884   1.703   2.577   4.941
19214WAT     H257885   1.863   2.608   4.934
19215WAT      O57886   7.886   8.541   2.289
19215WAT     H157887   7.948   8.613   2.319
19215WAT     H257888   7.874   8.474   2.363
19216WAT      O57889   6.854   8.672   0.734
19216WAT     H157890   6.807   8.724   0.664
19216WAT     H257891   6.848   8.574   0.714
19217WAT      O57892   9.690   6.852   6.520
19217WAT     H157893   9.749   6.773   6.507
19217WAT     H257894   9.715   6.898   6.605
19218WAT      O57895   6.035   0.738   6.802
19218WAT     H157896   5.963   0.758   6.736
19218WAT     H257897   6.124   0.751   6.759
19219WAT      O57898   6.841   8.474   6.057
19219WAT     H157899   6.783   8.530   6.116
19219WAT     H257900   6.829   8.503   5.962
19220WAT      O57901   1.595   6.228   0.025
19220WAT     H157902   1.667   6.178   0.074
19220WAT     H257903   1.565   6.173  -0.053
19221WAT      O57904   2.667   5.356   9.277
19221WAT     H157905   2.605   5.363   9.355
19221WAT     H257906   2.622   5.390   9.195
19222WAT      O57907   2.838   3.436   0.985
19222WAT     H157908   2.775   3.500   1.029
19222WAT     H257909   2.932   3.456   1.014
19223WAT      O57910   5.623   9.661   1.064
19223WAT     H157911   5.533   9.619   1.076
19223WAT     H257912   5.625   9.714   0.979
19224WAT      O57913   9.382   9.396   3.963
19224WAT     H157914   9.308   9.435   4.018
19224WAT     H257915   9.357   9.304   3.933
19225WAT      O57916   9.163   8.642   0.273
19225WAT     H157917   9.098   8.713   0.300
19225WAT     H257918   9.219   8.675   0.197
19226WAT      O57919   6.814   4.726   5.401
19226WAT     H157920   6.725   4.752   5.438
19226WAT     H257921   6.805   4.642   5.348
19227WAT      O57922   8.698   1.025   8.384
19227WAT     H157923   8.668   1.047   8.291
19227WAT     H257924   8.640   0.953   8.422
19228WAT      O57925   1.385   8.673   6.905
19228WAT     H157926   1.415   8.738   6.975
19228WAT     H257927   1.452   8.600   6.896
19229WAT      O57928   4.757   2.402   5.911
19229WAT     H157929   4.807   2.344   5.975
19229WAT     H257930   4.772   2.498   5.934
19230WAT      O57931   6.531   4.364   0.502
19230WAT     H157932   6.454   4.322   0.549
19230WAT     H257933   6.616   4.343   0.551
19231WAT      O57934   9.806   5.458   1.750
19231WAT     H157935   9.784   5.514   1.830
19231WAT     H257936   9.886   5.402   1.771
19232WAT      O57937   4.628   6.469   3.315
19232WAT     H157938   4.543   6.491   3.267
19232WAT     H257939   4.612   6.391   3.376
19233WAT      O57940   3.273   3.035   9.881
19233WAT     H157941   3.292   2.940   9.906
19233WAT     H257942   3.267   3.043   9.782
19234WAT      O57943   5.856   5.272   2.497
19234WAT     H157944   5.934   5.297   2.554
19234WAT     H257945   5.820   5.184   2.527
19235WAT      O57946   4.832   9.485   1.585
19235WAT     H157947   4.824   9.549   1.661
19235WAT     H257948   4.924   9.491   1.545
19236WAT      O57949   7.291   9.171   4.203
19236WAT     H157950   7.254   9.100   4.264
19236WAT     H257951   7.365   9.131   4.148
19237WAT      O57952   5.294   0.441   0.145
19237WAT     H157953   5.213   0.385   0.126
19237WAT     H257954   5.317   0.494   0.063
19238WAT      O57955   4.535   6.437   1.597
19238WAT     H157956   4.534   6.439   1.497
19238WAT     H257957   4.583   6.354   1.628
19239WAT      O57958   3.255   9.532   0.845
19239WAT     H157959   3.258   9.434   0.825
19239WAT     H257960   3.345   9.571   0.828
19240WAT      O57961   2.963   9.217   8.303
19240WAT     H157962   2.971   9.251   8.396
19240WAT     H257963   2.998   9.124   8.298
19241WAT      O57964   0.528   1.844   8.441
19241WAT     H157965   0.508   1.935   8.404
19241WAT     H257966   0.627   1.831   8.445
19242WAT      O57967   8.844   7.250   9.798
19242WAT     H157968   8.895   7.333   9.819
19242WAT     H257969   8.851   7.186   9.875
19243WAT      O57970   6.587   9.066   6.861
19243WAT     H157971   6.572   8.991   6.925
19243WAT     H257972   6.616   9.030   6.772
19244WAT      O57973   5.970   4.347   3.298
19244WAT     H157974   5.966   4.296   3.213
19244WAT     H257975   6.038   4.307   3.359
19245WAT      O57976   9.770   4.032   9.145
19245WAT     H157977   9.718   4.117   9.139
19245WAT     H257978   9.716   3.964   9.194
19246WAT      O57979   4.654   9.809   2.780
19246WAT     H157980   4.625   9.720   2.747
19246WAT     H257981   4.734   9.799   2.839
19247WAT      O57982   7.122   3.429   5.555
19247WAT     H157983   7.032   3.429   5.511
19247WAT     H257984   7.193   3.442   5.485
19248WAT      O57985   0.673   2.762   4.105
19248WAT     H157986   0.583   2.797   4.133
19248WAT     H257987   0.725   2.733   4.185
19249WAT      O57988   9.070   2.903   3.820
19249WAT     H157989   9.132   2.892   3.742
19249WAT     H257990   9.118   2.949   3.895
19250WAT      O57991   3.135   2.430   6.388
19250WAT     H157992   3.038   2.440   6.368
19250WAT     H257993   3.148   2.355   6.452
19251WAT      O57994   9.145   0.587   1.964
19251WAT     H157995   9.060   0.598   1.912
19251WAT     H257996   9.129   0.529   2.043
19252WAT      O57997   2.495   5.089   2.654
19252WAT     H157998   2.396   5.097   2.651
19252WAT     H257999   2.521   5.006   2.705
19253WAT      O58000   8.028   8.538   1.752
19253WAT     H158001   8.036   8.637   1.748
19253WAT     H258002   8.043   8.499   1.661
19254WAT      O58003   1.712   7.853   6.766
19254WAT     H158004   1.677   7.947   6.763
19254WAT     H258005   1.771   7.837   6.687
19255WAT      O58006   9.244   9.507   4.161
19255WAT     H158007   9.305   9.587   4.164
19255WAT     H258008   9.184   9.509   4.241
19256WAT      O58009   9.475   6.609   8.605
19256WAT     H158010   9.512   6.668   8.533
19256WAT     H258011   9.376   6.602   8.595
19257WAT      O58012   9.879   5.931   9.708
19257WAT     H158013   9.884   5.916   9.609
19257WAT     H258014   9.787   5.962   9.732
19258WAT      O58015   8.711   3.133   6.067
19258WAT     H158016   8.750   3.170   5.983
19258WAT     H258017   8.662   3.048   6.046
19259WAT      O58018   5.790   1.427   9.738
19259WAT     H158019   5.803   1.330   9.759
19259WAT     H258020   5.799   1.441   9.639
19260WAT      O58021   2.721   0.853   4.355
19260WAT     H158022   2.763   0.802   4.280
19260WAT     H258023   2.700   0.946   4.325
19261WAT      O58024   4.093   2.679   7.436
19261WAT     H158025   4.137   2.760   7.397
19261WAT     H258026   3.994   2.691   7.436
19262WAT      O58027   6.708   6.711   5.196
19262WAT     H158028   6.732   6.671   5.108
19262WAT     H258029   6.658   6.644   5.250
19263WAT      O58030   8.060   3.117   4.048
19263WAT     H158031   8.013   3.068   3.975
19263WAT     H258032   7.994   3.174   4.098
19264WAT      O58033   6.246   3.546   7.175
19264WAT     H158034   6.333   3.497   7.177
19264WAT     H258035   6.171   3.479   7.169
19265WAT      O58036   5.725   1.712   8.345
19265WAT     H158037   5.806   1.697   8.402
19265WAT     H258038   5.642   1.697   8.400
19266WAT      O58039   5.212   4.034   6.678
19266WAT     H158040   5.205   4.133   6.671
19266WAT     H258041   5.230   4.008   6.773
19267WAT      O58042   9.607   3.216   0.197
19267WAT     H158043   9.628   3.126   0.235
19267WAT     H258044   9.568   3.206   0.105
19268WAT      O58045   7.846   8.188   7.951
19268WAT     H158046   7.921   8.254   7.942
19268WAT     H258047   7.837   8.161   8.047
19269WAT      O58048   0.646   3.493   2.630
19269WAT     H158049   0.714   3.498   2.703
19269WAT     H258050   0.555   3.485   2.670
19270WAT      O58051   7.100   3.507   2.589
19270WAT     H158052   7.104   3.523   2.490
19270WAT     H258053   7.004   3.503   2.618
19271WAT      O58054   4.157   3.401   0.427
19271WAT     H158055   4.130   3.349   0.508
19271WAT     H258056   4.205   3.341   0.364
19272WAT      O58057   3.349   2.591   4.762
19272WAT     H158058   3.271   2.554   4.813
19272WAT     H258059   3.430   2.537   4.783
19273WAT      O58060   1.476   3.538   6.809
19273WAT     H158061   1.551   3.524   6.745
19273WAT     H258062   1.408   3.465   6.797
19274WAT      O58063   5.167   3.711   0.668
19274WAT     H158064   5.156   3.790   0.729
19274WAT     H258065   5.155   3.627   0.719
19275WAT      O58066   4.868   7.362   0.237
19275WAT     H158067   4.916   7.282   0.272
19275WAT     H258068   4.861   7.431   0.310
19276WAT      O58069   6.103   4.289   4.143
19276WAT     H158070   6.044   4.349   4.196
19276WAT     H258071   6.103   4.198   4.183
19277WAT      O58072   3.171   8.182   9.405
19277WAT     H158073   3.202   8.137   9.490
19277WAT     H258074   3.249   8.195   9.344
19278WAT      O58075   3.051   6.738   6.263
19278WAT     H158076   2.957   6.727   6.295
19278WAT     H258077   3.106   6.780   6.334
19279WAT      O58078   2.171   0.167   3.377
19279WAT     H158079   2.203   0.258   3.403
19279WAT     H258080   2.168   0.160   3.278
19280WAT      O58081   4.541   6.886   2.934
19280WAT     H158082   4.459   6.883   2.876
19280WAT     H258083   4.620   6.853   2.882
19281WAT      O58084   0.224   9.615   3.777
19281WAT     H158085   0.269   9.546   3.719
19281WAT     H258086   0.150   9.571   3.829
19282WAT      O58087   3.427   2.764   8.360
19282WAT     H158088   3.405   2.711   8.277
19282WAT     H258089   3.461   2.702   8.431
19283WAT      O58090   5.030   9.476   4.847
19283WAT     H158091   5.102   9.523   4.897
19283WAT     H258092   5.054   9.472   4.750
19284WAT      O58093   5.057   9.647   1.928
19284WAT     H158094   5.085   9.578   1.994
19284WAT     H258095   5.114   9.640   1.846
19285WAT      O58096   4.014   2.436   1.858
19285WAT     H158097   4.043   2.340   1.854
19285WAT     H258098   3.938   2.450   1.794
19286WAT      O58099   7.426   7.944   5.419
19286WAT     H158100   7.355   8.006   5.451
19286WAT     H258101   7.393   7.893   5.340
19287WAT      O58102   0.849   0.945   7.062
19287WAT     H158103   0.809   1.027   7.103
19287WAT     H258104   0.943   0.965   7.035
19288WAT      O58105   6.526   6.822   3.046
19288WAT     H158106   6.556   6.742   3.098
19288WAT     H258107   6.571   6.822   2.956
19289WAT      O58108   3.163   8.669   6.092
19289WAT     H158109   3.214   8.748   6.127
19289WAT     H258110   3.099   8.699   6.022
19290WAT      O58111   3.606   4.123   1.452
19290WAT     H158112   3.521   4.149   1.499
19290WAT     H258113   3.681   4.181   1.484
19291WAT      O58114   5.951   4.582   1.590
19291WAT     H158115   5.974   4.539   1.503
19291WAT     H258116   5.857   4.558   1.616
19292WAT      O58117   6.427   0.379   1.297
19292WAT     H158118   6.407   0.354   1.202
19292WAT     H258119   6.340   0.388   1.347
19293WAT      O58120   6.505   3.219   1.093
19293WAT     H158121   6.596   3.259   1.084
19293WAT     H258122   6.488   3.158   1.015
19294WAT      O58123   8.830   3.505   4.586
19294WAT     H158124   8.750   3.445   4.593
19294WAT     H258125   8.906   3.454   4.546
19295WAT      O58126   7.615   8.455   3.376
19295WAT     H158127   7.604   8.533   3.438
19295WAT     H258128   7.713   8.433   3.369
19296WAT      O58129   3.696   4.420   0.707
19296WAT     H158130   3.660   4.401   0.616
19296WAT     H258131   3.732   4.335   0.746
19297WAT      O58132   2.923   4.645   0.573
19297WAT     H158133   2.938   4.572   0.507
19297WAT     H258134   3.004   4.652   0.633
19298WAT      O58135   7.237   8.745   2.461
19298WAT     H158136   7.168   8.800   2.414
19298WAT     H258137   7.219   8.648   2.445
19299WAT      O58138   8.177   3.812   9.166
19299WAT     H158139   8.247   3.875   9.131
19299WAT     H258140   8.195   3.720   9.132
19300WAT      O58141   7.187   5.211   8.068
19300WAT     H158142   7.282   5.214   8.100
19300WAT     H258143   7.154   5.117   8.070
19301WAT      O58144   2.257   4.961   8.681
19301WAT     H158145   2.162   4.975   8.655
19301WAT     H258146   2.310   5.043   8.661
19302WAT      O58147   4.777   3.541   8.500
19302WAT     H158148   4.754   3.624   8.549
19302WAT     H258149   4.791   3.466   8.565
19303WAT      O58150   5.835   3.250   1.222
19303WAT     H158151   5.838   3.297   1.134
19303WAT     H258152   5.743   3.255   1.260
19304WAT      O58153   2.813   6.293   6.429
19304WAT     H158154   2.721   6.319   6.399
19304WAT     H258155   2.866   6.261   6.351
19305WAT      O58156   3.660   0.274   5.841
19305WAT     H158157   3.702   0.183   5.849
19305WAT     H258158   3.702   0.323   5.765
19306WAT      O58159   2.032   0.664   6.883
19306WAT     H158160   1.986   0.592   6.936
19306WAT     H258161   1.969   0.740   6.868
19307WAT      O58162   4.496   6.009   2.942
19307WAT     H158163   4.437   6.088   2.925
19307WAT     H258164   4.502   5.992   3.041
19308WAT      O58165   1.269   4.214   3.635
19308WAT     H158166   1.202   4.233   3.563
19308WAT     H258167   1.246   4.267   3.716
19309WAT      O58168   6.946   9.825   7.763
19309WAT     H158169   6.900   9.908   7.794
19309WAT     H258170   6.942   9.756   7.835
19310WAT      O58171   1.756   0.466   4.136
19310WAT     H158172   1.800   0.555   4.140
19310WAT     H258173   1.800   0.404   4.200
19311WAT      O58174   2.311   8.785   7.687
19311WAT     H158175   2.406   8.767   7.711
19311WAT     H258176   2.261   8.817   7.767
19312WAT      O58177   8.490   1.570   5.481
19312WAT     H158178   8.569   1.550   5.538
19312WAT     H258179   8.407   1.570   5.536
19313WAT      O58180   1.052   8.631   4.421
19313WAT     H158181   1.019   8.540   4.395
19313WAT     H258182   1.130   8.621   4.483
19314WAT      O58183   4.781   6.220   4.827
19314WAT     H158184   4.704   6.181   4.776
19314WAT     H258185   4.825   6.149   4.881
19315WAT      O58186   5.469   2.499   9.016
19315WAT     H158187   5.555   2.530   9.057
19315WAT     H258188   5.415   2.579   8.990
19316WAT      O58189   3.257   9.019   8.377
19316WAT     H158190   3.186   9.021   8.448
19316WAT     H258191   3.251   8.932   8.327
19317WAT      O58192   2.819   0.912   3.965
19317WAT     H158193   2.892   0.948   4.022
19317WAT     H258194   2.740   0.974   3.969
19318WAT      O58195   7.390   6.078   0.653
19318WAT     H158196   7.300   6.038   0.644
19318WAT     H258197   7.405   6.107   0.747
19319WAT      O58198   6.529   8.222   6.504
19319WAT     H158199   6.571   8.251   6.418
19319WAT     H258200   6.440   8.181   6.486
19320WAT      O58201   0.143   3.331   2.494
19320WAT     H158202   0.216   3.370   2.437
19320WAT     H258203   0.155   3.363   2.588
19321WAT      O58204   6.496   3.556   5.325
19321WAT     H158205   6.518   3.497   5.403
19321WAT     H258206   6.577   3.565   5.266
19322WAT      O58207   8.223   1.250   6.004
19322WAT     H158208   8.222   1.166   5.950
19322WAT     H258209   8.261   1.324   5.949
19323WAT      O58210   2.161   6.569   5.572
19323WAT     H158211   2.152   6.471   5.592
19323WAT     H258212   2.073   6.604   5.538
19324WAT      O58213   8.089   4.833   9.640
19324WAT     H158214   8.122   4.833   9.735
19324WAT     H258215   8.123   4.751   9.593
19325WAT      O58216   4.060   0.865   4.162
19325WAT     H158217   4.156   0.866   4.189
19325WAT     H258218   4.034   0.955   4.126
19326WAT      O58219   0.074   2.932   3.124
19326WAT     H158220   0.135   2.997   3.080
19326WAT     H258221  -0.014   2.931   3.077
19327WAT      O58222   8.029   8.081   6.848
19327WAT     H158223   8.115   8.088   6.898
19327WAT     H258224   7.960   8.139   6.890
19328WAT      O58225   8.464   0.630   7.398
19328WAT     H158226   8.455   0.651   7.301
19328WAT     H258227   8.378   0.590   7.432
19329WAT      O58228   6.559   2.713   7.905
19329WAT     H158229   6.544   2.628   7.956
19329WAT     H258230   6.633   2.700   7.839
19330WAT      O58231   0.342   5.389   5.198
19330WAT     H158232   0.328   5.465   5.135
19330WAT     H258233   0.335   5.422   5.292
19331WAT      O58234   0.362   5.788   4.652
19331WAT     H158235   0.288   5.746   4.705
19331WAT     H258236   0.355   5.888   4.658
19332WAT      O58237   7.686   6.988   1.073
19332WAT     H158238   7.709   6.939   1.157
19332WAT     H258239   7.752   6.964   1.002
19333WAT      O58240   4.089   5.427   6.698
19333WAT     H158241   4.137   5.514   6.690
19333WAT     H258242   4.134   5.370   6.767
19334WAT      O58243   5.630   1.889   3.275
19334WAT     H158244   5.699   1.890   3.203
19334WAT     H258245   5.546   1.848   3.240
19335WAT      O58246   0.703   8.014   0.839
19335WAT     H158247   0.612   7.978   0.822
19335WAT     H258248   0.711   8.106   0.803
19336WAT      O58249   7.549   0.357   4.375
19336WAT     H158250   7.507   0.431   4.427
19336WAT     H258251   7.507   0.352   4.284
19337WAT      O58252   7.429   4.714   3.840
19337WAT     H158253   7.377   4.628   3.841
19337WAT     H258254   7.386   4.780   3.902
19338WAT      O58255   8.774   9.042   1.160
19338WAT     H158256   8.766   9.014   1.064
19338WAT     H258257   8.845   8.987   1.205
19339WAT      O58258   8.270   2.515   7.411
19339WAT     H158259   8.227   2.524   7.321
19339WAT     H258260   8.370   2.513   7.401
19340WAT      O58261   0.933   2.929   5.549
19340WAT     H158262   1.022   2.886   5.538
19340WAT     H258263   0.945   3.025   5.574
19341WAT      O58264   5.493   7.499   0.662
19341WAT     H158265   5.425   7.449   0.609
19341WAT     H258266   5.471   7.490   0.760
19342WAT      O58267   5.018   5.395   9.112
19342WAT     H158268   5.064   5.344   9.039
19342WAT     H258269   5.037   5.351   9.200
19343WAT      O58270   3.448   7.565   0.269
19343WAT     H158271   3.542   7.546   0.238
19343WAT     H258272   3.383   7.538   0.198
19344WAT      O58273   4.511   8.252   4.817
19344WAT     H158274   4.506   8.313   4.738
19344WAT     H258275   4.604   8.253   4.853
19345WAT      O58276   4.708   2.732   3.552
19345WAT     H158277   4.618   2.689   3.560
19345WAT     H258278   4.699   2.820   3.507
19346WAT      O58279   4.403   1.653   6.170
19346WAT     H158280   4.387   1.752   6.178
19346WAT     H258281   4.330   1.604   6.217
19347WAT      O58282   4.731   1.516   2.605
19347WAT     H158283   4.829   1.533   2.610
19347WAT     H258284   4.689   1.579   2.539
19348WAT      O58285   0.913   3.036   4.510
19348WAT     H158286   0.966   2.976   4.570
19348WAT     H258287   0.822   3.051   4.549
19349WAT      O58288   5.411   2.943   4.920
19349WAT     H158289   5.507   2.924   4.900
19349WAT     H258290   5.392   3.040   4.905
19350WAT      O58291   1.806   8.049   1.543
19350WAT     H158292   1.782   8.035   1.639
19350WAT     H258293   1.734   8.012   1.485
19351WAT      O58294   2.515   6.692   9.060
19351WAT     H158295   2.558   6.668   8.973
19351WAT     H258296   2.569   6.761   9.106
19352WAT      O58297   0.696   9.329   4.884
19352WAT     H158298   0.673   9.346   4.980
19352WAT     H258299   0.623   9.364   4.826
19353WAT      O58300   4.262   8.477   6.801
19353WAT     H158301   4.163   8.467   6.812
19353WAT     H258302   4.285   8.476   6.704
19354WAT      O58303   3.042   8.983   4.929
19354WAT     H158304   3.049   9.066   4.874
19354WAT     H258305   2.947   8.968   4.956
19355WAT      O58306   9.473   6.716   0.875
19355WAT     H158307   9.505   6.637   0.927
19355WAT     H258308   9.552   6.768   0.842
19356WAT      O58309   2.610   7.240   4.743
19356WAT     H158310   2.610   7.143   4.769
19356WAT     H258311   2.675   7.290   4.800
19357WAT      O58312   4.270   7.045   6.920
19357WAT     H158313   4.217   7.036   7.004
19357WAT     H258314   4.214   7.014   6.842
19358WAT      O58315   5.503   6.509   9.309
19358WAT     H158316   5.476   6.421   9.348
19358WAT     H258317   5.473   6.583   9.369
19359WAT      O58318   3.705   2.782   8.625
19359WAT     H158319   3.702   2.762   8.527
19359WAT     H258320   3.676   2.877   8.641
19360WAT      O58321   8.875   3.469   1.484
19360WAT     H158322   8.830   3.554   1.510
19360WAT     H258323   8.823   3.424   1.411
19361WAT      O58324   4.201   4.143   8.749
19361WAT     H158325   4.298   4.125   8.732
19361WAT     H258326   4.147   4.063   8.723
19362WAT      O58327   9.010   7.744   3.771
19362WAT     H158328   8.929   7.705   3.815
19362WAT     H258329   9.089   7.685   3.788
19363WAT      O58330   2.904   6.554   5.588
19363WAT     H158331   2.958   6.631   5.553
19363WAT     H258332   2.895   6.562   5.687
19364WAT      O58333   7.940   5.306   4.151
19364WAT     H158334   7.949   5.207   4.138
19364WAT     H258335   7.907   5.324   4.244
19365WAT      O58336   9.043   6.904   0.368
19365WAT     H158337   9.097   6.983   0.338
19365WAT     H258338   9.089   6.859   0.444
19366WAT      O58339   3.091   4.232   2.719
19366WAT     H158340   3.116   4.228   2.622
19366WAT     H258341   3.174   4.246   2.774
19367WAT      O58342   0.295   9.564   5.070
19367WAT     H158343   0.263   9.486   5.122
19367WAT     H258344   0.238   9.644   5.089
19368WAT      O58345   0.561   7.537   3.829
19368WAT     H158346   0.568   7.589   3.743
19368WAT     H258347   0.641   7.556   3.885
19369WAT      O58348   5.024   4.207   1.565
19369WAT     H158349   4.942   4.238   1.612
19369WAT     H258350   5.034   4.108   1.578
19370WAT      O58351   2.118   6.627   7.193
19370WAT     H158352   2.078   6.535   7.183
19370WAT     H258353   2.178   6.629   7.273
19371WAT      O58354   2.265   1.465   4.731
19371WAT     H158355   2.253   1.372   4.767
19371WAT     H258356   2.256   1.464   4.632
19372WAT      O58357   0.716   6.174   6.011
19372WAT     H158358   0.690   6.257   5.962
19372WAT     H258359   0.704   6.095   5.950
19373WAT      O58360   5.726   1.858   2.053
19373WAT     H158361   5.716   1.774   2.106
19373WAT     H258362   5.636   1.897   2.034
19374WAT      O58363   4.489   6.386   7.342
19374WAT     H158364   4.517   6.415   7.434
19374WAT     H258365   4.443   6.462   7.296
19375WAT      O58366   0.403   5.587   3.733
19375WAT     H158367   0.335   5.569   3.663
19375WAT     H258368   0.437   5.681   3.723
19376WAT      O58369   3.266   8.213   0.844
19376WAT     H158370   3.263   8.296   0.900
19376WAT     H258371   3.176   8.171   0.841
19377WAT      O58372   0.208   8.180   0.998
19377WAT     H158373   0.127   8.130   1.029
19377WAT     H258374   0.204   8.274   1.032
19378WAT      O58375   3.615   0.145   3.289
19378WAT     H158376   3.675   0.225   3.280
19378WAT     H258377   3.609   0.118   3.385
19379WAT      O58378   5.112   4.015   8.437
19379WAT     H158379   5.096   3.986   8.531
19379WAT     H258380   5.204   4.052   8.428
19380WAT      O58381   4.092   0.677   3.088
19380WAT     H158382   4.090   0.653   2.991
19380WAT     H258383   4.031   0.615   3.138
19381WAT      O58384   6.263   5.813   8.280
19381WAT     H158385   6.269   5.714   8.266
19381WAT     H258386   6.346   5.845   8.326
19382WAT      O58387   1.367   1.465   1.060
19382WAT     H158388   1.365   1.392   1.128
19382WAT     H258389   1.357   1.425   0.968
19383WAT      O58390   5.463   5.644   7.019
19383WAT     H158391   5.403   5.717   7.050
19383WAT     H258392   5.500   5.595   7.098
19384WAT      O58393   7.021   6.378   2.260
19384WAT     H158394   7.089   6.451   2.269
19384WAT     H258395   6.931   6.412   2.287
19385WAT      O58396   4.011   2.508   0.608
19385WAT     H158397   4.111   2.501   0.613
19385WAT     H258398   3.986   2.546   0.519
19386WAT      O58399   3.426   6.843   7.454
19386WAT     H158400   3.452   6.759   7.406
19386WAT     H258401   3.508   6.895   7.477
19387WAT      O58402   4.234   6.907   2.974
19387WAT     H158403   4.139   6.933   2.953
19387WAT     H258404   4.287   6.990   2.995
19388WAT      O58405   8.982   0.099   5.662
19388WAT     H158406   9.047   0.110   5.737
19388WAT     H258407   8.922   0.020   5.681
19389WAT      O58408   7.276   5.129   8.349
19389WAT     H158409   7.340   5.125   8.273
19389WAT     H258410   7.316   5.184   8.423
19390WAT      O58411   6.184   5.968   4.556
19390WAT     H158412   6.196   5.913   4.473
19390WAT     H258413   6.263   6.029   4.567
19391WAT      O58414   7.229   6.021   3.976
19391WAT     H158415   7.295   5.957   3.936
19391WAT     H258416   7.148   5.971   4.005
19392WAT      O58417   8.345   0.911   5.288
19392WAT     H158418   8.281   0.961   5.346
19392WAT     H258419   8.312   0.910   5.194
19393WAT      O58420   2.059   6.256   3.703
19393WAT     H158421   1.979   6.220   3.656
19393WAT     H258422   2.056   6.356   3.704
19394WAT      O58423   4.696   5.525   9.854
19394WAT     H158424   4.777   5.555   9.803
19394WAT     H258425   4.692   5.573   9.941
19395WAT      O58426   8.175   4.311   5.632
19395WAT     H158427   8.259   4.332   5.682
19395WAT     H258428   8.096   4.329   5.691
19396WAT      O58429   9.674   0.086   0.204
19396WAT     H158430   9.582   0.127   0.200
19396WAT     H258431   9.705   0.083   0.299
19397WAT      O58432   0.294   0.661   8.866
19397WAT     H158433   0.223   0.590   8.864
19397WAT     H258434   0.364   0.635   8.933
19398WAT      O58435   2.688   8.516   8.584
19398WAT     H158436   2.715   8.494   8.677
19398WAT     H258437   2.591   8.540   8.582
19399WAT      O58438   1.162   0.617   2.668
19399WAT     H158439   1.224   0.607   2.590
19399WAT     H258440   1.175   0.540   2.730
19400WAT      O58441   1.377   2.542   8.210
19400WAT     H158442   1.366   2.463   8.151
19400WAT     H258443   1.372   2.513   8.306
19401WAT      O58444   3.429   2.065   6.199
19401WAT     H158445   3.426   2.042   6.297
19401WAT     H258446   3.484   2.148   6.186
19402WAT      O58447   5.785   4.101   4.904
19402WAT     H158448   5.810   4.117   4.808
19402WAT     H258449   5.814   4.010   4.931
19403WAT      O58450   8.862   7.581   9.521
19403WAT     H158451   8.891   7.568   9.615
19403WAT     H258452   8.762   7.585   9.517
19404WAT      O58453   8.794   5.862   3.117
19404WAT     H158454   8.893   5.847   3.115
19404WAT     H258455   8.758   5.838   3.207
19405WAT      O58456   7.555   9.539   6.589
19405WAT     H158457   7.614   9.503   6.661
19405WAT     H258458   7.524   9.630   6.613
19406WAT      O58459   5.206   5.604   9.403
19406WAT     H158460   5.115   5.647   9.399
19406WAT     H258461   5.205   5.530   9.470
19407WAT      O58462   0.054   6.232   6.637
19407WAT     H158463   0.041   6.186   6.725
19407WAT     H258464  -0.035   6.249   6.595
19408WAT      O58465   0.943   1.175   6.832
19408WAT     H158466   0.921   1.129   6.746
19408WAT     H258467   1.016   1.125   6.878
19409WAT      O58468   5.500   9.340   1.199
19409WAT     H158469   5.471   9.322   1.293
19409WAT     H258470   5.600   9.337   1.193
19410WAT      O58471   5.707   6.547   4.169
19410WAT     H158472   5.701   6.604   4.087
19410WAT     H258473   5.764   6.468   4.151
19411WAT      O58474   1.015   7.462   7.747
19411WAT     H158475   1.086   7.429   7.809
19411WAT     H258476   1.057   7.505   7.668
19412WAT      O58477   5.014   7.765   4.670
19412WAT     H158478   4.932   7.792   4.720
19412WAT     H258479   5.035   7.669   4.691
19413WAT      O58480   1.040   2.090   3.355
19413WAT     H158481   0.971   2.075   3.426
19413WAT     H258482   1.119   2.031   3.373
19414WAT      O58483   3.704   0.393   2.298
19414WAT     H158484   3.748   0.321   2.352
19414WAT     H258485   3.651   0.351   2.225
19415WAT      O58486   6.945   6.337   3.828
19415WAT     H158487   7.009   6.306   3.898
19415WAT     H258488   6.898   6.259   3.789
19416WAT      O58489   8.470   6.669   5.409
19416WAT     H158490   8.510   6.709   5.491
19416WAT     H258491   8.489   6.571   5.407
19417WAT      O58492   3.198   2.584   3.671
19417WAT     H158493   3.136   2.507   3.657
19417WAT     H258494   3.290   2.557   3.644
19418WAT      O58495   2.093   4.771   8.930
19418WAT     H158496   2.166   4.716   8.887
19418WAT     H258497   2.092   4.862   8.890
19419WAT      O58498   9.285   0.646   1.595
19419WAT     H158499   9.334   0.696   1.523
19419WAT     H258500   9.198   0.692   1.613
19420WAT      O58501   5.055   0.233   8.689
19420WAT     H158502   5.066   0.255   8.786
19420WAT     H258503   5.064   0.135   8.675
19421WAT      O58504   8.100   5.374   3.017
19421WAT     H158505   8.144   5.293   2.980
19421WAT     H258506   8.092   5.444   2.947
19422WAT      O58507   9.759   2.349   9.492
19422WAT     H158508   9.770   2.250   9.490
19422WAT     H258509   9.667   2.373   9.461
19423WAT      O58510   1.701   9.236   8.861
19423WAT     H158511   1.677   9.144   8.830
19423WAT     H258512   1.699   9.239   8.961
19424WAT      O58513   3.915   7.331   1.910
19424WAT     H158514   3.861   7.284   1.840
19424WAT     H258515   3.984   7.269   1.946
19425WAT      O58516   8.036   5.343   8.629
19425WAT     H158517   7.949   5.310   8.666
19425WAT     H258518   8.083   5.268   8.582
19426WAT      O58519   6.577   7.808   4.299
19426WAT     H158520   6.616   7.827   4.209
19426WAT     H258521   6.477   7.807   4.292
19427WAT      O58522   4.680   3.182   0.871
19427WAT     H158523   4.626   3.106   0.834
19427WAT     H258524   4.618   3.249   0.912
19428WAT      O58525   2.469   2.731   4.676
19428WAT     H158526   2.469   2.711   4.578
19428WAT     H258527   2.375   2.736   4.709
19429WAT      O58528   5.538   6.369   4.931
19429WAT     H158529   5.539   6.434   4.855
19429WAT     H258530   5.444   6.343   4.951
19430WAT      O58531   1.910   9.790   5.815
19430WAT     H158532   1.836   9.728   5.788
19430WAT     H258533   1.874   9.883   5.824
19431WAT      O58534   4.332   7.699   4.645
19431WAT     H158535   4.258   7.765   4.630
19431WAT     H258536   4.359   7.702   4.741
19432WAT      O58537   2.624   2.186   9.411
19432WAT     H158538   2.527   2.199   9.430
19432WAT     H258539   2.643   2.088   9.399
19433WAT      O58540   7.119   6.187   7.266
19433WAT     H158541   7.064   6.111   7.300
19433WAT     H258542   7.063   6.270   7.263
19434WAT      O58543   5.469   0.029   4.373
19434WAT     H158544   5.553  -0.018   4.345
19434WAT     H258545   5.417  -0.029   4.435
19435WAT      O58546   8.860   2.572   4.031
19435WAT     H158547   8.826   2.646   3.972
19435WAT     H258548   8.817   2.486   4.004
19436WAT      O58549   4.788   9.601   1.186
19436WAT     H158550   4.741   9.543   1.252
19436WAT     H258551   4.781   9.697   1.216
19437WAT      O58552   4.822   8.242   3.120
19437WAT     H158553   4.784   8.215   3.208
19437WAT     H258554   4.901   8.301   3.134
19438WAT      O58555   6.992   6.751   3.812
19438WAT     H158556   6.920   6.740   3.880
19438WAT     H258557   6.959   6.718   3.723
19439WAT      O58558   5.310   7.080   4.459
19439WAT     H158559   5.310   7.139   4.539
19439WAT     H258560   5.378   7.112   4.393
19440WAT      O58561   1.633   7.684   1.079
19440WAT     H158562   1.598   7.590   1.085
19440WAT     H258563   1.610   7.723   0.990
19441WAT      O58564   6.402   3.828   5.350
19441WAT     H158565   6.432   3.732   5.357
19441WAT     H258566   6.414   3.872   5.438
19442WAT      O58567   1.306   8.590   3.192
19442WAT     H158568   1.309   8.688   3.173
19442WAT     H258569   1.385   8.546   3.149
19443WAT      O58570   6.074   0.758   3.382
19443WAT     H158571   6.018   0.786   3.460
19443WAT     H258572   6.079   0.658   3.379
19444WAT      O58573   4.729   4.090   8.772
19444WAT     H158574   4.737   4.013   8.710
19444WAT     H258575   4.720   4.056   8.866
19445WAT      O58576   2.324   9.645   3.189
19445WAT     H158577   2.239   9.669   3.142
19445WAT     H258578   2.379   9.584   3.133
19446WAT      O58579   9.017   2.900   8.328
19446WAT     H158580   9.092   2.845   8.291
19446WAT     H258581   8.930   2.857   8.306
19447WAT      O58582   9.502   8.964   4.271
19447WAT     H158583   9.530   9.055   4.238
19447WAT     H258584   9.409   8.968   4.306
19448WAT      O58585   7.162   8.813   3.756
19448WAT     H158586   7.065   8.802   3.736
19448WAT     H258587   7.173   8.847   3.849
19449WAT      O58588   8.828   6.936   4.799
19449WAT     H158589   8.854   6.918   4.894
19449WAT     H258590   8.909   6.965   4.748
19450WAT      O58591   9.368   9.152   0.189
19450WAT     H158592   9.389   9.142   0.092
19450WAT     H258593   9.309   9.077   0.219
19451WAT      O58594   8.939   1.085   0.475
19451WAT     H158595   8.853   1.036   0.465
19451WAT     H258596   8.981   1.061   0.562
19452WAT      O58597   3.044   6.220   9.133
19452WAT     H158598   3.103   6.178   9.065
19452WAT     H258599   2.953   6.179   9.128
19453WAT      O58600   0.967   3.791   2.572
19453WAT     H158601   0.875   3.775   2.538
19453WAT     H258602   0.966   3.863   2.641
19454WAT      O58603   7.141   9.164   2.649
19454WAT     H158604   7.133   9.198   2.742
19454WAT     H258605   7.188   9.076   2.649
19455WAT      O58606   0.814   8.391   7.154
19455WAT     H158607   0.816   8.448   7.236
19455WAT     H258608   0.800   8.449   7.074
19456WAT      O58609   0.830   3.617   8.023
19456WAT     H158610   0.760   3.679   7.986
19456WAT     H258611   0.894   3.669   8.080
19457WAT      O58612   8.204   7.766   7.314
19457WAT     H158613   8.202   7.737   7.218
19457WAT     H258614   8.215   7.686   7.373
19458WAT      O58615   7.920   7.619   4.700
19458WAT     H158616   7.890   7.524   4.707
19458WAT     H258617   7.841   7.677   4.677
19459WAT      O58618   9.377   4.064   7.125
19459WAT     H158619   9.407   3.969   7.129
19459WAT     H258620   9.307   4.073   7.054
19460WAT      O58621   2.610   9.497   0.549
19460WAT     H158622   2.635   9.427   0.483
19460WAT     H258623   2.525   9.471   0.594
19461WAT      O58624   5.352   0.873   4.400
19461WAT     H158625   5.304   0.961   4.409
19461WAT     H258626   5.443   0.880   4.440
19462WAT      O58627   1.422   2.624   9.198
19462WAT     H158628   1.489   2.611   9.272
19462WAT     H258629   1.427   2.547   9.135
19463WAT      O58630   6.963   4.325   7.002
19463WAT     H158631   6.994   4.385   6.929
19463WAT     H258632   6.878   4.361   7.041
19464WAT      O58633   9.138   0.419   1.448
19464WAT     H158634   9.142   0.485   1.373
19464WAT     H258635   9.199   0.450   1.522
19465WAT      O58636   8.861   2.474   9.476
19465WAT     H158637   8.816   2.563   9.475
19465WAT     H258638   8.920   2.467   9.556
19466WAT      O58639   3.038   1.861   6.791
19466WAT     H158640   3.127   1.904   6.806
19466WAT     H258641   2.988   1.913   6.722
19467WAT      O58642   4.899   9.261   9.411
19467WAT     H158643   4.914   9.227   9.318
19467WAT     H258644   4.903   9.184   9.476
19468WAT      O58645   2.830   2.277   4.573
19468WAT     H158646   2.776   2.330   4.640
19468WAT     H258647   2.919   2.255   4.612
19469WAT      O58648   3.687   6.551   2.980
19469WAT     H158649   3.620   6.485   3.012
19469WAT     H258650   3.778   6.525   3.011
19470WAT      O58651   4.563   1.367   5.242
19470WAT     H158652   4.509   1.321   5.312
19470WAT     H258653   4.636   1.420   5.286
19471WAT      O58654   9.841   4.073   4.899
19471WAT     H158655   9.858   4.164   4.937
19471WAT     H258656   9.925   4.019   4.903
19472WAT      O58657   0.682   1.014   2.117
19472WAT     H158658   0.653   1.073   2.041
19472WAT     H258659   0.779   1.029   2.136
19473WAT      O58660   6.454   7.391   7.635
19473WAT     H158661   6.446   7.292   7.632
19473WAT     H258662   6.500   7.418   7.720
19474WAT      O58663   7.604   5.473   3.198
19474WAT     H158664   7.588   5.425   3.284
19474WAT     H258665   7.548   5.556   3.195
19475WAT      O58666   8.831   6.109   2.576
19475WAT     H158667   8.787   6.053   2.647
19475WAT     H258668   8.764   6.130   2.504
19476WAT      O58669   2.603   6.286   3.684
19476WAT     H158670   2.646   6.300   3.595
19476WAT     H258671   2.640   6.203   3.726
19477WAT      O58672   4.785   8.958   4.765
19477WAT     H158673   4.686   8.973   4.755
19477WAT     H258674   4.804   8.860   4.763
19478WAT      O58675   0.171   1.928   4.764
19478WAT     H158676   0.139   1.912   4.858
19478WAT     H258677   0.126   2.010   4.728
19479WAT      O58678   1.975   8.659   1.892
19479WAT     H158679   1.955   8.569   1.931
19479WAT     H258680   2.055   8.697   1.937
19480WAT      O58681   6.792   8.168   0.520
19480WAT     H158682   6.768   8.077   0.489
19480WAT     H258683   6.848   8.161   0.603
19481WAT      O58684   8.756   9.270   5.583
19481WAT     H158685   8.805   9.184   5.572
19481WAT     H258686   8.747   9.315   5.494
19482WAT      O58687   6.541   8.174   3.541
19482WAT     H158688   6.483   8.092   3.540
19482WAT     H258689   6.637   8.147   3.533
19483WAT      O58690   6.233   3.345   9.650
19483WAT     H158691   6.134   3.356   9.662
19483WAT     H258692   6.264   3.404   9.575
19484WAT      O58693   2.767   0.902   6.414
19484WAT     H158694   2.687   0.852   6.450
19484WAT     H258695   2.839   0.837   6.391
19485WAT      O58696   9.093   2.352   8.838
19485WAT     H158697   9.125   2.325   8.929
19485WAT     H258698   9.061   2.271   8.789
19486WAT      O58699   7.615   0.054   4.924
19486WAT     H158700   7.621   0.054   5.024
19486WAT     H258701   7.595  -0.039   4.893
19487WAT      O58702   8.045   6.123   0.678
19487WAT     H158703   7.968   6.156   0.733
19487WAT     H258704   8.012   6.094   0.588
19488WAT      O58705   7.667   1.270   6.535
19488WAT     H158706   7.756   1.298   6.500
19488WAT     H258707   7.630   1.343   6.593
19489WAT      O58708   4.895   8.868   5.058
19489WAT     H158709   4.908   8.967   5.049
19489WAT     H258710   4.975   8.821   5.022
19490WAT      O58711   4.803   6.913   3.293
19490WAT     H158712   4.742   6.864   3.231
19490WAT     H258713   4.753   6.939   3.375
19491WAT      O58714   4.219   9.704   6.807
19491WAT     H158715   4.222   9.713   6.906
19491WAT     H258716   4.124   9.710   6.776
19492WAT      O58717   1.712   2.933   8.215
19492WAT     H158718   1.747   2.976   8.131
19492WAT     H258719   1.632   2.983   8.246
19493WAT      O58720   7.827   3.036   2.141
19493WAT     H158721   7.868   3.123   2.114
19493WAT     H258722   7.745   3.019   2.086
19494WAT      O58723   0.152   4.656   2.681
19494WAT     H158724   0.230   4.614   2.727
19494WAT     H258725   0.081   4.587   2.665
19495WAT      O58726   2.403   2.294   1.962
19495WAT     H158727   2.326   2.355   1.946
19495WAT     H258728   2.481   2.346   1.996
19496WAT      O58729   6.345   5.591   6.329
19496WAT     H158730   6.352   5.616   6.425
19496WAT     H258731   6.305   5.667   6.277
19497WAT      O58732   9.413   2.030   0.254
19497WAT     H158733   9.343   2.046   0.323
19497WAT     H258734   9.369   2.011   0.166
19498WAT      O58735   5.123   4.571   6.476
19498WAT     H158736   5.093   4.569   6.381
19498WAT     H258737   5.063   4.513   6.532
19499WAT      O58738   8.031   6.395   8.722
19499WAT     H158739   8.010   6.400   8.820
19499WAT     H258740   8.112   6.450   8.703
19500WAT      O58741   4.171   4.196   2.844
19500WAT     H158742   4.216   4.136   2.910
19500WAT     H258743   4.181   4.291   2.874
19501WAT      O58744   6.203   5.663   7.126
19501WAT     H158745   6.273   5.702   7.185
19501WAT     H258746   6.114   5.702   7.149
19502WAT      O58747   5.280   3.288   3.606
19502WAT     H158748   5.307   3.248   3.693
19502WAT     H258749   5.277   3.217   3.536
19503WAT      O58750   3.264   3.395   9.052
19503WAT     H158751   3.352   3.347   9.054
19503WAT     H258752   3.218   3.385   9.140
19504WAT      O58753   1.795   0.084   4.139
19504WAT     H158754   1.847   0.004   4.170
19504WAT     H258755   1.810   0.098   4.041
19505WAT      O58756   5.187   1.946   3.306
19505WAT     H158757   5.254   1.943   3.232
19505WAT     H258758   5.235   1.946   3.394
19506WAT      O58759   9.883   1.121   1.081
19506WAT     H158760   9.837   1.041   1.042
19506WAT     H258761   9.859   1.128   1.178
19507WAT      O58762   3.875   2.092   6.645
19507WAT     H158763   3.867   2.018   6.578
19507WAT     H258764   3.959   2.080   6.699
19508WAT      O58765   0.522   9.555   7.431
19508WAT     H158766   0.494   9.573   7.337
19508WAT     H258767   0.465   9.607   7.494
19509WAT      O58768   3.638   5.878   0.043
19509WAT     H158769   3.692   5.813  -0.010
19509WAT     H258770   3.578   5.929  -0.019
19510WAT      O58771   7.094   0.068   6.835
19510WAT     H158772   7.156   0.008   6.786
19510WAT     H258773   7.089   0.156   6.788
19511WAT      O58774   4.399   4.969   3.268
19511WAT     H158775   4.378   4.881   3.310
19511WAT     H258776   4.453   4.954   3.185
19512WAT      O58777   4.460   8.939   3.085
19512WAT     H158778   4.506   8.851   3.073
19512WAT     H258779   4.528   9.008   3.110
19513WAT      O58780   9.106   2.400   7.182
19513WAT     H158781   9.080   2.423   7.088
19513WAT     H258782   9.145   2.480   7.227
19514WAT      O58783   2.934   9.600   1.933
19514WAT     H158784   3.017   9.563   1.892
19514WAT     H258785   2.854   9.566   1.882
19515WAT      O58786   1.604   4.320   2.690
19515WAT     H158787   1.545   4.283   2.762
19515WAT     H258788   1.690   4.351   2.730
19516WAT      O58789   1.788   8.072   8.770
19516WAT     H158790   1.767   8.119   8.856
19516WAT     H258791   1.761   8.129   8.693
19517WAT      O58792   4.188   3.319   8.168
19517WAT     H158793   4.133   3.260   8.226
19517WAT     H258794   4.137   3.343   8.086
19518WAT      O58795   4.817   1.234   8.117
19518WAT     H158796   4.756   1.170   8.072
19518WAT     H258797   4.863   1.188   8.193
19519WAT      O58798   2.200   1.877   3.423
19519WAT     H158799   2.109   1.879   3.382
19519WAT     H258800   2.205   1.945   3.496
19520WAT      O58801   5.882   5.533   0.653
19520WAT     H158802   5.943   5.600   0.694
19520WAT     H258803   5.825   5.577   0.583
19521WAT      O58804   2.746   2.876   8.834
19521WAT     H158805   2.684   2.949   8.861
19521WAT     H258806   2.813   2.861   8.906
19522WAT      O58807   5.099   5.499   8.322
19522WAT     H158808   5.149   5.557   8.258
19522WAT     H258809   5.160   5.429   8.359
19523WAT      O58810   0.057   7.401   1.820
19523WAT     H158811   0.142   7.390   1.768
19523WAT     H258812  -0.020   7.403   1.756
19524WAT      O58813   4.509   6.377   4.938
19524WAT     H158814   4.602   6.411   4.949
19524WAT     H258815   4.509   6.298   4.876
19525WAT      O58816   1.278   2.759   1.777
19525WAT     H158817   1.287   2.686   1.846
19525WAT     H258818   1.184   2.795   1.780
19526WAT      O58819   0.385   7.510   7.297
19526WAT     H158820   0.369   7.608   7.309
19526WAT     H258821   0.296   7.463   7.290
19527WAT      O58822   2.394   3.834   6.823
19527WAT     H158823   2.418   3.853   6.728
19527WAT     H258824   2.300   3.801   6.828
19528WAT      O58825   6.996   2.774   5.437
19528WAT     H158826   6.992   2.764   5.537
19528WAT     H258827   7.078   2.729   5.403
19529WAT      O58828   2.309   3.959   3.125
19529WAT     H158829   2.395   3.966   3.075
19529WAT     H258830   2.300   3.867   3.163
19530WAT      O58831   4.712   4.766   0.141
19530WAT     H158832   4.626   4.796   0.099
19530WAT     H258833   4.710   4.667   0.154
19531WAT      O58834   6.996   8.627   4.087
19531WAT     H158835   6.902   8.636   4.121
19531WAT     H258836   7.010   8.535   4.051
19532WAT      O58837   4.537   2.302   8.877
19532WAT     H158838   4.611   2.248   8.836
19532WAT     H258839   4.528   2.278   8.974
19533WAT      O58840   7.783   9.249   5.175
19533WAT     H158841   7.811   9.324   5.115
19533WAT     H258842   7.742   9.176   5.120
19534WAT      O58843   7.534   5.216   5.050
19534WAT     H158844   7.541   5.287   4.980
19534WAT     H258845   7.607   5.149   5.037
19535WAT      O58846   5.247   0.892   3.257
19535WAT     H158847   5.149   0.899   3.275
19535WAT     H258848   5.265   0.915   3.161
19536WAT      O58849   5.466   1.965   2.294
19536WAT     H158850   5.535   2.029   2.261
19536WAT     H258851   5.403   2.012   2.356
19537WAT      O58852   6.919   6.546   0.212
19537WAT     H158853   6.891   6.595   0.129
19537WAT     H258854   7.001   6.492   0.194
19538WAT      O58855   6.193   2.749   2.145
19538WAT     H158856   6.239   2.667   2.178
19538WAT     H258857   6.160   2.803   2.223
19539WAT      O58858   4.522   7.855   9.545
19539WAT     H158859   4.508   7.804   9.630
19539WAT     H258860   4.435   7.892   9.514
19540WAT      O58861   0.022   3.019   8.880
19540WAT     H158862  -0.032   2.939   8.853
19540WAT     H258863   0.090   2.992   8.948
19541WAT      O58864   1.997   8.449   3.565
19541WAT     H158865   1.935   8.432   3.642
19541WAT     H258866   1.981   8.542   3.530
19542WAT      O58867   8.984   5.129   0.441
19542WAT     H158868   8.918   5.192   0.482
19542WAT     H258869   8.961   5.035   0.465
19543WAT      O58870   9.483   1.388   6.357
19543WAT     H158871   9.432   1.468   6.388
19543WAT     H258872   9.465   1.373   6.260
19544WAT      O58873   2.740   5.791   0.240
19544WAT     H158874   2.769   5.845   0.161
19544WAT     H258875   2.799   5.811   0.318
19545WAT      O58876   1.907   8.233   7.703
19545WAT     H158877   1.933   8.318   7.748
19545WAT     H258878   1.821   8.246   7.655
19546WAT      O58879   2.075   9.710   3.056
19546WAT     H158880   2.010   9.674   3.122
19546WAT     H258881   2.065   9.661   2.969
19547WAT      O58882   8.551   5.992   4.554
19547WAT     H158883   8.640   5.994   4.600
19547WAT     H258884   8.508   6.082   4.560
19548WAT      O58885   3.144   7.820   5.787
19548WAT     H158886   3.179   7.835   5.695
19548WAT     H258887   3.094   7.902   5.818
19549WAT      O58888   9.067   0.423   7.677
19549WAT     H158889   9.117   0.375   7.605
19549WAT     H258890   9.071   0.369   7.762
19550WAT      O58891   5.853   7.556   7.021
19550WAT     H158892   5.812   7.537   7.110
19550WAT     H258893   5.932   7.616   7.033
19551WAT      O58894   5.466   9.139   1.708
19551WAT     H158895   5.392   9.135   1.641
19551WAT     H258896   5.532   9.208   1.680
19552WAT      O58897   9.582   2.761   1.374
19552WAT     H158898   9.627   2.792   1.458
19552WAT     H258899   9.611   2.818   1.298
19553WAT      O58900   5.667   2.973   2.361
19553WAT     H158901   5.731   3.018   2.423
19553WAT     H258902   5.597   3.038   2.331
19554WAT      O58903   7.497   8.803   6.398
19554WAT     H158904   7.570   8.792   6.465
19554WAT     H258905   7.429   8.868   6.434
19555WAT      O58906   0.761   5.790   4.094
19555WAT     H158907   0.743   5.710   4.036
19555WAT     H258908   0.844   5.835   4.062
19556WAT      O58909   6.340   3.886   2.603
19556WAT     H158910   6.295   3.933   2.528
19556WAT     H258911   6.273   3.832   2.654
19557WAT      O58912   6.456   4.518   5.072
19557WAT     H158913   6.441   4.616   5.058
19557WAT     H258914   6.447   4.470   4.985
19558WAT      O58915   7.559   5.430   1.439
19558WAT     H158916   7.590   5.447   1.345
19558WAT     H258917   7.459   5.427   1.440
19559WAT      O58918   3.011   7.352   7.956
19559WAT     H158919   3.044   7.277   8.013
19559WAT     H258920   3.049   7.342   7.864
19560WAT      O58921   1.744   0.501   8.775
19560WAT     H158922   1.827   0.457   8.809
19560WAT     H258923   1.730   0.587   8.824
19561WAT      O58924   1.321   5.350   2.316
19561WAT     H158925   1.275   5.275   2.270
19561WAT     H258926   1.385   5.394   2.253
19562WAT      O58927   0.167   4.215   2.579
19562WAT     H158928   0.084   4.212   2.634
19562WAT     H258929   0.145   4.245   2.486
19563WAT      O58930   4.816   1.765   2.239
19563WAT     H158931   4.721   1.791   2.219
19563WAT     H258932   4.831   1.771   2.338
19564WAT      O58933   5.365   4.140   8.424
19564WAT     H158934   5.399   4.220   8.473
19564WAT     H258935   5.415   4.131   8.337
19565WAT      O58936   0.272   3.355   5.158
19565WAT     H158937   0.291   3.332   5.062
19565WAT     H258938   0.199   3.423   5.162
19566WAT      O58939   2.122   3.772   6.370
19566WAT     H158940   2.099   3.698   6.307
19566WAT     H258941   2.056   3.847   6.359
19567WAT      O58942   9.186   6.644   4.649
19567WAT     H158943   9.219   6.555   4.616
19567WAT     H258944   9.089   6.636   4.674
19568WAT      O58945   4.892   7.299   2.548
19568WAT     H158946   4.827   7.262   2.482
19568WAT     H258947   4.863   7.275   2.641
19569WAT      O58948   9.010   5.290   7.415
19569WAT     H158949   9.029   5.210   7.471
19569WAT     H258950   9.076   5.296   7.340
19570WAT      O58951   0.875   9.503   8.202
19570WAT     H158952   0.802   9.571   8.198
19570WAT     H258953   0.961   9.548   8.224
19571WAT      O58954   2.544   6.287   2.815
19571WAT     H158955   2.457   6.311   2.771
19571WAT     H258956   2.530   6.279   2.914
19572WAT      O58957   4.076   9.485   6.660
19572WAT     H158958   4.024   9.568   6.643
19572WAT     H258959   4.139   9.499   6.736
19573WAT      O58960   6.779   3.311   1.408
19573WAT     H158961   6.815   3.220   1.387
19573WAT     H258962   6.693   3.302   1.459
19574WAT      O58963   6.103   2.548   9.496
19574WAT     H158964   6.095   2.448   9.505
19574WAT     H258965   6.011   2.588   9.489
19575WAT      O58966   5.194   9.281   3.066
19575WAT     H158967   5.161   9.217   2.996
19575WAT     H258968   5.203   9.233   3.153
19576WAT      O58969   1.851   8.594   0.408
19576WAT     H158970   1.814   8.651   0.335
19576WAT     H258971   1.933   8.637   0.445
19577WAT      O58972   5.577   6.285   2.468
19577WAT     H158973   5.498   6.346   2.478
19577WAT     H258974   5.547   6.197   2.433
19578WAT      O58975   8.388   2.556   8.799
19578WAT     H158976   8.310   2.501   8.769
19578WAT     H258977   8.458   2.557   8.728
19579WAT      O58978   8.290   9.153   0.602
19579WAT     H158979   8.382   9.144   0.564
19579WAT     H258980   8.276   9.247   0.634
19580WAT      O58981   3.526   2.182   5.111
19580WAT     H158982   3.429   2.204   5.103
19580WAT     H258983   3.563   2.224   5.193
19581WAT      O58984   4.655   1.045   7.536
19581WAT     H158985   4.683   0.981   7.464
19581WAT     H258986   4.622   1.129   7.495
19582WAT      O58987   9.594   0.723   4.916
19582WAT     H158988   9.530   0.655   4.880
19582WAT     H258989   9.672   0.676   4.958
19583WAT      O58990   8.224   6.356   4.046
19583WAT     H158991   8.282   6.405   4.112
19583WAT     H258992   8.140   6.328   4.091
19584WAT      O58993   5.370   4.308   2.526
19584WAT     H158994   5.449   4.360   2.556
19584WAT     H258995   5.289   4.337   2.579
19585WAT      O58996   7.131   7.597   9.661
19585WAT     H158997   7.170   7.594   9.569
19585WAT     H258998   7.033   7.576   9.657
19586WAT      O58999   8.220   3.453   0.201
19586WAT     H159000   8.133   3.454   0.250
19586WAT     H259001   8.253   3.359   0.194
19587WAT      O59002   6.909   3.825   2.671
19587WAT     H159003   6.866   3.888   2.736
19587WAT     H259004   6.875   3.732   2.689
19588WAT      O59005   7.482   1.791   2.152
19588WAT     H159006   7.579   1.768   2.154
19588WAT     H259007   7.468   1.876   2.203
19589WAT      O59008   4.751   3.293   8.599
19589WAT     H159009   4.762   3.244   8.513
19589WAT     H259010   4.654   3.296   8.624
19590WAT      O59011   9.642   8.440   2.051
19590WAT     H159012   9.624   8.380   1.974
19590WAT     H259013   9.740   8.461   2.055
19591WAT      O59014   7.985   7.175   0.964
19591WAT     H159015   8.008   7.079   0.981
19591WAT     H259016   7.990   7.226   1.049
19592WAT      O59017   2.846   0.079   6.421
19592WAT     H159018   2.873   0.105   6.328
19592WAT     H259019   2.926   0.048   6.472
19593WAT      O59020   7.984   7.606   5.474
19593WAT     H159021   7.897   7.585   5.429
19593WAT     H259022   8.000   7.538   5.546
19594WAT      O59023   9.776   2.369   4.344
19594WAT     H159024   9.699   2.305   4.341
19594WAT     H259025   9.844   2.337   4.410
19595WAT      O59026   3.695   9.619   4.135
19595WAT     H159027   3.766   9.559   4.100
19595WAT     H259028   3.728   9.714   4.137
19596WAT      O59029   9.819   3.638   5.362
19596WAT     H159030   9.856   3.576   5.293
19596WAT     H259031   9.786   3.585   5.440
19597WAT      O59032   4.418   5.597   9.480
19597WAT     H159033   4.335   5.551   9.511
19597WAT     H259034   4.468   5.537   9.418
19598WAT      O59035   6.457   5.800   4.584
19598WAT     H159036   6.469   5.853   4.500
19598WAT     H259037   6.382   5.734   4.571
19599WAT      O59038   4.781   4.338   9.127
19599WAT     H159039   4.817   4.412   9.185
19599WAT     H259040   4.683   4.326   9.145
19600WAT      O59041   8.779   8.951   3.856
19600WAT     H159042   8.869   8.988   3.882
19600WAT     H259043   8.741   8.900   3.932
19601WAT      O59044   8.232   0.557   7.510
19601WAT     H159045   8.187   0.471   7.488
19601WAT     H259046   8.191   0.596   7.592
19602WAT      O59047   5.891   9.038   0.790
19602WAT     H159048   5.946   9.119   0.807
19602WAT     H259049   5.811   9.063   0.735
19603WAT      O59050   2.088   7.898   6.829
19603WAT     H159051   2.097   7.930   6.924
19603WAT     H259052   2.161   7.834   6.808
19604WAT      O59053   1.178   3.776   7.009
19604WAT     H159054   1.190   3.731   7.097
19604WAT     H259055   1.239   3.855   7.004
19605WAT      O59056   9.316   6.979   6.871
19605WAT     H159057   9.352   6.981   6.778
19605WAT     H259058   9.265   7.063   6.889
19606WAT      O59059   1.251   0.890   6.198
19606WAT     H159060   1.250   0.961   6.127
19606WAT     H259061   1.285   0.928   6.283
19607WAT      O59062   4.595   8.079   5.226
19607WAT     H159063   4.535   8.152   5.193
19607WAT     H259064   4.565   8.049   5.316
19608WAT      O59065   6.693   3.885   3.792
19608WAT     H159066   6.638   3.967   3.808
19608WAT     H259067   6.760   3.903   3.720
19609WAT      O59068   4.755   4.591   0.445
19609WAT     H159069   4.746   4.531   0.365
19609WAT     H259070   4.789   4.680   0.415
19610WAT      O59071   9.294   0.812   6.051
19610WAT     H159072   9.254   0.755   6.122
19610WAT     H259073   9.387   0.780   6.030
19611WAT      O59074   1.453   9.536   2.100
19611WAT     H159075   1.482   9.602   2.031
19611WAT     H259076   1.533   9.497   2.144
19612WAT      O59077   5.527   5.149   7.988
19612WAT     H159078   5.502   5.070   7.932
19612WAT     H259079   5.618   5.181   7.962
19613WAT      O59080   1.588   6.158   8.505
19613WAT     H159081   1.666   6.214   8.478
19613WAT     H259082   1.621   6.074   8.549
19614WAT      O59083   1.983   6.219   5.112
19614WAT     H159084   2.040   6.139   5.132
19614WAT     H259085   1.927   6.199   5.031
19615WAT      O59086   3.292   8.985   6.153
19615WAT     H159087   3.355   8.984   6.230
19615WAT     H259088   3.338   9.023   6.073
19616WAT      O59089   4.346   6.992   8.593
19616WAT     H159090   4.294   7.026   8.516
19616WAT     H259091   4.360   6.893   8.583
19617WAT      O59092   5.228   3.290   9.451
19617WAT     H159093   5.325   3.306   9.432
19617WAT     H259094   5.173   3.324   9.376
19618WAT      O59095   4.120   2.339   5.360
19618WAT     H159096   4.117   2.308   5.456
19618WAT     H259097   4.100   2.436   5.356
19619WAT      O59098   6.405   7.764   5.301
19619WAT     H159099   6.368   7.856   5.287
19619WAT     H259100   6.337   7.707   5.347
19620WAT      O59101   8.717   5.524   5.591
19620WAT     H159102   8.660   5.482   5.521
19620WAT     H259103   8.783   5.586   5.548
19621WAT      O59104   0.310   4.500   9.357
19621WAT     H159105   0.227   4.554   9.364
19621WAT     H259106   0.302   4.437   9.280
19622WAT      O59107   2.929   4.037   0.947
19622WAT     H159108   3.013   4.057   0.998
19622WAT     H259109   2.917   3.938   0.941
19623WAT      O59110   4.491   0.439   2.663
19623WAT     H159111   4.493   0.340   2.648
19623WAT     H259112   4.445   0.459   2.749
19624WAT      O59113   8.655   1.602   2.213
19624WAT     H159114   8.639   1.517   2.163
19624WAT     H259115   8.570   1.629   2.260
19625WAT      O59116   2.769   9.061   6.846
19625WAT     H159117   2.780   9.106   6.758
19625WAT     H259118   2.687   9.096   6.891
19626WAT      O59119   6.920   9.629   1.161
19626WAT     H159120   6.954   9.693   1.092
19626WAT     H259121   6.942   9.535   1.133
19627WAT      O59122   3.466   7.288   4.991
19627WAT     H159123   3.442   7.223   4.919
19627WAT     H259124   3.515   7.240   5.064
19628WAT      O59125   4.799   4.316   1.731
19628WAT     H159126   4.725   4.255   1.759
19628WAT     H259127   4.862   4.330   1.808
19629WAT      O59128   7.983   3.840   6.542
19629WAT     H159129   8.035   3.817   6.624
19629WAT     H259130   7.887   3.812   6.554
19630WAT      O59131   6.914   3.462   8.243
19630WAT     H159132   6.902   3.486   8.146
19630WAT     H259133   6.999   3.504   8.276
19631WAT      O59134   7.630   6.992   6.030
19631WAT     H159135   7.648   6.949   6.118
19631WAT     H259136   7.568   7.070   6.043
19632WAT      O59137   5.981   7.982   8.464
19632WAT     H159138   5.907   7.921   8.435
19632WAT     H259139   5.948   8.077   8.461
19633WAT      O59140   4.375   2.714   1.591
19633WAT     H159141   4.293   2.717   1.647
19633WAT     H259142   4.434   2.792   1.614
19634WAT      O59143   0.970   5.011   2.007
19634WAT     H159144   0.910   5.044   1.934
19634WAT     H259145   1.024   4.934   1.973
19635WAT      O59146   6.873   6.459   6.365
19635WAT     H159147   6.849   6.520   6.290
19635WAT     H259148   6.849   6.365   6.341
19636WAT      O59149   3.976   5.673   1.795
19636WAT     H159150   3.913   5.739   1.837
19636WAT     H259151   3.958   5.582   1.831
19637WAT      O59152   1.186   4.406   5.652
19637WAT     H159153   1.125   4.327   5.656
19637WAT     H259154   1.200   4.443   5.744
19638WAT      O59155   0.732   3.035   7.180
19638WAT     H159156   0.688   3.099   7.243
19638WAT     H259157   0.824   3.014   7.213
19639WAT      O59158   0.994   9.079   4.635
19639WAT     H159159   1.035   9.155   4.584
19639WAT     H259160   1.001   9.098   4.733
19640WAT      O59161   1.859   5.696   6.323
19640WAT     H159162   1.819   5.637   6.393
19640WAT     H259163   1.818   5.674   6.234
19641WAT      O59164   7.584   7.436   3.481
19641WAT     H159165   7.667   7.395   3.520
19641WAT     H259166   7.504   7.384   3.512
19642WAT      O59167   7.506   6.558   1.412
19642WAT     H159168   7.548   6.521   1.329
19642WAT     H259169   7.489   6.655   1.401
19643WAT      O59170   5.879   3.491   9.073
19643WAT     H159171   5.944   3.564   9.092
19643WAT     H259172   5.860   3.487   8.975
19644WAT      O59173   5.564   0.892   7.600
19644WAT     H159174   5.469   0.922   7.603
19644WAT     H259175   5.615   0.935   7.675
19645WAT      O59176   8.291   8.006   4.421
19645WAT     H159177   8.342   8.075   4.473
19645WAT     H259178   8.193   8.015   4.442
19646WAT      O59179   1.169   1.803   2.083
19646WAT     H159180   1.132   1.710   2.095
19646WAT     H259181   1.103   1.859   2.034
19647WAT      O59182   6.571   5.580   9.372
19647WAT     H159183   6.576   5.493   9.421
19647WAT     H259184   6.565   5.655   9.438
19648WAT      O59185   5.849   0.516   6.213
19648WAT     H159186   5.808   0.576   6.145
19648WAT     H259187   5.898   0.571   6.281
19649WAT      O59188   3.433   6.283   0.590
19649WAT     H159189   3.398   6.317   0.502
19649WAT     H259190   3.446   6.184   0.584
19650WAT      O59191   9.025   3.196   2.368
19650WAT     H159192   9.020   3.294   2.384
19650WAT     H259193   9.049   3.150   2.454
19651WAT      O59194   5.661   2.442   8.630
19651WAT     H159195   5.637   2.431   8.534
19651WAT     H259196   5.749   2.397   8.647
19652WAT      O59197   9.661   3.177   8.857
19652WAT     H159198   9.644   3.264   8.904
19652WAT     H259199   9.744   3.135   8.895
19653WAT      O59200   1.330   8.634   5.169
19653WAT     H159201   1.417   8.586   5.162
19653WAT     H259202   1.346   8.732   5.179
19654WAT      O59203   7.374   0.917   0.511
19654WAT     H159204   7.391   0.900   0.608
19654WAT     H259205   7.434   0.991   0.479
19655WAT      O59206   6.689   8.429   3.423
19655WAT     H159207   6.718   8.334   3.435
19655WAT     H259208   6.631   8.456   3.499
19656WAT      O59209   8.979   8.659   4.995
19656WAT     H159210   9.058   8.712   4.964
19656WAT     H259211   8.958   8.588   4.928
19657WAT      O59212   1.437   9.503   5.412
19657WAT     H159213   1.461   9.457   5.497
19657WAT     H259214   1.341   9.485   5.391
19658WAT      O59215   6.709   5.550   1.847
19658WAT     H159216   6.791   5.607   1.853
19658WAT     H259217   6.641   5.582   1.913
19659WAT      O59218   7.720   9.558   5.106
19659WAT     H159219   7.756   9.508   5.027
19659WAT     H259220   7.795   9.606   5.151
19660WAT      O59221   6.300   0.318   8.455
19660WAT     H159222   6.273   0.346   8.547
19660WAT     H259223   6.390   0.355   8.434
19661WAT      O59224   1.559   6.158   6.443
19661WAT     H159225   1.605   6.069   6.441
19661WAT     H259226   1.537   6.185   6.349
19662WAT      O59227   0.883   3.566   2.255
19662WAT     H159228   0.809   3.514   2.213
19662WAT     H259229   0.969   3.516   2.244
19663WAT      O59230   4.485   3.703   5.947
19663WAT     H159231   4.538   3.644   6.008
19663WAT     H259232   4.418   3.648   5.897
19664WAT      O59233   6.949   5.473   0.628
19664WAT     H159234   6.997   5.490   0.541
19664WAT     H259235   6.851   5.478   0.613
19665WAT      O59236   9.169   1.021   1.058
19665WAT     H159237   9.141   1.028   1.154
19665WAT     H259238   9.264   1.052   1.049
19666WAT      O59239   4.128   0.727   3.482
19666WAT     H159240   4.178   0.747   3.567
19666WAT     H259241   4.160   0.641   3.444
19667WAT      O59242   6.461   7.296   8.611
19667WAT     H159243   6.394   7.230   8.575
19667WAT     H259244   6.553   7.259   8.598
19668WAT      O59245   7.175   6.347   2.605
19668WAT     H159246   7.159   6.281   2.678
19668WAT     H259247   7.172   6.440   2.641
19669WAT      O59248   6.798   0.387   5.142
19669WAT     H159249   6.729   0.374   5.212
19669WAT     H259250   6.886   0.351   5.174
19670WAT      O59251   2.546   2.731   9.423
19670WAT     H159252   2.510   2.797   9.358
19670WAT     H259253   2.500   2.741   9.511
19671WAT      O59254   6.572   1.320   7.729
19671WAT     H159255   6.668   1.294   7.745
19671WAT     H259256   6.532   1.260   7.661
19672WAT      O59257   2.116   0.949   3.621
19672WAT     H159258   2.183   0.915   3.555
19672WAT     H259259   2.160   1.011   3.686
19673WAT      O59260   0.157   6.547   1.113
19673WAT     H159261   0.222   6.611   1.072
19673WAT     H259262   0.206   6.472   1.156
19674WAT      O59263   4.002   6.730   5.135
19674WAT     H159264   3.935   6.698   5.201
19674WAT     H259265   3.967   6.812   5.089
19675WAT      O59266   1.679   0.595   9.406
19675WAT     H159267   1.615   0.643   9.346
19675WAT     H259268   1.760   0.566   9.354
19676WAT      O59269   8.929   8.313   8.619
19676WAT     H159270   9.027   8.317   8.639
19676WAT     H259271   8.915   8.285   8.524
19677WAT      O59272   9.285   5.295   1.378
19677WAT     H159273   9.226   5.223   1.415
19677WAT     H259274   9.239   5.383   1.387
19678WAT      O59275   7.606   6.644   8.252
19678WAT     H159276   7.677   6.640   8.323
19678WAT     H259277   7.647   6.627   8.163
19679WAT      O59278   8.640   4.703   0.831
19679WAT     H159279   8.735   4.673   0.826
19679WAT     H259280   8.580   4.624   0.840
19680WAT      O59281   0.257   6.469   3.100
19680WAT     H159282   0.225   6.501   3.190
19680WAT     H259283   0.342   6.516   3.076
19681WAT      O59284   3.979   1.543   6.093
19681WAT     H159285   4.022   1.631   6.108
19681WAT     H259286   3.960   1.499   6.181
19682WAT      O59287   2.220   7.316   7.245
19682WAT     H159288   2.280   7.394   7.231
19682WAT     H259289   2.204   7.269   7.158
19683WAT      O59290   9.340   2.982   3.425
19683WAT     H159291   9.283   2.919   3.371
19683WAT     H259292   9.432   2.945   3.433
19684WAT      O59293   0.719   5.079   8.898
19684WAT     H159294   0.752   5.014   8.829
19684WAT     H259295   0.797   5.115   8.950
19685WAT      O59296   3.868   1.304   0.560
19685WAT     H159297   3.924   1.387   0.563
19685WAT     H259298   3.773   1.328   0.578
19686WAT      O59299   5.252   6.363   8.304
19686WAT     H159300   5.246   6.266   8.279
19686WAT     H259301   5.255   6.419   8.222
19687WAT      O59302   2.118   6.856   7.061
19687WAT     H159303   2.112   6.767   7.106
19687WAT     H259304   2.111   6.844   6.962
19688WAT      O59305   1.862   7.417   0.187
19688WAT     H159306   1.899   7.482   0.253
19688WAT     H259307   1.910   7.330   0.196
19689WAT      O59308   4.356   1.083   7.304
19689WAT     H159309   4.274   1.099   7.249
19689WAT     H259310   4.355   1.144   7.383
19690WAT      O59311   9.169   3.481   9.246
19690WAT     H159312   9.159   3.465   9.148
19690WAT     H259313   9.177   3.394   9.294
19691WAT      O59314   0.224   6.551   9.665
19691WAT     H159315   0.264   6.581   9.579
19691WAT     H259316   0.180   6.629   9.710
19692WAT      O59317   7.751   9.339   0.603
19692WAT     H159318   7.671   9.391   0.574
19692WAT     H259319   7.760   9.257   0.547
19693WAT      O59320   3.478   9.249   1.827
19693WAT     H159321   3.560   9.215   1.781
19693WAT     H259322   3.413   9.174   1.839
19694WAT      O59323   6.188   3.026   2.651
19694WAT     H159324   6.261   2.963   2.624
19694WAT     H259325   6.209   3.064   2.741
19695WAT      O59326   2.504   8.705   9.794
19695WAT     H159327   2.563   8.652   9.855
19695WAT     H259328   2.437   8.644   9.752
19696WAT      O59329   9.481   8.232   6.361
19696WAT     H159330   9.567   8.259   6.317
19696WAT     H259331   9.499   8.162   6.430
19697WAT      O59332   7.797   9.182   4.777
19697WAT     H159333   7.842   9.151   4.862
19697WAT     H259334   7.747   9.106   4.737
19698WAT      O59335   2.435   8.299   4.267
19698WAT     H159336   2.338   8.299   4.246
19698WAT     H259337   2.452   8.248   4.352
19699WAT      O59338   8.646   0.287   8.368
19699WAT     H159339   8.661   0.379   8.404
19699WAT     H259340   8.633   0.291   8.269
19700WAT      O59341   2.238   8.629   4.300
19700WAT     H159342   2.324   8.580   4.287
19700WAT     H259343   2.162   8.568   4.279
19701WAT      O59344   6.327   0.617   0.863
19701WAT     H159345   6.392   0.621   0.940
19701WAT     H259346   6.264   0.694   0.869
19702WAT      O59347   3.445   0.181   5.260
19702WAT     H159348   3.370   0.239   5.228
19702WAT     H259349   3.474   0.212   5.351
19703WAT      O59350   4.804   5.832   3.083
19703WAT     H159351   4.738   5.764   3.116
19703WAT     H259352   4.797   5.915   3.138
19704WAT      O59353   5.663   4.590   5.828
19704WAT     H159354   5.603   4.662   5.862
19704WAT     H259355   5.716   4.552   5.905
19705WAT      O59356   1.079   9.472   4.801
19705WAT     H159357   1.140   9.479   4.723
19705WAT     H259358   0.996   9.526   4.785
19706WAT      O59359   6.175   6.445   5.239
19706WAT     H159360   6.135   6.368   5.190
19706WAT     H259361   6.155   6.437   5.336
19707WAT      O59362   1.462   6.243   3.187
19707WAT     H159363   1.444   6.145   3.175
19707WAT     H259364   1.392   6.283   3.246
19708WAT      O59365   6.447   0.708   6.489
19708WAT     H159366   6.542   0.679   6.491
19708WAT     H259367   6.402   0.679   6.574
19709WAT      O59368   5.192   1.208   9.563
19709WAT     H159369   5.232   1.191   9.473
19709WAT     H259370   5.143   1.295   9.562
19710WAT      O59371   2.474   1.517   3.489
19710WAT     H159372   2.451   1.522   3.587
19710WAT     H259373   2.493   1.422   3.465
19711WAT      O59374   3.663   8.643   0.056
19711WAT     H159375   3.605   8.573   0.098
19711WAT     H259376   3.640   8.653  -0.040
19712WAT      O59377   6.330   2.135   7.460
19712WAT     H159378   6.311   2.224   7.417
19712WAT     H259379   6.243   2.089   7.479
19713WAT      O59380   2.662   2.690   6.138
19713WAT     H159381   2.689   2.678   6.234
19713WAT     H259382   2.700   2.776   6.103
19714WAT      O59383   5.808   5.063   9.017
19714WAT     H159384   5.764   5.034   8.932
19714WAT     H259385   5.851   4.984   9.060
19715WAT      O59386   5.126   8.898   7.187
19715WAT     H159387   5.218   8.861   7.199
19715WAT     H259388   5.065   8.826   7.155
19716WAT      O59389   6.626   6.849   7.477
19716WAT     H159390   6.544   6.791   7.482
19716WAT     H259391   6.704   6.793   7.450
19717WAT      O59392   5.397   3.922   1.604
19717WAT     H159393   5.446   3.898   1.688
19717WAT     H259394   5.438   4.004   1.565
19718WAT      O59395   9.821   7.326   0.839
19718WAT     H159396   9.853   7.323   0.744
19718WAT     H259397   9.877   7.264   0.895
19719WAT      O59398   8.292   2.455   2.670
19719WAT     H159399   8.219   2.503   2.718
19719WAT     H259400   8.377   2.506   2.677
19720WAT      O59401   6.477   3.664   4.653
19720WAT     H159402   6.441   3.696   4.740
19720WAT     H259403   6.574   3.640   4.664
19721WAT      O59404   3.625   6.037   0.797
19721WAT     H159405   3.717   6.018   0.828
19721WAT     H259406   3.628   6.079   0.706
19722WAT      O59407   4.601   7.080   7.170
19722WAT     H159408   4.643   7.122   7.249
19722WAT     H259409   4.637   7.121   7.086
19723WAT      O59410   5.874   9.221   1.206
19723WAT     H159411   5.857   9.298   1.145
19723WAT     H259412   5.855   9.248   1.300
19724WAT      O59413   5.525   0.702   7.316
19724WAT     H159414   5.488   0.790   7.344
19724WAT     H259415   5.516   0.692   7.217
19725WAT      O59416   1.723   2.025   3.784
19725WAT     H159417   1.773   2.084   3.848
19725WAT     H259418   1.677   2.082   3.715
19726WAT      O59419   1.221   2.994   2.053
19726WAT     H159420   1.277   3.022   1.975
19726WAT     H259421   1.278   2.986   2.135
19727WAT      O59422   0.530   6.066   7.455
19727WAT     H159423   0.483   6.115   7.529
19727WAT     H259424   0.629   6.071   7.469
19728WAT      O59425   5.426   0.490   5.455
19728WAT     H159426   5.382   0.402   5.474
19728WAT     H259427   5.377   0.563   5.503
19729WAT      O59428   8.037   6.434   2.061
19729WAT     H159429   8.066   6.528   2.082
19729WAT     H259430   7.973   6.402   2.132
19730WAT      O59431   5.893   0.153   3.181
19730WAT     H159432   5.889   0.207   3.265
19730WAT     H259433   5.832   0.192   3.113
19731WAT      O59434   0.626   9.317   0.180
19731WAT     H159435   0.631   9.293   0.277
19731WAT     H259436   0.608   9.415   0.172
19732WAT      O59437   5.719   0.914   7.010
19732WAT     H159438   5.715   0.984   7.081
19732WAT     H259439   5.728   0.958   6.920
19733WAT      O59440   3.402   8.143   4.127
19733WAT     H159441   3.352   8.061   4.100
19733WAT     H259442   3.343   8.202   4.182
19734WAT      O59443   3.775   0.721   8.804
19734WAT     H159444   3.727   0.656   8.745
19734WAT     H259445   3.749   0.705   8.899
19735WAT      O59446   6.810   0.221   0.857
19735WAT     H159447   6.739   0.259   0.917
19735WAT     H259448   6.770   0.154   0.795
19736WAT      O59449   2.269   3.439   1.203
19736WAT     H159450   2.323   3.377   1.259
19736WAT     H259451   2.172   3.431   1.227
19737WAT      O59452   1.387   2.188   1.812
19737WAT     H159453   1.429   2.227   1.730
19737WAT     H259454   1.448   2.118   1.850
19738WAT      O59455   3.747   4.143   3.132
19738WAT     H159456   3.836   4.145   3.085
19738WAT     H259457   3.762   4.147   3.231
19739WAT      O59458   1.158   2.481   0.598
19739WAT     H159459   1.158   2.475   0.698
19739WAT     H259460   1.113   2.566   0.570
19740WAT      O59461   3.243   9.198   3.709
19740WAT     H159462   3.343   9.192   3.697
19740WAT     H259463   3.218   9.156   3.796
19741WAT      O59464   3.168   5.256   1.592
19741WAT     H159465   3.212   5.167   1.606
19741WAT     H259466   3.102   5.272   1.665
19742WAT      O59467   2.457   8.059   0.647
19742WAT     H159468   2.514   7.983   0.615
19742WAT     H259469   2.508   8.111   0.716
19743WAT      O59470   2.485   5.626   3.525
19743WAT     H159471   2.518   5.673   3.443
19743WAT     H259472   2.550   5.641   3.600
19744WAT      O59473   1.316   5.543   5.600
19744WAT     H159474   1.297   5.611   5.529
19744WAT     H259475   1.351   5.588   5.682
19745WAT      O59476   9.841   7.322   9.415
19745WAT     H159477   9.862   7.330   9.318
19745WAT     H259478   9.854   7.411   9.459
19746WAT      O59479   7.154   2.147   0.379
19746WAT     H159480   7.077   2.087   0.402
19746WAT     H259481   7.216   2.153   0.457
19747WAT      O59482   1.127   5.368   5.737
19747WAT     H159483   1.057   5.323   5.681
19747WAT     H259484   1.161   5.450   5.690
19748WAT      O59485   1.930   8.061   1.981
19748WAT     H159486   1.914   7.976   2.031
19748WAT     H259487   2.022   8.059   1.940
19749WAT      O59488   0.641   4.985   0.179
19749WAT     H159489   0.614   4.890   0.198
19749WAT     H259490   0.702   5.017   0.251
19750WAT      O59491   2.422   2.916   4.332
19750WAT     H159492   2.467   2.870   4.255
19750WAT     H259493   2.492   2.953   4.393
19751WAT      O59494   0.628   6.634   0.073
19751WAT     H159495   0.630   6.535   0.088
19751WAT     H259496   0.599   6.654  -0.020
19752WAT      O59497   7.562   6.594   8.700
19752WAT     H159498   7.488   6.534   8.669
19752WAT     H259499   7.525   6.667   8.757
19753WAT      O59500   8.937   7.244   5.563
19753WAT     H159501   8.878   7.164   5.562
19753WAT     H259502   8.992   7.244   5.647
19754WAT      O59503   1.451   8.577   4.552
19754WAT     H159504   1.535   8.537   4.514
19754WAT     H259505   1.465   8.675   4.567
19755WAT      O59506   5.547   3.749   6.382
19755WAT     H159507   5.521   3.773   6.289
19755WAT     H259508   5.496   3.805   6.447
19756WAT      O59509   7.435   4.022   9.499
19756WAT     H159510   7.368   4.096   9.500
19756WAT     H259511   7.416   3.960   9.422
19757WAT      O59512   7.520   0.171   3.988
19757WAT     H159513   7.618   0.184   3.968
19757WAT     H259514   7.507   0.081   4.031
19758WAT      O59515   7.648   4.013   2.600
19758WAT     H159516   7.712   3.947   2.561
19758WAT     H259517   7.570   3.965   2.639
19759WAT      O59518   3.153   4.482   5.404
19759WAT     H159519   3.107   4.398   5.433
19759WAT     H259520   3.095   4.531   5.339
19760WAT      O59521   3.263   0.629   0.596
19760WAT     H159522   3.169   0.603   0.619
19760WAT     H259523   3.271   0.643   0.497
19761WAT      O59524   1.954   2.949   0.145
19761WAT     H159525   2.045   2.945   0.103
19761WAT     H259526   1.897   3.015   0.095
19762WAT      O59527   3.738   8.716   3.136
19762WAT     H159528   3.698   8.789   3.081
19762WAT     H259529   3.668   8.647   3.156
19763WAT      O59530   6.408   1.399   9.156
19763WAT     H159531   6.470   1.476   9.171
19763WAT     H259532   6.322   1.433   9.119
19764WAT      O59533   6.793   2.909   8.648
19764WAT     H159534   6.737   2.908   8.565
19764WAT     H259535   6.838   2.999   8.656
19765WAT      O59536   2.676   1.290   1.826
19765WAT     H159537   2.681   1.356   1.901
19765WAT     H259538   2.591   1.238   1.832
19766WAT      O59539   0.461   3.210   8.491
19766WAT     H159540   0.435   3.306   8.489
19766WAT     H259541   0.556   3.202   8.522
19767WAT      O59542   9.568   4.303   9.659
19767WAT     H159543   9.657   4.277   9.698
19767WAT     H259544   9.500   4.234   9.684
19768WAT      O59545   4.060   1.624   7.999
19768WAT     H159546   4.072   1.603   7.902
19768WAT     H259547   4.032   1.541   8.047
19769WAT      O59548   4.311   2.772   2.447
19769WAT     H159549   4.273   2.776   2.355
19769WAT     H259550   4.411   2.779   2.443
19770WAT      O59551   5.741   0.556   2.046
19770WAT     H159552   5.799   0.483   2.011
19770WAT     H259553   5.686   0.522   2.123
19771WAT      O59554   9.806   0.810   9.324
19771WAT     H159555   9.735   0.869   9.363
19771WAT     H259556   9.779   0.781   9.232
19772WAT      O59557   9.701   4.660   9.507
19772WAT     H159558   9.650   4.584   9.467
19772WAT     H259559   9.652   4.746   9.490
19773WAT      O59560   6.153   6.371   5.514
19773WAT     H159561   6.082   6.422   5.563
19773WAT     H259562   6.168   6.283   5.558
19774WAT      O59563   2.067   9.006   4.612
19774WAT     H159564   2.124   8.980   4.690
19774WAT     H259565   2.115   8.987   4.527
19775WAT      O59566   5.104   6.410   3.523
19775WAT     H159567   5.153   6.324   3.538
19775WAT     H259568   5.104   6.463   3.608
19776WAT      O59569   2.578   2.944   2.877
19776WAT     H159570   2.657   3.005   2.883
19776WAT     H259571   2.545   2.943   2.783
19777WAT      O59572   0.459   6.241   7.681
19777WAT     H159573   0.486   6.251   7.776
19777WAT     H259574   0.360   6.252   7.673
19778WAT      O59575   7.455   5.206   0.223
19778WAT     H159576   7.547   5.220   0.185
19778WAT     H259577   7.452   5.240   0.317
19779WAT      O59578   8.011   9.413   6.177
19779WAT     H159579   8.059   9.475   6.116
19779WAT     H259580   8.062   9.404   6.263
19780WAT      O59581   4.827   8.765   5.313
19780WAT     H159582   4.906   8.768   5.375
19780WAT     H259583   4.855   8.794   5.222
19781WAT      O59584   9.626   5.495   0.579
19781WAT     H159585   9.552   5.459   0.523
19781WAT     H259586   9.589   5.527   0.666
19782WAT      O59587   6.448   6.489   9.660
19782WAT     H159588   6.457   6.580   9.619
19782WAT     H259589   6.382   6.435   9.607
19783WAT      O59590   1.482   5.273   8.577
19783WAT     H159591   1.450   5.366   8.560
19783WAT     H259592   1.404   5.210   8.583
19784WAT      O59593   1.737   4.211   4.425
19784WAT     H159594   1.832   4.181   4.440
19784WAT     H259595   1.688   4.143   4.371
19785WAT      O59596   1.052   2.774   2.459
19785WAT     H159597   1.057   2.694   2.400
19785WAT     H259598   1.025   2.746   2.551
19786WAT      O59599   2.269   4.744   3.829
19786WAT     H159600   2.277   4.824   3.770
19786WAT     H259601   2.177   4.706   3.823
19787WAT      O59602   3.609   9.499   0.995
19787WAT     H159603   3.551   9.527   1.071
19787WAT     H259604   3.638   9.404   1.008
19788WAT      O59605   0.703   7.099   8.002
19788WAT     H159606   0.790   7.131   7.964
19788WAT     H259607   0.718   7.066   8.095
19789WAT      O59608   2.548   6.525   5.266
19789WAT     H159609   2.615   6.495   5.334
19789WAT     H259610   2.470   6.567   5.313
19790WAT      O59611   7.051   7.013   8.908
19790WAT     H159612   7.077   7.020   8.812
19790WAT     H259613   6.955   7.036   8.918
19791WAT      O59614   3.529   5.555   8.177
19791WAT     H159615   3.472   5.530   8.255
19791WAT     H259616   3.562   5.472   8.132
19792WAT      O59617   0.717   6.389   4.388
19792WAT     H159618   0.816   6.376   4.383
19792WAT     H259619   0.693   6.477   4.347
19793WAT      O59620   7.075   6.531   8.997
19793WAT     H159621   7.083   6.460   9.066
19793WAT     H259622   6.984   6.528   8.955
19794WAT      O59623   5.155   3.523   6.282
19794WAT     H159624   5.082   3.473   6.327
19794WAT     H259625   5.239   3.516   6.336
19795WAT      O59626   6.813   0.822   8.847
19795WAT     H159627   6.894   0.810   8.905
19795WAT     H259628   6.731   0.804   8.901
19796WAT      O59629   5.811   7.793   4.954
19796WAT     H159630   5.732   7.852   4.938
19796WAT     H259631   5.843   7.756   4.867
19797WAT      O59632   2.358   7.056   6.743
19797WAT     H159633   2.435   6.995   6.759
19797WAT     H259634   2.380   7.147   6.778
19798WAT      O59635   8.867   6.809   1.984
19798WAT     H159636   8.791   6.790   1.923
19798WAT     H259637   8.946   6.839   1.931
19799WAT      O59638   7.986   1.034   8.955
19799WAT     H159639   7.916   1.046   8.884
19799WAT     H259640   8.017   0.939   8.955
19800WAT      O59641   7.317   9.400   4.596
19800WAT     H159642   7.241   9.367   4.540
19800WAT     H259643   7.304   9.496   4.617
19801WAT      O59644   7.775   4.900   4.216
19801WAT     H159645   7.773   4.805   4.249
19801WAT     H259646   7.721   4.907   4.132
19802WAT      O59647   4.567   8.007   4.667
19802WAT     H159648   4.538   8.101   4.684
19802WAT     H259649   4.565   7.989   4.569
19803WAT      O59650   0.382   3.230   1.921
19803WAT     H159651   0.303   3.190   1.967
19803WAT     H259652   0.421   3.302   1.977
19804WAT      O59653   7.340   5.639   2.022
19804WAT     H159654   7.402   5.696   1.968
19804WAT     H259655   7.356   5.656   2.119
19805WAT      O59656   7.400   2.214   8.382
19805WAT     H159657   7.393   2.195   8.480
19805WAT     H259658   7.367   2.135   8.331
19806WAT      O59659   8.576   5.112   5.877
19806WAT     H159660   8.672   5.087   5.893
19806WAT     H259661   8.565   5.142   5.782
19807WAT      O59662   7.896   8.832   5.711
19807WAT     H159663   7.988   8.859   5.741
19807WAT     H259664   7.829   8.863   5.778
19808WAT      O59665   1.994   3.740   9.280
19808WAT     H159666   2.075   3.705   9.327
19808WAT     H259667   2.021   3.788   9.196
19809WAT      O59668   9.244   6.779   1.643
19809WAT     H159669   9.319   6.829   1.601
19809WAT     H259670   9.274   6.686   1.667
19810WAT      O59671   8.889   8.194   8.075
19810WAT     H159672   8.871   8.104   8.036
19810WAT     H259673   8.874   8.264   8.006
19811WAT      O59674   7.000   5.738   0.903
19811WAT     H159675   6.918   5.682   0.913
19811WAT     H259676   6.988   5.803   0.828
19812WAT      O59677   1.280   1.806   3.155
19812WAT     H159678   1.248   1.890   3.112
19812WAT     H259679   1.364   1.776   3.110
19813WAT      O59680   8.287   0.186   9.378
19813WAT     H159681   8.250   0.279   9.376
19813WAT     H259682   8.251   0.138   9.458
19814WAT      O59683   5.290   7.844   3.449
19814WAT     H159684   5.204   7.896   3.453
19814WAT     H259685   5.350   7.885   3.381
19815WAT      O59686   6.247   1.697   3.689
19815WAT     H159687   6.236   1.740   3.779
19815WAT     H259688   6.227   1.765   3.618
19816WAT      O59689   5.903   5.314   2.224
19816WAT     H159690   5.991   5.272   2.241
19816WAT     H259691   5.863   5.344   2.311
19817WAT      O59692   7.083   6.096   3.697
19817WAT     H159693   7.080   6.095   3.797
19817WAT     H259694   7.070   6.003   3.663
19818WAT      O59695   4.388   7.506   6.486
19818WAT     H159696   4.307   7.562   6.465
19818WAT     H259697   4.451   7.509   6.409
19819WAT      O59698   1.305   3.321   5.330
19819WAT     H159699   1.248   3.310   5.412
19819WAT     H259700   1.334   3.416   5.322
19820WAT      O59701   7.918   1.431   6.478
19820WAT     H159702   8.012   1.425   6.444
19820WAT     H259703   7.871   1.507   6.433
19821WAT      O59704   8.124   0.458   8.620
19821WAT     H159705   8.076   0.540   8.589
19821WAT     H259706   8.078   0.377   8.586
19822WAT      O59707   5.388   2.474   8.011
19822WAT     H159708   5.305   2.491   7.958
19822WAT     H259709   5.414   2.378   8.004
19823WAT      O59710   3.697   6.856   1.704
19823WAT     H159711   3.733   6.949   1.704
19823WAT     H259712   3.610   6.854   1.654
19824WAT      O59713   5.077   4.439   5.354
19824WAT     H159714   5.105   4.349   5.388
19824WAT     H259715   4.989   4.431   5.307
19825WAT      O59716   0.021   0.177   8.315
19825WAT     H159717   0.022   0.087   8.358
19825WAT     H259718   0.045   0.168   8.219
19826WAT      O59719   0.582   6.024   3.762
19826WAT     H159720   0.552   6.050   3.670
19826WAT     H259721   0.518   6.062   3.829
19827WAT      O59722   8.370   8.560   1.154
19827WAT     H159723   8.367   8.527   1.059
19827WAT     H259724   8.456   8.531   1.196
19828WAT      O59725   6.614   5.515   4.789
19828WAT     H159726   6.641   5.611   4.798
19828WAT     H259727   6.517   5.506   4.811
19829WAT      O59728   8.495   0.719   6.545
19829WAT     H159729   8.432   0.717   6.468
19829WAT     H259730   8.584   0.752   6.516
19830WAT      O59731   9.108   6.827   8.667
19830WAT     H159732   9.113   6.874   8.755
19830WAT     H259733   9.012   6.824   8.636
19831WAT      O59734   2.916   8.294   3.345
19831WAT     H159735   3.010   8.262   3.331
19831WAT     H259736   2.910   8.390   3.318
19832WAT      O59737   1.662   2.360   3.364
19832WAT     H159738   1.616   2.380   3.277
19832WAT     H259739   1.659   2.441   3.423
19833WAT      O59740   8.012   8.420   4.053
19833WAT     H159741   8.052   8.505   4.020
19833WAT     H259742   8.046   8.400   4.145
19834WAT      O59743   7.830   4.876   6.396
19834WAT     H159744   7.920   4.834   6.390
19834WAT     H259745   7.831   4.965   6.353
19835WAT      O59746   7.008   4.863   2.044
19835WAT     H159747   7.077   4.907   1.986
19835WAT     H259748   7.037   4.869   2.140
19836WAT      O59749   3.616   4.916   8.467
19836WAT     H159750   3.545   4.983   8.449
19836WAT     H259751   3.576   4.825   8.471
19837WAT      O59752   1.738   3.247   2.489
19837WAT     H159753   1.658   3.307   2.501
19837WAT     H259754   1.776   3.225   2.579
19838WAT      O59755   8.639   1.830   4.673
19838WAT     H159756   8.692   1.891   4.614
19838WAT     H259757   8.574   1.883   4.727
19839WAT      O59758   4.762   8.236   4.406
19839WAT     H159759   4.684   8.296   4.426
19839WAT     H259760   4.732   8.140   4.409
19840WAT      O59761   3.373   0.954   5.251
19840WAT     H159762   3.334   0.872   5.294
19840WAT     H259763   3.336   0.964   5.159
19841WAT      O59764   2.119   3.523   2.752
19841WAT     H159765   2.187   3.533   2.825
19841WAT     H259766   2.158   3.468   2.678
19842WAT      O59767   7.153   0.804   6.031
19842WAT     H159768   7.060   0.767   6.020
19842WAT     H259769   7.216   0.729   6.051
19843WAT      O59770   5.958   5.762   4.300
19843WAT     H159771   5.915   5.681   4.341
19843WAT     H259772   5.977   5.829   4.372
19844WAT      O59773   1.864   8.930   3.534
19844WAT     H159774   1.913   9.013   3.510
19844WAT     H259775   1.778   8.927   3.483
19845WAT      O59776   6.384   8.032   5.486
19845WAT     H159777   6.310   7.998   5.428
19845WAT     H259778   6.363   8.013   5.581
19846WAT      O59779   5.395   7.059   8.544
19846WAT     H159780   5.398   6.975   8.597
19846WAT     H259781   5.325   7.051   8.472
19847WAT      O59782   6.200   0.183   2.378
19847WAT     H159783   6.263   0.194   2.302
19847WAT     H259784   6.120   0.242   2.365
19848WAT      O59785   8.431   5.329   0.193
19848WAT     H159786   8.489   5.409   0.203
19848WAT     H259787   8.372   5.340   0.112
19849WAT      O59788   9.408   5.718   3.857
19849WAT     H159789   9.373   5.640   3.910
19849WAT     H259790   9.331   5.765   3.814
19850WAT      O59791   3.430   7.936   0.529
19850WAT     H159792   3.480   8.011   0.573
19850WAT     H259793   3.471   7.849   0.556
19851WAT      O59794   2.415   3.154   1.986
19851WAT     H159795   2.406   3.165   1.887
19851WAT     H259796   2.508   3.122   2.007
19852WAT      O59797   1.716   3.466   9.445
19852WAT     H159798   1.717   3.507   9.354
19852WAT     H259799   1.790   3.506   9.500
19853WAT      O59800   4.525   8.694   8.515
19853WAT     H159801   4.516   8.599   8.485
19853WAT     H259802   4.520   8.755   8.435
19854WAT      O59803   6.236   8.148   6.561
19854WAT     H159804   6.243   8.204   6.644
19854WAT     H259805   6.164   8.079   6.574
19855WAT      O59806   3.708   0.345   0.648
19855WAT     H159807   3.630   0.407   0.659
19855WAT     H259808   3.791   0.397   0.632
19856WAT      O59809   9.409   1.933   6.688
19856WAT     H159810   9.405   1.940   6.787
19856WAT     H259811   9.338   1.871   6.655
19857WAT      O59812   2.698   1.941   4.847
19857WAT     H159813   2.772   1.877   4.865
19857WAT     H259814   2.696   1.964   4.750
19858WAT      O59815   8.837   5.127   2.898
19858WAT     H159816   8.858   5.039   2.855
19858WAT     H259817   8.793   5.112   2.987
19859WAT      O59818   8.153   3.115   7.463
19859WAT     H159819   8.253   3.109   7.469
19859WAT     H259820   8.116   3.148   7.549
19860WAT      O59821   5.627   0.910   2.035
19860WAT     H159822   5.541   0.957   2.058
19860WAT     H259823   5.607   0.826   1.986
19861WAT      O59824   8.505   5.262   3.829
19861WAT     H159825   8.495   5.362   3.826
19861WAT     H259826   8.420   5.219   3.799
19862WAT      O59827   2.153   1.944   5.373
19862WAT     H159828   2.112   1.885   5.444
19862WAT     H259829   2.241   1.906   5.346
19863WAT      O59830   2.805   9.810   7.470
19863WAT     H159831   2.822   9.866   7.551
19863WAT     H259832   2.871   9.735   7.466
19864WAT      O59833   1.492   0.686   7.236
19864WAT     H159834   1.538   0.697   7.324
19864WAT     H259835   1.453   0.594   7.230
19865WAT      O59836   2.912   2.220   1.734
19865WAT     H159837   2.830   2.176   1.697
19865WAT     H259838   2.987   2.154   1.736
19866WAT      O59839   1.778   6.733   9.368
19866WAT     H159840   1.807   6.651   9.417
19866WAT     H259841   1.809   6.814   9.418
19867WAT      O59842   6.862   4.905   3.231
19867WAT     H159843   6.937   4.912   3.296
19867WAT     H259844   6.792   4.843   3.267
19868WAT      O59845   9.815   5.328   4.053
19868WAT     H159846   9.750   5.318   4.128
19868WAT     H259847   9.904   5.356   4.089
19869WAT      O59848   4.566   8.854   5.969
19869WAT     H159849   4.479   8.866   6.018
19869WAT     H259850   4.640   8.841   6.035
19870WAT      O59851   8.217   5.324   0.553
19870WAT     H159852   8.304   5.348   0.597
19870WAT     H259853   8.167   5.259   0.612
19871WAT      O59854   6.048   9.813   4.283
19871WAT     H159855   6.102   9.732   4.258
19871WAT     H259856   6.060   9.884   4.214
19872WAT      O59857   2.465   6.203   9.034
19872WAT     H159858   2.365   6.206   9.044
19872WAT     H259859   2.507   6.179   9.121
19873WAT      O59860   1.648   3.744   4.637
19873WAT     H159861   1.660   3.665   4.577
19873WAT     H259862   1.718   3.812   4.618
19874WAT      O59863   4.525   0.838   4.019
19874WAT     H159864   4.552   0.750   4.058
19874WAT     H259865   4.605   0.897   4.013
19875WAT      O59866   0.497   5.701   9.531
19875WAT     H159867   0.590   5.737   9.528
19875WAT     H259868   0.476   5.654   9.446
19876WAT      O59869   6.971   5.353   8.272
19876WAT     H159870   7.037   5.288   8.234
19876WAT     H259871   6.930   5.406   8.198
19877WAT      O59872   3.524   2.043   8.861
19877WAT     H159873   3.472   1.957   8.861
19877WAT     H259874   3.573   2.052   8.775
19878WAT      O59875   1.741   2.340   5.791
19878WAT     H159876   1.724   2.288   5.708
19878WAT     H259877   1.670   2.319   5.859
19879WAT      O59878   2.060   3.608   4.322
19879WAT     H159879   1.998   3.650   4.256
19879WAT     H259880   2.041   3.645   4.413
19880WAT      O59881   5.799   9.281   4.062
19880WAT     H159882   5.841   9.285   4.153
19880WAT     H259883   5.762   9.371   4.039
19881WAT      O59884   4.857   5.325   4.906
19881WAT     H159885   4.833   5.343   5.002
19881WAT     H259886   4.883   5.411   4.862
19882WAT      O59887   9.363   0.872   9.629
19882WAT     H159888   9.341   0.938   9.557
19882WAT     H259889   9.285   0.811   9.643
19883WAT      O59890   4.495   2.110   5.244
19883WAT     H159891   4.585   2.068   5.232
19883WAT     H259892   4.483   2.182   5.176
19884WAT      O59893   0.437   2.532   6.757
19884WAT     H159894   0.485   2.533   6.669
19884WAT     H259895   0.409   2.625   6.780
19885WAT      O59896   2.774   6.418   3.479
19885WAT     H159897   2.716   6.438   3.400
19885WAT     H259898   2.862   6.384   3.447
19886WAT      O59899   9.124   9.023   7.140
19886WAT     H159900   9.077   8.935   7.133
19886WAT     H259901   9.188   9.032   7.063
19887WAT      O59902   8.159   8.233   3.118
19887WAT     H159903   8.215   8.280   3.186
19887WAT     H259904   8.127   8.299   3.050
19888WAT      O59905   1.883   1.630   2.231
19888WAT     H159906   1.901   1.611   2.328
19888WAT     H259907   1.850   1.548   2.186
19889WAT      O59908   7.032   9.145   8.465
19889WAT     H159909   6.995   9.056   8.437
19889WAT     H259910   7.126   9.132   8.499
19890WAT      O59911   2.989   1.556   3.629
19890WAT     H159912   2.957   1.504   3.709
19890WAT     H259913   2.933   1.533   3.550
19891WAT      O59914   6.962   0.089   2.925
19891WAT     H159915   6.986   0.030   2.849
19891WAT     H259916   6.903   0.040   2.989
19892WAT      O59917   1.928   5.816   1.616
19892WAT     H159918   1.940   5.779   1.708
19892WAT     H259919   1.928   5.916   1.620
19893WAT      O59920   8.159   5.553   2.796
19893WAT     H159921   8.120   5.483   2.735
19893WAT     H259922   8.259   5.552   2.789
19894WAT      O59923   8.452   0.158   8.502
19894WAT     H159924   8.527   0.201   8.452
19894WAT     H259925   8.370   0.158   8.446
19895WAT      O59926   9.082   9.112   1.024
19895WAT     H159927   9.087   9.166   1.108
19895WAT     H259928   9.141   9.032   1.031
19896WAT      O59929   6.229   4.263   0.048
19896WAT     H159930   6.184   4.186   0.003
19896WAT     H259931   6.177   4.347   0.029
19897WAT      O59932   5.518   7.367   6.085
19897WAT     H159933   5.580   7.301   6.043
19897WAT     H259934   5.510   7.348   6.183
19898WAT      O59935   0.782   4.635   7.338
19898WAT     H159936   0.776   4.612   7.435
19898WAT     H259937   0.736   4.564   7.284
19899WAT      O59938   6.835   6.649   2.104
19899WAT     H159939   6.741   6.672   2.078
19899WAT     H259940   6.890   6.639   2.021
19900WAT      O59941   7.131   3.022   5.561
19900WAT     H159942   7.198   3.053   5.628
19900WAT     H259943   7.077   3.099   5.530
19901WAT      O59944   1.455   6.543   8.109
19901WAT     H159945   1.379   6.485   8.139
19901WAT     H259946   1.528   6.486   8.072
19902WAT      O59947   7.203   4.886   3.738
19902WAT     H159948   7.163   4.888   3.830
19902WAT     H259949   7.251   4.972   3.721
19903WAT      O59950   0.705   7.295   9.070
19903WAT     H159951   0.755   7.264   9.151
19903WAT     H259952   0.691   7.218   9.007
19904WAT      O59953   0.363   7.058   6.824
19904WAT     H159954   0.306   6.979   6.846
19904WAT     H259955   0.336   7.136   6.881
19905WAT      O59956   9.642   3.981   9.788
19905WAT     H159957   9.587   3.931   9.720
19905WAT     H259958   9.724   3.927   9.810
19906WAT      O59959   9.649   8.834   1.937
19906WAT     H159960   9.639   8.735   1.933
19906WAT     H259961   9.616   8.868   2.024
19907WAT      O59962   0.433   4.900   3.029
19907WAT     H159963   0.374   4.936   3.102
19907WAT     H259964   0.377   4.859   2.957
19908WAT      O59965   3.624   6.792   4.284
19908WAT     H159966   3.694   6.800   4.212
19908WAT     H259967   3.640   6.862   4.354
19909WAT      O59968   8.919   5.979   5.438
19909WAT     H159969   8.862   6.059   5.456
19909WAT     H259970   8.901   5.908   5.507
19910WAT      O59971   9.806   3.229   6.562
19910WAT     H159972   9.878   3.167   6.531
19910WAT     H259973   9.828   3.263   6.653
19911WAT      O59974   2.238   3.410   2.531
19911WAT     H159975   2.199   3.467   2.459
19911WAT     H259976   2.250   3.316   2.497
19912WAT      O59977   7.660   3.209   8.173
19912WAT     H159978   7.683   3.304   8.193
19912WAT     H259979   7.564   3.203   8.145
19913WAT      O59980   3.702   6.584   6.276
19913WAT     H159981   3.689   6.509   6.340
19913WAT     H259982   3.696   6.550   6.182
19914WAT      O59983   9.202   5.566   7.402
19914WAT     H159984   9.110   5.574   7.441
19914WAT     H259985   9.195   5.557   7.303
19915WAT      O59986   1.686   5.717   9.197
19915WAT     H159987   1.702   5.713   9.098
19915WAT     H259988   1.599   5.763   9.215
19916WAT      O59989   7.595   5.176   0.658
19916WAT     H159990   7.636   5.085   0.648
19916WAT     H259991   7.535   5.194   0.580
19917WAT      O59992   0.851   3.474   7.475
19917WAT     H159993   0.905   3.398   7.508
19917WAT     H259994   0.757   3.465   7.508
19918WAT      O59995   1.590   4.604   5.242
19918WAT     H159996   1.579   4.699   5.214
19918WAT     H259997   1.684   4.574   5.223
19919WAT      O59998   1.855   5.113   2.018
19919WAT     H159999   1.837   5.209   2.040
19919WAT     H260000   1.822   5.093   1.926
19920WAT      O60001   2.360   4.836   4.702
19920WAT     H160002   2.453   4.874   4.699
19920WAT     H260003   2.294   4.910   4.707
19921WAT      O60004   8.897   4.823   1.839
19921WAT     H160005   8.952   4.766   1.778
19921WAT     H260006   8.802   4.822   1.810
19922WAT      O60007   4.741   3.975   3.330
19922WAT     H160008   4.797   3.987   3.412
19922WAT     H260009   4.767   4.045   3.262
19923WAT      O60010   1.273   3.958   3.731
19923WAT     H160011   1.353   3.952   3.790
19923WAT     H260012   1.256   4.053   3.707
19924WAT      O60013   8.097   5.966   6.503
19924WAT     H160014   8.008   5.924   6.482
19924WAT     H260015   8.082   6.054   6.549
19925WAT      O60016   7.585   9.658   4.794
19925WAT     H160017   7.580   9.570   4.841
19925WAT     H260018   7.657   9.656   4.725
19926WAT      O60019   1.961   5.914   9.653
19926WAT     H160020   2.000   5.997   9.691
19926WAT     H260021   1.881   5.886   9.707
19927WAT      O60022   4.856   8.000   5.431
19927WAT     H160023   4.777   7.953   5.392
19927WAT     H260024   4.831   8.094   5.453
19928WAT      O60025   1.879   3.324   5.540
19928WAT     H160026   1.788   3.284   5.550
19928WAT     H260027   1.915   3.347   5.631
19929WAT      O60028   1.977   8.692   3.475
19929WAT     H160029   1.933   8.780   3.496
19929WAT     H260030   2.070   8.709   3.443
19930WAT      O60031   0.211   9.274   7.203
19930WAT     H160032   0.189   9.241   7.111
19930WAT     H260033   0.273   9.210   7.247
19931WAT      O60034   6.861   1.395   5.690
19931WAT     H160035   6.802   1.324   5.729
19931WAT     H260036   6.892   1.456   5.762
19932WAT      O60037   4.222   3.055   3.312
19932WAT     H160038   4.209   2.966   3.356
19932WAT     H260039   4.314   3.060   3.272
19933WAT      O60040   5.702   8.467   4.522
19933WAT     H160041   5.782   8.410   4.502
19933WAT     H260042   5.629   8.447   4.458
19934WAT      O60043   4.800   1.123   7.750
19934WAT     H160044   4.840   1.212   7.728
19934WAT     H260045   4.748   1.090   7.671
19935WAT      O60046   9.037   8.113   0.320
19935WAT     H160047   9.053   8.211   0.330
19935WAT     H260048   9.125   8.065   0.318
19936WAT      O60049   8.450   2.658   0.139
19936WAT     H160050   8.474   2.590   0.069
19936WAT     H260051   8.359   2.638   0.175
19937WAT      O60052   2.529   8.384   3.405
19937WAT     H160053   2.430   8.377   3.417
19937WAT     H260054   2.572   8.401   3.494
19938WAT      O60055   0.786   3.412   8.198
19938WAT     H160056   0.876   3.370   8.187
19938WAT     H260057   0.771   3.480   8.127
19939WAT      O60058   3.911   5.725   6.765
19939WAT     H160059   3.962   5.661   6.822
19939WAT     H260060   3.850   5.780   6.823
19940WAT      O60061   8.881   5.119   4.816
19940WAT     H160062   8.864   5.053   4.742
19940WAT     H260063   8.837   5.206   4.794
19941WAT      O60064   0.235   7.759   4.229
19941WAT     H160065   0.190   7.737   4.315
19941WAT     H260066   0.189   7.712   4.153
19942WAT      O60067   1.256   7.751   4.906
19942WAT     H160068   1.352   7.764   4.881
19942WAT     H260069   1.199   7.807   4.847
19943WAT      O60070   3.417   9.231   5.014
19943WAT     H160071   3.336   9.291   5.020
19943WAT     H260072   3.423   9.175   5.096
19944WAT      O60073   8.667   9.149   4.472
19944WAT     H160074   8.659   9.145   4.571
19944WAT     H260075   8.655   9.244   4.441
19945WAT      O60076   0.412   1.779   7.616
19945WAT     H160077   0.329   1.781   7.672
19945WAT     H260078   0.474   1.708   7.651
19946WAT      O60079   5.785   3.999   2.545
19946WAT     H160080   5.791   4.092   2.582
19946WAT     H260081   5.763   3.935   2.618
19947WAT      O60082   9.390   3.691   1.187
19947WAT     H160083   9.489   3.690   1.173
19947WAT     H260084   9.367   3.642   1.272
19948WAT      O60085   6.335   5.681   1.562
19948WAT     H160086   6.429   5.686   1.530
19948WAT     H260087   6.286   5.609   1.513
19949WAT      O60088   3.332   8.757   9.890
19949WAT     H160089   3.357   8.791   9.981
19949WAT     H260090   3.349   8.828   9.822
19950WAT      O60091   4.512   3.034   3.670
19950WAT     H160092   4.526   3.133   3.670
19950WAT     H260093   4.574   2.992   3.603
19951WAT      O60094   7.083   2.379   0.811
19951WAT     H160095   7.149   2.421   0.873
19951WAT     H260096   7.119   2.381   0.717
19952WAT      O60097   6.557   4.375   4.287
19952WAT     H160098   6.588   4.288   4.248
19952WAT     H260099   6.524   4.434   4.213
19953WAT      O60100   2.214   3.353   0.202
19953WAT     H160101   2.259   3.344   0.291
19953WAT     H260102   2.278   3.396   0.138
19954WAT      O60103   8.410   2.150   4.055
19954WAT     H160104   8.366   2.230   4.097
19954WAT     H260105   8.493   2.128   4.106
19955WAT      O60106   1.368   6.240   0.522
19955WAT     H160107   1.382   6.252   0.424
19955WAT     H260108   1.453   6.207   0.564
19956WAT      O60109   4.234   9.294   1.356
19956WAT     H160110   4.236   9.332   1.263
19956WAT     H260111   4.166   9.221   1.361
19957WAT      O60112   8.936   8.670   0.825
19957WAT     H160113   9.012   8.627   0.874
19957WAT     H260114   8.952   8.665   0.727
19958WAT      O60115   8.765   4.748   6.514
19958WAT     H160116   8.831   4.816   6.546
19958WAT     H260117   8.673   4.777   6.540
19959WAT      O60118   0.419   1.334   7.383
19959WAT     H160119   0.404   1.242   7.417
19959WAT     H260120   0.418   1.334   7.283
19960WAT      O60121   3.812   5.315   8.349
19960WAT     H160122   3.763   5.357   8.425
19960WAT     H260123   3.866   5.238   8.382
19961WAT      O60124   7.476   7.369   5.041
19961WAT     H160125   7.445   7.447   4.987
19961WAT     H260126   7.396   7.319   5.075
19962WAT      O60127   0.690   6.973   6.543
19962WAT     H160128   0.611   6.932   6.589
19962WAT     H260129   0.666   6.993   6.448
19963WAT      O60130   7.855   9.044   1.195
19963WAT     H160131   7.810   9.044   1.284
19963WAT     H260132   7.862   9.138   1.162
19964WAT      O60133   1.829   6.663   2.673
19964WAT     H160134   1.818   6.588   2.738
19964WAT     H260135   1.768   6.738   2.697
19965WAT      O60136   7.133   6.278   4.007
19965WAT     H160137   7.110   6.301   4.101
19965WAT     H260138   7.173   6.186   4.004
19966WAT      O60139   8.806   8.364   6.499
19966WAT     H160140   8.719   8.340   6.543
19966WAT     H260141   8.811   8.463   6.488
19967WAT      O60142   8.510   9.811   3.325
19967WAT     H160143   8.505   9.821   3.226
19967WAT     H260144   8.443   9.743   3.355
19968WAT      O60145   3.519   6.953   6.054
19968WAT     H160146   3.443   7.012   6.082
19968WAT     H260147   3.579   6.936   6.132
19969WAT      O60148   0.444   7.050   9.843
19969WAT     H160149   0.407   7.006   9.761
19969WAT     H260150   0.542   7.030   9.849
19970WAT      O60151   3.421   0.231   4.480
19970WAT     H160152   3.502   0.206   4.532
19970WAT     H260153   3.448   0.255   4.386
19971WAT      O60154   6.276   5.379   6.180
19971WAT     H160155   6.334   5.298   6.182
19971WAT     H260156   6.322   5.455   6.226
19972WAT      O60157   1.972   4.489   3.558
19972WAT     H160158   1.876   4.497   3.584
19972WAT     H260159   1.978   4.445   3.468
19973WAT      O60160   3.321   4.830   3.435
19973WAT     H160161   3.301   4.766   3.509
19973WAT     H260162   3.302   4.923   3.465
19974WAT      O60163   5.503   7.208   1.713
19974WAT     H160164   5.530   7.223   1.808
19974WAT     H260165   5.551   7.127   1.677
19975WAT      O60166   7.093   6.932   2.243
19975WAT     H160167   7.055   6.849   2.282
19975WAT     H260168   7.102   7.002   2.313
19976WAT      O60169   2.235   4.510   8.253
19976WAT     H160170   2.227   4.587   8.317
19976WAT     H260171   2.269   4.430   8.301
19977WAT      O60172   2.673   9.078   3.475
19977WAT     H160173   2.732   9.129   3.538
19977WAT     H260174   2.596   9.135   3.448
19978WAT      O60175   9.276   6.293   2.625
19978WAT     H160176   9.314   6.372   2.576
19978WAT     H260177   9.199   6.256   2.573
19979WAT      O60178   9.091   4.000   6.521
19979WAT     H160179   9.025   4.075   6.528
19979WAT     H260180   9.178   4.029   6.561
19980WAT      O60181   6.674   4.681   3.233
19980WAT     H160182   6.704   4.667   3.139
19980WAT     H260183   6.609   4.609   3.258
19981WAT      O60184   8.355   6.410   8.441
19981WAT     H160185   8.448   6.407   8.478
19981WAT     H260186   8.336   6.325   8.392
19982WAT      O60187   7.645   9.785   9.764
19982WAT     H160188   7.587   9.862   9.792
19982WAT     H260189   7.587   9.708   9.738
19983WAT      O60190   7.414   1.613   2.483
19983WAT     H160191   7.476   1.554   2.432
19983WAT     H260192   7.449   1.707   2.482
19984WAT      O60193   5.872   1.802   9.323
19984WAT     H160194   5.888   1.715   9.276
19984WAT     H260195   5.870   1.787   9.422
19985WAT      O60196   8.132   1.815   3.801
19985WAT     H160197   8.054   1.767   3.842
19985WAT     H260198   8.182   1.865   3.872
19986WAT      O60199   6.586   2.559   8.519
19986WAT     H160200   6.685   2.570   8.512
19986WAT     H260201   6.541   2.640   8.479
19987WAT      O60202   1.456   8.349   7.760
19987WAT     H160203   1.454   8.435   7.811
19987WAT     H260204   1.450   8.273   7.823
19988WAT      O60205   8.321   6.847   5.993
19988WAT     H160206   8.292   6.938   5.961
19988WAT     H260207   8.336   6.787   5.914
19989WAT      O60208   3.474   9.500   7.970
19989WAT     H160209   3.462   9.594   8.000
19989WAT     H260210   3.546   9.495   7.902
19990WAT      O60211   6.614   0.106   0.173
19990WAT     H160212   6.596   0.193   0.127
19990WAT     H260213   6.630   0.034   0.105
19991WAT      O60214   2.252   1.233   5.860
19991WAT     H160215   2.177   1.222   5.926
19991WAT     H260216   2.339   1.214   5.906
19992WAT      O60217   5.739   8.744   4.432
19992WAT     H160218   5.729   8.645   4.447
19992WAT     H260219   5.649   8.787   4.434
19993WAT      O60220   9.888   2.038   7.856
19993WAT     H160221   9.837   1.985   7.923
19993WAT     H260222   9.826   2.069   7.784
19994WAT      O60223   9.265   6.364   5.878
19994WAT     H160224   9.275   6.457   5.841
19994WAT     H260225   9.299   6.362   5.972
19995WAT      O60226   7.438   2.047   2.272
19995WAT     H160227   7.499   2.123   2.252
19995WAT     H260228   7.344   2.071   2.245
19996WAT      O60229   8.102   1.543   7.955
19996WAT     H160230   8.013   1.521   7.916
19996WAT     H260231   8.089   1.591   8.042
19997WAT      O60232   2.318   5.880   1.304
19997WAT     H160233   2.357   5.796   1.266
19997WAT     H260234   2.249   5.857   1.372
19998WAT      O60235   7.806   6.701   6.362
19998WAT     H160236   7.708   6.681   6.362
19998WAT     H260237   7.834   6.729   6.270
19999WAT      O60238   9.839   7.967   4.188
19999WAT     H160239   9.787   7.885   4.213
19999WAT     H260240   9.891   7.949   4.105
20000WAT      O60241   2.470   7.713   8.406
20000WAT     H160242   2.471   7.637   8.470
20000WAT     H260243   2.448   7.679   8.314
20001WAT      O60244   3.964   2.562   3.704
20001WAT     H160245   3.905   2.639   3.679
20001WAT     H260246   4.054   2.596   3.730
20002WAT      O60247   8.977   8.694   0.579
20002WAT     H160248   9.072   8.708   0.549
20002WAT     H260249   8.926   8.647   0.507
20003WAT      O60250   2.466   7.508   2.386
20003WAT     H160251   2.467   7.605   2.362
20003WAT     H260252   2.534   7.490   2.457
20004WAT      O60253   2.995   3.270   3.510
20004WAT     H160254   2.912   3.258   3.564
20004WAT     H260255   3.056   3.192   3.525
20005WAT      O60256   0.817   6.076   5.072
20005WAT     H160257   0.836   6.128   5.155
20005WAT     H260258   0.883   6.000   5.064
20006WAT      O60259   1.535   4.144   4.879
20006WAT     H160260   1.565   4.049   4.876
20006WAT     H260261   1.457   4.153   4.942
20007WAT      O60262   3.855   7.660   5.520
20007WAT     H160263   3.835   7.748   5.478
20007WAT     H260264   3.791   7.644   5.596
20008WAT      O60265   0.796   3.742   4.783
20008WAT     H160266   0.725   3.789   4.731
20008WAT     H260267   0.833   3.805   4.853
20009WAT      O60268   9.006   7.752   1.244
20009WAT     H160269   8.967   7.841   1.223
20009WAT     H260270   9.105   7.761   1.255
20010WAT      O60271   0.680   5.517   4.939
20010WAT     H160272   0.661   5.598   4.884
20010WAT     H260273   0.625   5.440   4.905
20011WAT      O60274   3.173   5.410   6.795
20011WAT     H160275   3.112   5.485   6.771
20011WAT     H260276   3.137   5.324   6.759
20012WAT      O60277   8.930   1.553   4.838
20012WAT     H160278   8.902   1.634   4.787
20012WAT     H260279   9.029   1.556   4.855
20013WAT      O60280   7.809   3.679   7.450
20013WAT     H160281   7.901   3.711   7.470
20013WAT     H260282   7.774   3.725   7.368
20014WAT      O60283   6.363   8.825   0.997
20014WAT     H160284   6.279   8.788   1.036
20014WAT     H260285   6.341   8.893   0.927
20015WAT      O60286   1.628   7.164   0.648
20015WAT     H160287   1.679   7.171   0.562
20015WAT     H260288   1.676   7.102   0.710
20016WAT      O60289   1.185   6.397   7.768
20016WAT     H160290   1.248   6.471   7.792
20016WAT     H260291   1.099   6.436   7.735
20017WAT      O60292   2.889   6.404   9.858
20017WAT     H160293   2.895   6.481   9.793
20017WAT     H260294   2.963   6.340   9.840
20018WAT      O60295   1.159   7.110   4.373
20018WAT     H160296   1.243   7.058   4.381
20018WAT     H260297   1.142   7.158   4.459
20019WAT      O60298   0.704   3.415   1.772
20019WAT     H160299   0.610   3.383   1.757
20019WAT     H260300   0.719   3.498   1.719
20020WAT      O60301   3.061   4.449   9.445
20020WAT     H160302   2.962   4.445   9.435
20020WAT     H260303   3.097   4.523   9.387
20021WAT      O60304   9.193   5.102   8.966
20021WAT     H160305   9.110   5.110   9.021
20021WAT     H260306   9.222   5.006   8.964
20022WAT      O60307   2.801   4.376   9.440
20022WAT     H160308   2.734   4.351   9.370
20022WAT     H260309   2.756   4.429   9.511
20023WAT      O60310   5.050   4.099   2.790
20023WAT     H160311   5.053   4.102   2.690
20023WAT     H260312   4.965   4.056   2.819
20024WAT      O60313   8.572   1.900   5.067
20024WAT     H160314   8.578   1.811   5.112
20024WAT     H260315   8.488   1.946   5.095
20025WAT      O60316   7.507   4.705   7.433
20025WAT     H160317   7.526   4.619   7.385
20025WAT     H260318   7.589   4.734   7.482
20026WAT      O60319   1.438   2.002   7.111
20026WAT     H160320   1.383   2.046   7.041
20026WAT     H260321   1.427   1.903   7.106
20027WAT      O60322   0.177   6.558   4.383
20027WAT     H160323   0.152   6.645   4.426
20027WAT     H260324   0.245   6.512   4.440
20028WAT      O60325   4.969   5.028   1.893
20028WAT     H160326   4.931   5.061   1.980
20028WAT     H260327   5.067   5.012   1.903
20029WAT      O60328   9.159   9.356   3.130
20029WAT     H160329   9.216   9.352   3.211
20029WAT     H260330   9.067   9.389   3.155
20030WAT      O60331   0.580   3.058   9.056
20030WAT     H160332   0.626   3.146   9.040
20030WAT     H260333   0.530   3.031   8.973
20031WAT      O60334   4.870   2.311   9.160
20031WAT     H160335   4.895   2.310   9.256
20031WAT     H260336   4.851   2.404   9.130
20032WAT      O60337   2.480   7.168   7.505
20032WAT     H160338   2.443   7.137   7.418
20032WAT     H260339   2.511   7.089   7.558
20033WAT      O60340   3.548   3.104   9.710
20033WAT     H160341   3.614   3.055   9.654
20033WAT     H260342   3.553   3.072   9.804
20034WAT      O60343   8.322   0.891   3.738
20034WAT     H160344   8.319   0.961   3.809
20034WAT     H260345   8.233   0.884   3.694
20035WAT      O60346   1.537   1.683   2.384
20035WAT     H160347   1.447   1.723   2.401
20035WAT     H260348   1.560   1.695   2.287
20036WAT      O60349   1.044   2.229   9.145
20036WAT     H160350   0.993   2.248   9.228
20036WAT     H260351   0.997   2.158   9.092
20037WAT      O60352   6.925   0.419   7.869
20037WAT     H160353   6.889   0.326   7.868
20037WAT     H260354   6.849   0.484   7.872
20038WAT      O60355   4.631   4.525   1.075
20038WAT     H160356   4.667   4.456   1.013
20038WAT     H260357   4.615   4.610   1.025
20039WAT      O60358   1.505   8.442   6.039
20039WAT     H160359   1.466   8.399   6.121
20039WAT     H260360   1.590   8.489   6.064
20040WAT      O60361   7.327   3.832   3.385
20040WAT     H160362   7.230   3.822   3.363
20040WAT     H260363   7.363   3.915   3.343
20041WAT      O60364   3.082   1.132   7.473
20041WAT     H160365   2.988   1.111   7.446
20041WAT     H260366   3.146   1.087   7.410
20042WAT      O60367   0.252   4.241   8.823
20042WAT     H160368   0.188   4.193   8.884
20042WAT     H260369   0.279   4.327   8.865
20043WAT      O60370   9.052   0.873   5.960
20043WAT     H160371   9.029   0.960   6.004
20043WAT     H260372   9.140   0.841   5.995
20044WAT      O60373   8.573   2.533   2.727
20044WAT     H160374   8.546   2.571   2.816
20044WAT     H260375   8.664   2.494   2.734
20045WAT      O60376   7.328   9.436   0.500
20045WAT     H160377   7.320   9.412   0.597
20045WAT     H260378   7.408   9.494   0.486
20046WAT      O60379   0.534   7.614   7.612
20046WAT     H160380   0.514   7.559   7.693
20046WAT     H260381   0.611   7.575   7.562
20047WAT      O60382   5.188   1.253   0.372
20047WAT     H160383   5.261   1.231   0.306
20047WAT     H260384   5.178   1.352   0.377
20048WAT      O60385   3.032   5.737   1.965
20048WAT     H160386   3.022   5.798   2.044
20048WAT     H260387   2.977   5.654   1.981
20049WAT      O60388   3.964   0.735   7.237
20049WAT     H160389   4.039   0.726   7.170
20049WAT     H260390   3.879   0.703   7.196
20050WAT      O60391   8.854   3.163   1.176
20050WAT     H160392   8.937   3.205   1.139
20050WAT     H260393   8.798   3.128   1.101
20051WAT      O60394   4.934   6.277   7.470
20051WAT     H160395   4.862   6.213   7.442
20051WAT     H260396   4.907   6.370   7.446
20052WAT      O60397   3.736   3.528   3.255
20052WAT     H160398   3.757   3.507   3.160
20052WAT     H260399   3.683   3.453   3.295
20053WAT      O60400   4.324   7.555   8.888
20053WAT     H160401   4.258   7.617   8.845
20053WAT     H260402   4.364   7.495   8.819
20054WAT      O60403   2.660   2.711   4.892
20054WAT     H160404   2.706   2.799   4.882
20054WAT     H260405   2.586   2.704   4.824
20055WAT      O60406   8.638   3.265   3.770
20055WAT     H160407   8.582   3.202   3.825
20055WAT     H260408   8.731   3.269   3.808
20056WAT      O60409   7.983   7.416   5.652
20056WAT     H160410   8.001   7.476   5.731
20056WAT     H260411   7.891   7.378   5.661
20057WAT      O60412   5.755   8.472   2.797
20057WAT     H160413   5.752   8.510   2.705
20057WAT     H260414   5.798   8.381   2.795
20058WAT      O60415   5.216   1.396   6.846
20058WAT     H160416   5.119   1.373   6.835
20058WAT     H260417   5.234   1.422   6.941
20059WAT      O60418   3.365   3.340   7.243
20059WAT     H160419   3.391   3.436   7.236
20059WAT     H260420   3.446   3.282   7.236
20060WAT      O60421   1.582   2.230   4.726
20060WAT     H160422   1.546   2.166   4.658
20060WAT     H260423   1.528   2.314   4.725
20061WAT      O60424   7.019   1.002   8.300
20061WAT     H160425   7.031   1.101   8.290
20061WAT     H260426   7.106   0.961   8.326
20062WAT      O60427   7.438   5.759   3.604
20062WAT     H160428   7.465   5.855   3.607
20062WAT     H260429   7.517   5.701   3.624
20063WAT      O60430   2.071   4.229   8.148
20063WAT     H160431   2.154   4.250   8.200
20063WAT     H260432   2.000   4.296   8.171
20064WAT      O60433   1.241   4.637   0.575
20064WAT     H160434   1.313   4.581   0.617
20064WAT     H260435   1.169   4.577   0.540
20065WAT      O60436   4.222   9.015   3.732
20065WAT     H160437   4.141   8.987   3.782
20065WAT     H260438   4.304   8.980   3.779
20066WAT      O60439   8.510   6.800   5.647
20066WAT     H160440   8.454   6.863   5.594
20066WAT     H260441   8.562   6.850   5.716
20067WAT      O60442   6.392   0.873   1.258
20067WAT     H160443   6.381   0.837   1.350
20067WAT     H260444   6.446   0.809   1.203
20068WAT      O60445   8.329   4.918   5.812
20068WAT     H160446   8.300   4.986   5.745
20068WAT     H260447   8.395   4.959   5.875
20069WAT      O60448   1.653   3.089   9.494
20069WAT     H160449   1.594   3.170   9.487
20069WAT     H260450   1.648   3.038   9.408
20070WAT      O60451   1.885   5.721   1.875
20070WAT     H160452   1.920   5.774   1.952
20070WAT     H260453   1.786   5.735   1.867
20071WAT      O60454   3.486   0.466   6.606
20071WAT     H160455   3.407   0.420   6.644
20071WAT     H260456   3.457   0.526   6.530
20072WAT      O60457   5.044   1.220   6.520
20072WAT     H160458   4.990   1.222   6.435
20072WAT     H260459   5.029   1.304   6.571
20073WAT      O60460   7.953   0.351   0.070
20073WAT     H160461   7.932   0.278   0.134
20073WAT     H260462   7.960   0.314  -0.023
20074WAT      O60463   6.175   0.298   3.856
20074WAT     H160464   6.238   0.357   3.806
20074WAT     H260465   6.082   0.310   3.820
20075WAT      O60466   1.968   9.150   3.443
20075WAT     H160467   1.971   9.225   3.509
20075WAT     H260468   1.967   9.188   3.350
20076WAT      O60469   3.087   7.784   3.415
20076WAT     H160470   3.074   7.717   3.342
20076WAT     H260471   3.184   7.803   3.426
20077WAT      O60472   1.860   7.772   1.457
20077WAT     H160473   1.808   7.827   1.392
20077WAT     H260474   1.958   7.788   1.443
20078WAT      O60475   7.297   5.044   6.889
20078WAT     H160476   7.366   5.105   6.929
20078WAT     H260477   7.263   4.983   6.960
20079WAT      O60478   2.644   7.796   4.266
20079WAT     H160479   2.590   7.871   4.304
20079WAT     H260480   2.590   7.750   4.195
20080WAT      O60481   2.901   1.976   4.181
20080WAT     H160482   2.848   1.921   4.246
20080WAT     H260483   2.877   2.072   4.192
20081WAT      O60484   0.323   8.807   4.830
20081WAT     H160485   0.246   8.865   4.804
20081WAT     H260486   0.349   8.826   4.925
20082WAT      O60487   6.485   6.269   8.987
20082WAT     H160488   6.427   6.245   9.065
20082WAT     H260489   6.472   6.201   8.914
20083WAT      O60490   0.116   8.144   2.165
20083WAT     H160491   0.117   8.047   2.190
20083WAT     H260492   0.202   8.168   2.121
20084WAT      O60493   7.862   2.675   2.778
20084WAT     H160494   7.803   2.752   2.750
20084WAT     H260495   7.826   2.591   2.739
20085WAT      O60496   1.888   4.307   1.565
20085WAT     H160497   1.932   4.311   1.654
20085WAT     H260498   1.952   4.339   1.495
20086WAT      O60499   6.218   5.183   0.791
20086WAT     H160500   6.225   5.130   0.876
20086WAT     H260501   6.295   5.245   0.784
20087WAT      O60502   1.502   1.362   0.672
20087WAT     H160503   1.407   1.388   0.656
20087WAT     H260504   1.562   1.440   0.653
20088WAT      O60505   0.551   3.309   2.877
20088WAT     H160506   0.573   3.404   2.898
20088WAT     H260507   0.633   3.253   2.889
20089WAT      O60508   7.451   4.176   7.753
20089WAT     H160509   7.470   4.151   7.848
20089WAT     H260510   7.509   4.121   7.692
20090WAT      O60511   2.055   3.338   0.499
20090WAT     H160512   2.023   3.428   0.529
20090WAT     H260513   1.997   3.267   0.540
20091WAT      O60514   6.281   3.847   9.385
20091WAT     H160515   6.201   3.792   9.411
20091WAT     H260516   6.252   3.924   9.330
20092WAT      O60517   8.739   5.837   0.238
20092WAT     H160518   8.697   5.878   0.319
20092WAT     H260519   8.706   5.743   0.227
20093WAT      O60520   5.093   8.889   8.619
20093WAT     H160521   5.061   8.842   8.701
20093WAT     H260522   5.101   8.824   8.544
20094WAT      O60523   5.012   6.372   5.553
20094WAT     H160524   5.097   6.421   5.531
20094WAT     H260525   5.031   6.274   5.560
20095WAT      O60526   7.321   1.883   0.851
20095WAT     H160527   7.346   1.814   0.783
20095WAT     H260528   7.290   1.837   0.934
20096WAT      O60529   8.332   5.670   1.124
20096WAT     H160530   8.380   5.683   1.211
20096WAT     H260531   8.276   5.750   1.104
20097WAT      O60532   2.186   8.180   7.375
20097WAT     H160533   2.089   8.203   7.367
20097WAT     H260534   2.210   8.112   7.305
20098WAT      O60535   7.304   4.547   4.449
20098WAT     H160536   7.382   4.499   4.409
20098WAT     H260537   7.284   4.508   4.539
20099WAT      O60538   4.172   6.614   3.523
20099WAT     H160539   4.118   6.532   3.510
20099WAT     H260540   4.227   6.631   3.441
20100WAT      O60541   3.941   6.902   0.725
20100WAT     H160542   3.953   6.803   0.726
20100WAT     H260543   3.883   6.930   0.802
20101WAT      O60544   7.699   5.090   4.828
20101WAT     H160545   7.697   5.078   4.729
20101WAT     H260546   7.791   5.120   4.856
20102WAT      O60547   9.714   3.413   9.347
20102WAT     H160548   9.743   3.349   9.417
20102WAT     H260549   9.623   3.387   9.314
20103WAT      O60550   8.059   1.347   5.634
20103WAT     H160551   8.107   1.435   5.631
20103WAT     H260552   7.991   1.350   5.707
20104WAT      O60553   7.082   1.773   7.224
20104WAT     H160554   7.006   1.822   7.182
20104WAT     H260555   7.080   1.677   7.195
20105WAT      O60556   5.247   8.765   4.246
20105WAT     H160557   5.328   8.761   4.187
20105WAT     H260558   5.169   8.724   4.198
20106WAT      O60559   6.082   3.431   8.235
20106WAT     H160560   6.035   3.460   8.152
20106WAT     H260561   6.081   3.332   8.242
20107WAT      O60562   4.667   2.143   9.496
20107WAT     H160563   4.673   2.091   9.411
20107WAT     H260564   4.587   2.115   9.547
20108WAT      O60565   7.772   3.546   0.261
20108WAT     H160566   7.710   3.488   0.208
20108WAT     H260567   7.808   3.618   0.203
20109WAT      O60568   8.162   8.384   6.835
20109WAT     H160569   8.193   8.377   6.740
20109WAT     H260570   8.077   8.437   6.838
20110WAT      O60571   8.585   8.461   2.944
20110WAT     H160572   8.544   8.440   2.855
20110WAT     H260573   8.535   8.536   2.987
20111WAT      O60574   6.838   5.327   4.463
20111WAT     H160575   6.762   5.390   4.477
20111WAT     H260576   6.804   5.233   4.466
20112WAT      O60577   9.814   4.895   4.515
20112WAT     H160578   9.763   4.922   4.597
20112WAT     H260579   9.803   4.797   4.500
20113WAT      O60580   1.306   7.374   4.366
20113WAT     H160581   1.222   7.404   4.323
20113WAT     H260582   1.287   7.296   4.426
20114WAT      O60583   4.051   7.830   5.111
20114WAT     H160584   3.958   7.795   5.105
20114WAT     H260585   4.070   7.860   5.204
20115WAT      O60586   5.620   7.658   1.977
20115WAT     H160587   5.628   7.718   2.057
20115WAT     H260588   5.697   7.594   1.977
20116WAT      O60589   9.054   1.439   8.824
20116WAT     H160590   9.028   1.360   8.768
20116WAT     H260591   9.028   1.424   8.919
20117WAT      O60592   3.745   6.356   4.126
20117WAT     H160593   3.841   6.334   4.111
20117WAT     H260594   3.736   6.419   4.203
20118WAT      O60595   3.511   7.846   7.613
20118WAT     H160596   3.480   7.898   7.534
20118WAT     H260597   3.443   7.853   7.686
20119WAT      O60598   5.415   0.333   1.715
20119WAT     H160599   5.362   0.411   1.684
20119WAT     H260600   5.512   0.349   1.698
20120WAT      O60601   2.450   1.800   5.864
20120WAT     H160602   2.434   1.748   5.780
20120WAT     H260603   2.370   1.791   5.923
20121WAT      O60604   6.694   5.628   9.089
20121WAT     H160605   6.632   5.615   9.166
20121WAT     H260606   6.642   5.651   9.007
20122WAT      O60607   0.033   0.671   7.250
20122WAT     H160608   0.122   0.627   7.264
20122WAT     H260609   0.008   0.666   7.154
20123WAT      O60610   5.852   0.442   0.437
20123WAT     H160611   5.828   0.474   0.528
20123WAT     H260612   5.914   0.365   0.443
20124WAT      O60613   9.262   3.114   0.911
20124WAT     H160614   9.361   3.121   0.923
20124WAT     H260615   9.231   3.024   0.939
20125WAT      O60616   3.220   2.527   5.016
20125WAT     H160617   3.126   2.555   5.035
20125WAT     H260618   3.275   2.538   5.099
20126WAT      O60619   8.457   6.225   6.583
20126WAT     H160620   8.541   6.231   6.635
20126WAT     H260621   8.378   6.227   6.645
20127WAT      O60622   8.538   7.330   2.948
20127WAT     H160623   8.466   7.346   3.015
20127WAT     H260624   8.567   7.416   2.908
20128WAT      O60625   4.685   4.075   2.568
20128WAT     H160626   4.609   4.109   2.622
20128WAT     H260627   4.659   3.991   2.521
20129WAT      O60628   3.645   9.301   2.040
20129WAT     H160629   3.583   9.301   1.962
20129WAT     H260630   3.594   9.317   2.125
20130WAT      O60631   4.376   1.790   2.752
20130WAT     H160632   4.407   1.857   2.684
20130WAT     H260633   4.438   1.793   2.831
20131WAT      O60634   2.666   5.526   2.278
20131WAT     H160635   2.752   5.505   2.231
20131WAT     H260636   2.622   5.441   2.307
20132WAT      O60637   1.309   5.002   6.363
20132WAT     H160638   1.315   5.099   6.339
20132WAT     H260639   1.355   4.986   6.450
20133WAT      O60640   2.971   3.356   1.395
20133WAT     H160641   3.044   3.424   1.399
20133WAT     H260642   3.010   3.265   1.411
20134WAT      O60643   2.906   5.352   0.528
20134WAT     H160644   2.950   5.442   0.518
20134WAT     H260645   2.814   5.356   0.490
20135WAT      O60646   7.828   6.456   2.968
20135WAT     H160647   7.778   6.419   3.046
20135WAT     H260648   7.812   6.398   2.888
20136WAT      O60649   3.393   2.274   8.926
20136WAT     H160650   3.299   2.253   8.901
20136WAT     H260651   3.449   2.192   8.918
20137WAT      O60652   4.708   7.516   7.602
20137WAT     H160653   4.698   7.586   7.673
20137WAT     H260654   4.772   7.547   7.533
20138WAT      O60655   7.242   6.719   7.249
20138WAT     H160656   7.196   6.762   7.327
20138WAT     H260657   7.205   6.757   7.164
20139WAT      O60658   3.157   4.099   0.380
20139WAT     H160659   3.098   4.138   0.310
20139WAT     H260660   3.177   4.003   0.357
20140WAT      O60661   4.590   9.670   9.412
20140WAT     H160662   4.547   9.718   9.488
20140WAT     H260663   4.529   9.596   9.381
20141WAT      O60664   5.863   1.992   9.731
20141WAT     H160665   5.873   2.091   9.737
20141WAT     H260666   5.847   1.955   9.823
20142WAT      O60667   3.759   3.325   9.388
20142WAT     H160668   3.792   3.380   9.312
20142WAT     H260669   3.827   3.255   9.410
20143WAT      O60670   0.182   4.681   4.630
20143WAT     H160671   0.110   4.693   4.698
20143WAT     H260672   0.175   4.590   4.589
20144WAT      O60673   3.452   1.990   4.004
20144WAT     H160674   3.365   1.971   3.956
20144WAT     H260675   3.490   1.904   4.039
20145WAT      O60676   9.333   8.830   6.214
20145WAT     H160677   9.366   8.924   6.214
20145WAT     H260678   9.393   8.773   6.270
20146WAT      O60679   6.408   7.922   3.571
20146WAT     H160680   6.491   7.875   3.603
20146WAT     H260681   6.359   7.863   3.507
20147WAT      O60682   6.125   4.708   9.389
20147WAT     H160683   6.057   4.691   9.460
20147WAT     H260684   6.106   4.651   9.309
20148WAT      O60685   3.641   0.874   5.215
20148WAT     H160686   3.704   0.942   5.177
20148WAT     H260687   3.552   0.917   5.231
20149WAT      O60688   2.464   8.118   6.579
20149WAT     H160689   2.477   8.160   6.669
20149WAT     H260690   2.430   8.025   6.590
20150WAT      O60691   2.242   9.046   2.315
20150WAT     H160692   2.213   9.142   2.323
20150WAT     H260693   2.283   9.016   2.401
20151WAT      O60694   1.630   8.639   2.547
20151WAT     H160695   1.606   8.708   2.615
20151WAT     H260696   1.547   8.594   2.514
20152WAT      O60697   5.560   5.799   7.369
20152WAT     H160698   5.473   5.807   7.418
20152WAT     H260699   5.623   5.868   7.403
20153WAT      O60700   2.943   4.355   3.357
20153WAT     H160701   2.992   4.442   3.366
20153WAT     H260702   2.870   4.365   3.289
20154WAT      O60703   3.304   1.776   4.228
20154WAT     H160704   3.262   1.685   4.234
20154WAT     H260705   3.254   1.831   4.162
20155WAT      O60706   5.970   7.282   3.638
20155WAT     H160707   5.936   7.376   3.643
20155WAT     H260708   5.893   7.219   3.630
20156WAT      O60709   5.651   4.592   4.532
20156WAT     H160710   5.737   4.606   4.482
20156WAT     H260711   5.575   4.622   4.474
20157WAT      O60712   9.212   5.910   9.402
20157WAT     H160713   9.152   5.984   9.432
20157WAT     H260714   9.231   5.919   9.304
20158WAT      O60715   6.094   5.523   2.283
20158WAT     H160716   6.007   5.480   2.259
20158WAT     H260717   6.078   5.619   2.306
20159WAT      O60718   4.019   0.757   2.812
20159WAT     H160719   3.936   0.806   2.787
20159WAT     H260720   4.026   0.674   2.756
20160WAT      O60721   8.866   8.180   9.224
20160WAT     H160722   8.897   8.221   9.309
20160WAT     H260723   8.882   8.081   9.226
20161WAT      O60724   7.656   9.283   4.332
20161WAT     H160725   7.741   9.269   4.383
20161WAT     H260726   7.644   9.381   4.315
20162WAT      O60727   4.041   0.857   9.522
20162WAT     H160728   4.038   0.916   9.441
20162WAT     H260729   4.028   0.912   9.604
20163WAT      O60730   7.819   9.208   8.638
20163WAT     H160731   7.918   9.197   8.647
20163WAT     H260732   7.793   9.208   8.542
20164WAT      O60733   4.007   2.904   8.484
20164WAT     H160734   3.987   2.808   8.501
20164WAT     H260735   4.060   2.941   8.560
20165WAT      O60736   4.472   7.948   3.427
20165WAT     H160737   4.460   8.008   3.506
20165WAT     H260738   4.561   7.902   3.433
20166WAT      O60739   4.336   9.288   0.709
20166WAT     H160740   4.393   9.346   0.767
20166WAT     H260741   4.382   9.199   0.697
20167WAT      O60742   4.042   5.954   7.834
20167WAT     H160743   3.972   6.021   7.811
20167WAT     H260744   4.095   5.986   7.912
20168WAT      O60745   3.259   9.723   8.071
20168WAT     H160746   3.296   9.723   8.164
20168WAT     H260747   3.227   9.631   8.048
20169WAT      O60748   1.802   7.164   2.523
20169WAT     H160749   1.870   7.112   2.575
20169WAT     H260750   1.806   7.261   2.550
20170WAT      O60751   4.470   8.195   1.634
20170WAT     H160752   4.398   8.133   1.665
20170WAT     H260753   4.502   8.166   1.544
20171WAT      O60754   2.224   9.073   7.839
20171WAT     H160755   2.131   9.038   7.846
20171WAT     H260756   2.226   9.169   7.866
20172WAT      O60757   7.326   8.946   8.865
20172WAT     H160758   7.362   9.039   8.865
20172WAT     H260759   7.267   8.934   8.785
20173WAT      O60760   9.079   6.709   2.574
20173WAT     H160761   9.152   6.712   2.642
20173WAT     H260762   9.048   6.802   2.555
20174WAT      O60763   6.670   8.307   6.290
20174WAT     H160764   6.759   8.334   6.327
20174WAT     H260765   6.675   8.300   6.190
20175WAT      O60766   8.881   5.795   7.039
20175WAT     H160767   8.964   5.796   7.094
20175WAT     H260768   8.901   5.754   6.950
20176WAT      O60769   4.637   9.578   5.663
20176WAT     H160770   4.715   9.517   5.651
20176WAT     H260771   4.565   9.531   5.715
20177WAT      O60772   9.522   8.867   2.226
20177WAT     H160773   9.599   8.829   2.277
20177WAT     H260774   9.438   8.819   2.251
20178WAT      O60775   3.454   2.967   0.335
20178WAT     H160776   3.546   2.982   0.373
20178WAT     H260777   3.386   3.009   0.396
20179WAT      O60778   6.555   4.126   5.545
20179WAT     H160779   6.622   4.121   5.471
20179WAT     H260780   6.558   4.218   5.586
20180WAT      O60781   9.792   1.493   1.813
20180WAT     H160782   9.774   1.463   1.719
20180WAT     H260783   9.749   1.430   1.877
20181WAT      O60784   0.597   6.670   3.301
20181WAT     H160785   0.675   6.732   3.293
20181WAT     H260786   0.539   6.699   3.377
20182WAT      O60787   8.707   5.704   3.340
20182WAT     H160788   8.670   5.781   3.392
20182WAT     H260789   8.633   5.658   3.291
20183WAT      O60790   9.646   2.867   4.691
20183WAT     H160791   9.640   2.800   4.617
20183WAT     H260792   9.736   2.859   4.735
20184WAT      O60793   9.319   2.915   6.323
20184WAT     H160794   9.233   2.864   6.333
20184WAT     H260795   9.328   2.980   6.397
20185WAT      O60796   0.915   6.834   1.788
20185WAT     H160797   1.015   6.828   1.781
20185WAT     H260798   0.881   6.757   1.841
20186WAT      O60799   2.856   1.135   7.101
20186WAT     H160800   2.774   1.100   7.056
20186WAT     H260801   2.896   1.063   7.158
20187WAT      O60802   6.279   6.391   9.469
20187WAT     H160803   6.224   6.310   9.450
20187WAT     H260804   6.221   6.472   9.470
20188WAT      O60805   0.639   8.504   3.173
20188WAT     H160806   0.621   8.449   3.254
20188WAT     H260807   0.628   8.448   3.091
20189WAT      O60808   6.218   9.279   7.116
20189WAT     H160809   6.309   9.242   7.097
20189WAT     H260810   6.225   9.355   7.181
20190WAT      O60811   8.713   7.687   3.814
20190WAT     H160812   8.628   7.739   3.806
20190WAT     H260813   8.715   7.616   3.743
20191WAT      O60814   6.733   3.875   5.797
20191WAT     H160815   6.683   3.872   5.710
20191WAT     H260816   6.798   3.799   5.801
20192WAT      O60817   8.799   7.744   5.913
20192WAT     H160818   8.895   7.716   5.922
20192WAT     H260819   8.761   7.704   5.829
20193WAT      O60820   3.540   5.728   7.006
20193WAT     H160821   3.453   5.745   7.052
20193WAT     H260822   3.558   5.630   7.003
20194WAT      O60823   0.813   8.951   3.162
20194WAT     H160824   0.815   9.018   3.237
20194WAT     H260825   0.855   8.990   3.081
20195WAT      O60826   5.562   9.301   9.155
20195WAT     H160827   5.464   9.305   9.135
20195WAT     H260828   5.577   9.251   9.240
20196WAT      O60829   1.898   5.564   0.660
20196WAT     H160830   1.818   5.575   0.719
20196WAT     H260831   1.933   5.471   0.667
20197WAT      O60832   5.873   9.805   4.493
20197WAT     H160833   5.916   9.860   4.564
20197WAT     H260834   5.929   9.807   4.410
20198WAT      O60835   6.642   0.363   5.373
20198WAT     H160836   6.585   0.283   5.389
20198WAT     H260837   6.683   0.393   5.459
20199WAT      O60838   0.319   5.890   3.488
20199WAT     H160839   0.328   5.878   3.587
20199WAT     H260840   0.224   5.911   3.466
20200WAT      O60841   8.994   7.195   6.360
20200WAT     H160842   8.986   7.281   6.411
20200WAT     H260843   9.049   7.210   6.278
20201WAT      O60844   4.866   7.733   7.878
20201WAT     H160845   4.926   7.730   7.798
20201WAT     H260846   4.905   7.796   7.945
20202WAT      O60847   0.671   1.395   8.655
20202WAT     H160848   0.724   1.324   8.610
20202WAT     H260849   0.573   1.375   8.646
20203WAT      O60850   3.373   7.810   3.413
20203WAT     H160851   3.443   7.838   3.479
20203WAT     H260852   3.397   7.720   3.376
20204WAT      O60853   1.309   2.833   9.619
20204WAT     H160854   1.264   2.790   9.696
20204WAT     H260855   1.245   2.842   9.543
20205WAT      O60856   3.530   6.167   4.962
20205WAT     H160857   3.592   6.219   4.903
20205WAT     H260858   3.436   6.193   4.943
20206WAT      O60859   2.167   1.906   7.497
20206WAT     H160860   2.172   1.829   7.560
20206WAT     H260861   2.259   1.934   7.472
20207WAT      O60862   0.301   5.507   4.822
20207WAT     H160863   0.278   5.548   4.911
20207WAT     H260864   0.357   5.426   4.837
20208WAT      O60865   9.305   3.086   3.106
20208WAT     H160866   9.260   3.010   3.152
20208WAT     H260867   9.306   3.166   3.167
20209WAT      O60868   9.820   2.776   5.940
20209WAT     H160869   9.897   2.753   6.000
20209WAT     H260870   9.735   2.747   5.983
20210WAT      O60871   9.067   5.442   2.091
20210WAT     H160872   9.066   5.418   1.993
20210WAT     H260873   9.153   5.488   2.113
20211WAT      O60874   5.123   2.096   1.197
20211WAT     H160875   5.052   2.051   1.251
20211WAT     H260876   5.136   2.189   1.230
20212WAT      O60877   7.672   3.147   5.509
20212WAT     H160878   7.662   3.244   5.486
20212WAT     H260879   7.609   3.123   5.582
20213WAT      O60880   9.235   7.382   7.158
20213WAT     H160881   9.324   7.335   7.154
20213WAT     H260882   9.247   7.473   7.196
20214WAT      O60883   9.005   8.793   8.389
20214WAT     H160884   9.065   8.718   8.360
20214WAT     H260885   8.916   8.757   8.415
20215WAT      O60886   7.068   1.028   2.342
20215WAT     H160887   7.040   1.056   2.250
20215WAT     H260888   7.098   1.108   2.394
20216WAT      O60889   8.522   4.374   0.833
20216WAT     H160890   8.436   4.426   0.834
20216WAT     H260891   8.541   4.340   0.925
20217WAT      O60892   3.860   0.985   4.862
20217WAT     H160893   3.840   0.996   4.959
20217WAT     H260894   3.954   1.015   4.844
20218WAT      O60895   5.651   2.463   4.294
20218WAT     H160896   5.710   2.428   4.222
20218WAT     H260897   5.707   2.484   4.375
20219WAT      O60898   3.471   6.626   9.616
20219WAT     H160899   3.450   6.529   9.603
20219WAT     H260900   3.394   6.672   9.658
20220WAT      O60901   9.777   4.607   6.177
20220WAT     H160902   9.730   4.581   6.261
20220WAT     H260903   9.833   4.688   6.193
20221WAT      O60904   0.196   9.154   6.955
20221WAT     H160905   0.276   9.152   6.895
20221WAT     H260906   0.175   9.061   6.986
20222WAT      O60907   8.164   4.022   5.737
20222WAT     H160908   8.202   4.105   5.697
20222WAT     H260909   8.102   4.046   5.811
20223WAT      O60910   2.222   4.131   7.193
20223WAT     H160911   2.152   4.080   7.143
20223WAT     H260912   2.223   4.226   7.160
20224WAT      O60913   1.698   9.282   1.202
20224WAT     H160914   1.772   9.215   1.201
20224WAT     H260915   1.637   9.263   1.279
20225WAT      O60916   9.373   9.148   9.779
20225WAT     H160917   9.311   9.210   9.729
20225WAT     H260918   9.333   9.056   9.781
20226WAT      O60919   9.132   1.040   6.886
20226WAT     H160920   9.060   1.008   6.947
20226WAT     H260921   9.203   0.970   6.880
20227WAT      O60922   3.044   7.101   3.523
20227WAT     H160923   3.086   7.043   3.453
20227WAT     H260924   3.051   7.197   3.495
20228WAT      O60925   0.624   4.250   4.037
20228WAT     H160926   0.607   4.342   4.072
20228WAT     H260927   0.722   4.231   4.040
20229WAT      O60928   7.756   3.471   1.617
20229WAT     H160929   7.781   3.539   1.549
20229WAT     H260930   7.735   3.516   1.704
20230WAT      O60931   4.533   9.302   7.067
20230WAT     H160932   4.505   9.387   7.111
20230WAT     H260933   4.632   9.294   7.071
20231WAT      O60934   8.491   1.063   1.429
20231WAT     H160935   8.471   1.139   1.491
20231WAT     H260936   8.589   1.047   1.427
20232WAT      O60937   2.158   8.896   9.606
20232WAT     H160938   2.105   8.811   9.600
20232WAT     H260939   2.215   8.894   9.688
20233WAT      O60940   4.594   5.830   8.070
20233WAT     H160941   4.542   5.890   8.131
20233WAT     H260942   4.681   5.874   8.048
20234WAT      O60943   6.999   0.716   5.204
20234WAT     H160944   7.029   0.685   5.114
20234WAT     H260945   6.956   0.806   5.196
20235WAT      O60946   4.437   9.212   4.147
20235WAT     H160947   4.377   9.145   4.103
20235WAT     H260948   4.464   9.178   4.237
20236WAT      O60949   8.897   4.198   7.096
20236WAT     H160950   8.992   4.225   7.106
20236WAT     H260951   8.891   4.099   7.090
20237WAT      O60952   7.323   9.564   4.953
20237WAT     H160953   7.315   9.650   5.003
20237WAT     H260954   7.236   9.544   4.907
20238WAT      O60955   1.671   4.233   5.549
20238WAT     H160956   1.763   4.236   5.589
20238WAT     H260957   1.677   4.209   5.453
20239WAT      O60958   2.298   8.525   4.821
20239WAT     H160959   2.272   8.611   4.778
20239WAT     H260960   2.228   8.498   4.887
20240WAT      O60961   1.531   5.865   7.029
20240WAT     H160962   1.511   5.916   7.113
20240WAT     H260963   1.462   5.793   7.017
20241WAT      O60964   4.860   9.704   4.615
20241WAT     H160965   4.823   9.745   4.532
20241WAT     H260966   4.790   9.647   4.659
20242WAT      O60967   0.816   9.538   5.773
20242WAT     H160968   0.739   9.598   5.797
20242WAT     H260969   0.851   9.564   5.683
20243WAT      O60970   5.793   0.474   6.947
20243WAT     H160971   5.715   0.412   6.946
20243WAT     H260972   5.809   0.506   7.040
20244WAT      O60973   8.979   7.016   0.666
20244WAT     H160974   9.004   7.083   0.595
20244WAT     H260975   8.898   6.965   0.636
20245WAT      O60976   8.005   1.043   7.712
20245WAT     H160977   7.961   1.130   7.735
20245WAT     H260978   8.069   1.018   7.785
20246WAT      O60979   1.212   8.519   9.748
20246WAT     H160980   1.238   8.512   9.845
20246WAT     H260981   1.281   8.475   9.691
20247WAT      O60982   0.586   7.412   9.871
20247WAT     H160983   0.686   7.410   9.877
20247WAT     H260984   0.556   7.354   9.796
20248WAT      O60985   5.481   4.449   5.150
20248WAT     H160986   5.539   4.421   5.073
20248WAT     H260987   5.435   4.535   5.127
20249WAT      O60988   6.292   0.271   2.970
20249WAT     H160989   6.390   0.264   2.952
20249WAT     H260990   6.242   0.278   2.883
20250WAT      O60991   2.588   8.154   3.791
20250WAT     H160992   2.590   8.186   3.886
20250WAT     H260993   2.610   8.056   3.788
20251WAT      O60994   6.562   4.502   2.891
20251WAT     H160995   6.599   4.559   2.818
20251WAT     H260996   6.476   4.541   2.924
20252WAT      O60997   4.229   0.253   1.326
20252WAT     H160998   4.161   0.195   1.280
20252WAT     H260999   4.203   0.349   1.316
20253WAT      O61000   2.391   1.660   6.895
20253WAT     H161001   2.463   1.673   6.964
20253WAT     H261002   2.305   1.639   6.940
20254WAT      O61003   6.656   7.926   4.778
20254WAT     H161004   6.605   7.844   4.751
20254WAT     H261005   6.751   7.901   4.797
20255WAT      O61006   7.715   0.290   2.377
20255WAT     H161007   7.800   0.240   2.391
20255WAT     H261008   7.683   0.274   2.283
20256WAT      O61009   5.882   8.418   7.603
20256WAT     H161010   5.945   8.413   7.681
20256WAT     H261011   5.788   8.426   7.636
20257WAT      O61012   1.015   7.343   3.276
20257WAT     H161013   1.073   7.262   3.279
20257WAT     H261014   1.045   7.403   3.202
20258WAT      O61015   5.658   1.959   4.707
20258WAT     H161016   5.603   1.995   4.631
20258WAT     H261017   5.720   1.889   4.673
20259WAT      O61018   2.903   3.865   4.382
20259WAT     H161019   2.921   3.898   4.475
20259WAT     H261020   2.945   3.927   4.316
20260WAT      O61021   5.950   2.099   4.586
20260WAT     H161022   5.880   2.169   4.597
20260WAT     H261023   5.936   2.052   4.499
20261WAT      O61024   3.569   8.893   0.182
20261WAT     H161025   3.628   8.816   0.156
20261WAT     H261026   3.603   8.934   0.267
20262WAT      O61027   0.828   1.489   7.856
20262WAT     H161028   0.833   1.489   7.955
20262WAT     H261029   0.899   1.550   7.819
20263WAT      O61030   5.099   3.635   3.802
20263WAT     H161031   5.125   3.546   3.840
20263WAT     H261032   5.152   3.652   3.718
20264WAT      O61033   5.958   6.248   8.820
20264WAT     H161034   5.860   6.233   8.832
20264WAT     H261035   6.008   6.179   8.874
20265WAT      O61036   5.381   0.856   2.567
20265WAT     H161037   5.351   0.920   2.638
20265WAT     H261038   5.481   0.851   2.567
20266WAT      O61039   1.892   0.324   4.323
20266WAT     H161040   1.982   0.355   4.293
20266WAT     H261041   1.897   0.294   4.419
20267WAT      O61042   0.908   3.467   7.801
20267WAT     H161043   0.897   3.511   7.890
20267WAT     H261044   0.819   3.457   7.757
20268WAT      O61045   4.732   5.931   8.931
20268WAT     H161046   4.687   5.922   9.020
20268WAT     H261047   4.775   5.844   8.907
20269WAT      O61048   6.703   7.750   5.641
20269WAT     H161049   6.713   7.689   5.562
20269WAT     H261050   6.625   7.720   5.696
20270WAT      O61051   6.655   7.338   2.653
20270WAT     H161052   6.720   7.408   2.624
20270WAT     H261053   6.592   7.318   2.578
20271WAT      O61054   1.257   9.765   4.593
20271WAT     H161055   1.250   9.667   4.611
20271WAT     H261056   1.204   9.788   4.511
20272WAT      O61057   4.892   7.443   5.248
20272WAT     H161058   4.894   7.446   5.148
20272WAT     H261059   4.921   7.352   5.278
20273WAT      O61060   3.394   9.685   8.301
20273WAT     H161061   3.456   9.724   8.233
20273WAT     H261062   3.435   9.692   8.392
20274WAT      O61063   8.653   1.305   6.216
20274WAT     H161064   8.706   1.390   6.209
20274WAT     H261065   8.567   1.323   6.264
20275WAT      O61066   5.697   7.354   5.184
20275WAT     H161067   5.649   7.274   5.147
20275WAT     H261068   5.683   7.432   5.123
20276WAT      O61069   4.318   2.051   2.382
20276WAT     H161070   4.290   2.126   2.441
20276WAT     H261071   4.381   2.085   2.312
20277WAT      O61072   8.293   7.569   9.473
20277WAT     H161073   8.310   7.666   9.493
20277WAT     H261074   8.204   7.543   9.510
20278WAT      O61075   6.172   7.574   5.383
20278WAT     H161076   6.095   7.638   5.382
20278WAT     H261077   6.153   7.499   5.320
20279WAT      O61078   3.408   8.713   2.424
20279WAT     H161079   3.317   8.704   2.384
20279WAT     H261080   3.463   8.777   2.370
20280WAT      O61081   5.979   9.029   8.504
20280WAT     H161082   5.936   9.094   8.440
20280WAT     H261083   5.935   9.036   8.593
20281WAT      O61084   6.221   3.891   6.075
20281WAT     H161085   6.184   3.981   6.096
20281WAT     H261086   6.172   3.821   6.127
20282WAT      O61087   0.662   8.364   2.935
20282WAT     H161088   0.568   8.330   2.926
20282WAT     H261089   0.726   8.292   2.910
20283WAT      O61090   9.482   1.674   3.290
20283WAT     H161091   9.401   1.675   3.231
20283WAT     H261092   9.540   1.752   3.269
20284WAT      O61093   2.610   9.095   3.030
20284WAT     H161094   2.642   9.142   3.112
20284WAT     H261095   2.512   9.114   3.018
20285WAT      O61096   5.034   4.647   9.067
20285WAT     H161097   5.127   4.633   9.100
20285WAT     H261098   4.970   4.599   9.125
20286WAT      O61099   5.721   2.207   8.935
20286WAT     H161100   5.747   2.152   9.014
20286WAT     H261101   5.737   2.304   8.956
20287WAT      O61102   6.536   2.135   8.086
20287WAT     H161103   6.452   2.114   8.135
20287WAT     H261104   6.612   2.084   8.126
20288WAT      O61105   8.171   0.517   1.558
20288WAT     H161106   8.207   0.576   1.631
20288WAT     H261107   8.106   0.452   1.597
20289WAT      O61108   7.513   6.121   8.582
20289WAT     H161109   7.518   6.188   8.508
20289WAT     H261110   7.593   6.131   8.641
20290WAT      O61111   4.975   2.796   1.411
20290WAT     H161112   4.950   2.885   1.447
20290WAT     H261113   4.993   2.804   1.313
20291WAT      O61114   7.100   3.531   5.793
20291WAT     H161115   7.179   3.519   5.854
20291WAT     H261116   7.115   3.478   5.709
20292WAT      O61117   2.242   1.512   2.022
20292WAT     H161118   2.193   1.428   2.000
20292WAT     H261119   2.286   1.502   2.111
20293WAT      O61120   9.604   4.941   5.419
20293WAT     H161121   9.590   4.986   5.331
20293WAT     H261122   9.700   4.915   5.429
20294WAT      O61123   7.988   9.472   0.677
20294WAT     H161124   8.012   9.428   0.764
20294WAT     H261125   7.910   9.424   0.636
20295WAT      O61126   3.485   3.120   2.892
20295WAT     H161127   3.463   3.023   2.893
20295WAT     H261128   3.560   3.138   2.956
20296WAT      O61129   7.279   1.971   2.686
20296WAT     H161130   7.331   1.893   2.653
20296WAT     H261131   7.341   2.044   2.714
20297WAT      O61132   5.239   3.381   4.973
20297WAT     H161133   5.173   3.315   4.937
20297WAT     H261134   5.229   3.388   5.072
20298WAT      O61135   9.880   7.392   8.782
20298WAT     H161136   9.854   7.303   8.744
20298WAT     H261137   9.965   7.383   8.833
20299WAT      O61138   6.536   1.133   5.545
20299WAT     H161139   6.559   1.212   5.487
20299WAT     H261140   6.448   1.096   5.518
20300WAT      O61141   2.719   3.469   6.314
20300WAT     H161142   2.796   3.464   6.377
20300WAT     H261143   2.680   3.561   6.315
20301WAT      O61144   4.316   2.143   1.982
20301WAT     H161145   4.265   2.084   2.045
20301WAT     H261146   4.253   2.182   1.915
20302WAT      O61147   1.526   1.851   7.418
20302WAT     H161148   1.612   1.879   7.374
20302WAT     H261149   1.453   1.849   7.351
20303WAT      O61150   2.961   8.471   6.649
20303WAT     H161151   3.007   8.426   6.572
20303WAT     H261152   3.019   8.465   6.730
20304WAT      O61153   4.821   6.148   7.837
20304WAT     H161154   4.754   6.087   7.795
20304WAT     H261155   4.797   6.243   7.818
20305WAT      O61156   8.772   3.720   0.398
20305WAT     H161157   8.718   3.802   0.418
20305WAT     H261158   8.720   3.639   0.426
20306WAT      O61159   9.519   4.008   2.484
20306WAT     H161160   9.495   4.043   2.575
20306WAT     H261161   9.437   3.970   2.441
20307WAT      O61162   1.558   3.564   1.996
20307WAT     H161163   1.599   3.554   2.086
20307WAT     H261164   1.468   3.520   1.996
20308WAT      O61165   8.210   6.596   6.659
20308WAT     H161166   8.197   6.579   6.562
20308WAT     H261167   8.239   6.512   6.705
20309WAT      O61168   4.109   0.340   4.475
20309WAT     H161169   4.030   0.282   4.455
20309WAT     H261170   4.174   0.335   4.399
20310WAT      O61171   9.185   9.267   7.755
20310WAT     H161172   9.217   9.257   7.660
20310WAT     H261173   9.160   9.177   7.791
20311WAT      O61174   5.240   5.919   6.104
20311WAT     H161175   5.151   5.904   6.062
20311WAT     H261176   5.259   5.847   6.171
20312WAT      O61177   0.300   7.923   0.574
20312WAT     H161178   0.389   7.967   0.563
20312WAT     H261179   0.246   7.973   0.642
20313WAT      O61180   2.897   6.934   8.620
20313WAT     H161181   2.870   6.963   8.529
20313WAT     H261182   2.982   6.980   8.646
20314WAT      O61183   2.519   0.201   2.153
20314WAT     H161184   2.565   0.117   2.123
20314WAT     H261185   2.441   0.219   2.093
20315WAT      O61186   7.889   9.457   9.042
20315WAT     H161187   7.988   9.453   9.059
20315WAT     H261188   7.843   9.494   9.122
20316WAT      O61189   0.398   9.354   4.084
20316WAT     H161190   0.317   9.296   4.078
20316WAT     H261191   0.478   9.298   4.101
20317WAT      O61192   2.132   1.507   8.525
20317WAT     H161193   2.097   1.552   8.607
20317WAT     H261194   2.195   1.433   8.551
20318WAT      O61195   3.279   2.992   0.583
20318WAT     H161196   3.256   2.896   0.598
20318WAT     H261197   3.375   3.008   0.609
20319WAT      O61198   3.557   6.383   6.413
20319WAT     H161199   3.535   6.323   6.489
20319WAT     H261200   3.474   6.429   6.381
20320WAT      O61201   4.773   8.401   3.737
20320WAT     H161202   4.832   8.341   3.791
20320WAT     H261203   4.829   8.463   3.683
20321WAT      O61204   4.741   2.539   5.292
20321WAT     H161205   4.772   2.460   5.238
20321WAT     H261206   4.663   2.511   5.348
20322WAT      O61207   0.409   0.856   8.082
20322WAT     H161208   0.383   0.799   8.005
20322WAT     H261209   0.421   0.799   8.164
20323WAT      O61210   6.573   3.945   4.455
20323WAT     H161211   6.579   3.968   4.552
20323WAT     H261212   6.623   3.860   4.439
20324WAT      O61213   1.043   1.822   3.895
20324WAT     H161214   1.085   1.896   3.947
20324WAT     H261215   1.113   1.779   3.837
20325WAT      O61216   5.300   2.967   7.948
20325WAT     H161217   5.386   2.972   7.998
20325WAT     H261218   5.226   3.007   8.004
20326WAT      O61219   0.734   0.789   8.749
20326WAT     H161220   0.689   0.701   8.735
20326WAT     H261221   0.666   0.862   8.748
20327WAT      O61222   3.393   5.238   0.788
20327WAT     H161223   3.386   5.138   0.784
20327WAT     H261224   3.322   5.279   0.731
20328WAT      O61225   1.084   2.355   4.554
20328WAT     H161226   0.989   2.385   4.567
20328WAT     H261227   1.123   2.328   4.642
20329WAT      O61228   4.106   8.419   3.436
20329WAT     H161229   4.038   8.487   3.409
20329WAT     H261230   4.187   8.465   3.473
20330WAT      O61231   3.116   3.019   6.418
20330WAT     H161232   3.189   3.042   6.353
20330WAT     H261233   3.037   2.985   6.368
20331WAT      O61234   6.247   9.514   1.075
20331WAT     H161235   6.217   9.548   1.164
20331WAT     H261236   6.166   9.493   1.019
20332WAT      O61237   2.791   9.123   4.371
20332WAT     H161238   2.871   9.168   4.410
20332WAT     H261239   2.815   9.032   4.339
20333WAT      O61240   2.206   8.280   9.436
20333WAT     H161241   2.134   8.314   9.497
20333WAT     H261242   2.244   8.357   9.385
20334WAT      O61243   2.185   2.950   8.626
20334WAT     H161244   2.219   2.862   8.660
20334WAT     H261245   2.141   2.936   8.537
20335WAT      O61246   9.659   2.584   6.787
20335WAT     H161247   9.573   2.601   6.738
20335WAT     H261248   9.639   2.558   6.881
20336WAT      O61249   9.855   4.440   8.247
20336WAT     H161250   9.833   4.376   8.321
20336WAT     H261251   9.823   4.403   8.160
20337WAT      O61252   0.368   0.540   2.546
20337WAT     H161253   0.422   0.624   2.545
20337WAT     H261254   0.393   0.485   2.625
20338WAT      O61255   5.429   3.721   0.190
20338WAT     H161256   5.377   3.702   0.107
20338WAT     H261257   5.526   3.717   0.170
20339WAT      O61258   4.339   9.696   1.123
20339WAT     H161259   4.271   9.653   1.183
20339WAT     H261260   4.349   9.642   1.040
20340WAT      O61261   9.609   8.878   0.064
20340WAT     H161262   9.659   8.792   0.053
20340WAT     H261263   9.610   8.905   0.160
20341WAT      O61264   7.914   1.869   7.549
20341WAT     H161265   7.856   1.933   7.500
20341WAT     H261266   7.964   1.917   7.622
20342WAT      O61267   2.243   2.335   2.732
20342WAT     H161268   2.198   2.371   2.650
20342WAT     H261269   2.342   2.342   2.721
20343WAT      O61270   3.595   4.273   0.504
20343WAT     H161271   3.618   4.197   0.565
20343WAT     H261272   3.510   4.316   0.534
20344WAT      O61273   9.435   1.081   3.317
20344WAT     H161274   9.443   1.013   3.244
20344WAT     H261275   9.524   1.124   3.332
20345WAT      O61276   3.970   1.240   7.315
20345WAT     H161277   3.910   1.181   7.259
20345WAT     H261278   3.992   1.323   7.263
20346WAT      O61279   9.589   8.680   6.629
20346WAT     H161280   9.651   8.606   6.607
20346WAT     H261281   9.497   8.643   6.646
20347WAT      O61282   3.595   1.057   1.329
20347WAT     H161283   3.506   1.097   1.305
20347WAT     H261284   3.668   1.114   1.291
20348WAT      O61285   5.204   8.766   0.676
20348WAT     H161286   5.105   8.770   0.660
20348WAT     H261287   5.226   8.685   0.730
20349WAT      O61288   7.396   9.176   6.376
20349WAT     H161289   7.401   9.189   6.277
20349WAT     H261290   7.352   9.088   6.396
20350WAT      O61291   8.873   1.766   4.009
20350WAT     H161292   8.933   1.686   4.021
20350WAT     H261293   8.786   1.750   4.056
20351WAT      O61294   7.682   7.670   1.383
20351WAT     H161295   7.659   7.650   1.288
20351WAT     H261296   7.613   7.731   1.422
20352WAT      O61297   1.163   3.969   8.185
20352WAT     H161298   1.221   3.907   8.238
20352WAT     H261299   1.123   4.038   8.246
20353WAT      O61300   3.792   2.343   6.534
20353WAT     H161301   3.826   2.252   6.556
20353WAT     H261302   3.791   2.355   6.434
20354WAT      O61303   4.255   9.250   9.354
20354WAT     H161304   4.278   9.338   9.397
20354WAT     H261305   4.328   9.184   9.372
20355WAT      O61306   1.968   1.445   7.435
20355WAT     H161307   1.882   1.413   7.476
20355WAT     H261308   2.044   1.425   7.497
20356WAT      O61309   8.368   4.759   0.112
20356WAT     H161310   8.342   4.672   0.152
20356WAT     H261311   8.338   4.763   0.016
20357WAT      O61312   8.450   5.917   7.990
20357WAT     H161313   8.502   5.831   7.987
20357WAT     H261314   8.353   5.897   7.983
20358WAT      O61315   4.156   4.208   7.930
20358WAT     H161316   4.160   4.109   7.948
20358WAT     H261317   4.065   4.233   7.899
20359WAT      O61318   4.685   6.855   0.840
20359WAT     H161319   4.705   6.853   0.742
20359WAT     H261320   4.740   6.786   0.887
20360WAT      O61321   5.461   7.270   9.288
20360WAT     H161322   5.461   7.296   9.191
20360WAT     H261323   5.367   7.268   9.321
20361WAT      O61324   4.759   2.276   7.571
20361WAT     H161325   4.825   2.205   7.544
20361WAT     H261326   4.693   2.289   7.497
20362WAT      O61327   8.674   2.727   1.855
20362WAT     H161328   8.592   2.784   1.857
20362WAT     H261329   8.734   2.758   1.782
20363WAT      O61330   0.199   1.701   6.135
20363WAT     H161331   0.261   1.644   6.190
20363WAT     H261332   0.231   1.795   6.135
20364WAT      O61333   4.998   8.888   7.625
20364WAT     H161334   5.037   8.808   7.579
20364WAT     H261335   5.071   8.938   7.672
20365WAT      O61336   1.980   2.405   5.653
20365WAT     H161337   1.997   2.320   5.604
20365WAT     H261338   1.953   2.385   5.747
20366WAT      O61339   8.811   3.905   5.287
20366WAT     H161340   8.718   3.890   5.320
20366WAT     H261341   8.823   4.002   5.265
20367WAT      O61342   3.398   2.742   6.564
20367WAT     H161343   3.424   2.657   6.610
20367WAT     H261344   3.449   2.818   6.603
20368WAT      O61345   2.143   9.664   2.627
20368WAT     H161346   2.078   9.676   2.551
20368WAT     H261347   2.203   9.744   2.632
20369WAT      O61348   7.906   2.169   4.595
20369WAT     H161349   7.833   2.149   4.530
20369WAT     H261350   7.865   2.208   4.678
20370WAT      O61351   4.710   5.052   7.052
20370WAT     H161352   4.759   5.126   7.005
20370WAT     H261353   4.677   4.985   6.985
20371WAT      O61354   0.972   0.930   6.105
20371WAT     H161355   1.050   0.920   6.166
20371WAT     H261356   0.992   0.883   6.019
20372WAT      O61357   7.842   1.171   9.855
20372WAT     H161358   7.916   1.110   9.881
20372WAT     H261359   7.869   1.266   9.871
20373WAT      O61360   6.990   1.791   2.383
20373WAT     H161361   6.969   1.870   2.325
20373WAT     H261362   6.999   1.822   2.478
20374WAT      O61363   0.518   3.451   5.266
20374WAT     H161364   0.424   3.417   5.257
20374WAT     H261365   0.545   3.496   5.181
20375WAT      O61366   9.046   6.629   9.805
20375WAT     H161367   9.074   6.699   9.871
20375WAT     H261368   9.120   6.612   9.740
20376WAT      O61369   0.085   7.024   0.343
20376WAT     H161370   0.040   7.113   0.357
20376WAT     H261371   0.128   6.995   0.428
20377WAT      O61372   2.432   1.810   8.492
20377WAT     H161373   2.406   1.799   8.588
20377WAT     H261374   2.350   1.801   8.435
20378WAT      O61375   5.955   0.224   0.885
20378WAT     H161376   5.944   0.271   0.973
20378WAT     H261377   5.952   0.292   0.812
20379WAT      O61378   2.993   9.419   4.928
20379WAT     H161379   2.951   9.508   4.942
20379WAT     H261380   2.924   9.347   4.935
20380WAT      O61381   3.047   5.654   6.751
20380WAT     H161382   3.023   5.661   6.655
20380WAT     H261383   3.111   5.727   6.775
20381WAT      O61384   7.284   0.508   3.567
20381WAT     H161385   7.265   0.606   3.567
20381WAT     H261386   7.363   0.489   3.626
20382WAT      O61387   7.835   0.079   6.857
20382WAT     H161388   7.880   0.026   6.785
20382WAT     H261389   7.895   0.083   6.937
20383WAT      O61390   5.456   2.431   1.627
20383WAT     H161391   5.471   2.457   1.531
20383WAT     H261392   5.531   2.372   1.657
20384WAT      O61393   4.245   9.270   7.836
20384WAT     H161394   4.277   9.182   7.872
20384WAT     H261395   4.246   9.267   7.736
20385WAT      O61396   1.674   0.960   4.076
20385WAT     H161397   1.653   0.885   4.138
20385WAT     H261398   1.766   0.949   4.040
20386WAT      O61399   7.348   7.990   4.686
20386WAT     H161400   7.447   7.986   4.697
20386WAT     H261401   7.317   8.085   4.695
20387WAT      O61402   1.664   6.628   5.512
20387WAT     H161403   1.757   6.637   5.477
20387WAT     H261404   1.629   6.719   5.537
20388WAT      O61405   1.310   7.973   0.828
20388WAT     H161406   1.365   7.983   0.744
20388WAT     H261407   1.275   8.062   0.855
20389WAT      O61408   4.212   2.843   8.252
20389WAT     H161409   4.269   2.887   8.183
20389WAT     H261410   4.228   2.885   8.341
20390WAT      O61411   8.162   6.502   0.491
20390WAT     H161412   8.092   6.570   0.509
20390WAT     H261413   8.196   6.465   0.577
20391WAT      O61414   5.465   1.271   9.570
20391WAT     H161415   5.518   1.188   9.585
20391WAT     H261416   5.372   1.258   9.607
20392WAT      O61417   7.891   1.169   4.719
20392WAT     H161418   7.955   1.100   4.686
20392WAT     H261419   7.941   1.248   4.754
20393WAT      O61420   1.759   3.981   8.245
20393WAT     H161421   1.770   4.041   8.324
20393WAT     H261422   1.813   4.015   8.169
20394WAT      O61423   1.453   2.274   8.727
20394WAT     H161424   1.508   2.190   8.725
20394WAT     H261425   1.491   2.336   8.797
20395WAT      O61426   3.577   6.814   7.851
20395WAT     H161427   3.626   6.750   7.910
20395WAT     H261428   3.622   6.818   7.762
20396WAT      O61429   8.749   0.833   6.569
20396WAT     H161430   8.820   0.898   6.595
20396WAT     H261431   8.769   0.797   6.478
20397WAT      O61432   0.819   5.107   0.347
20397WAT     H161433   0.837   5.190   0.293
20397WAT     H261434   0.901   5.052   0.352
20398WAT      O61435   5.145   5.362   4.567
20398WAT     H161436   5.046   5.364   4.559
20398WAT     H261437   5.180   5.277   4.528
20399WAT      O61438   0.471   9.685   1.987
20399WAT     H161439   0.445   9.683   1.891
20399WAT     H261440   0.412   9.749   2.037
20400WAT      O61441   3.623   1.937   6.737
20400WAT     H161442   3.575   1.983   6.812
20400WAT     H261443   3.703   1.991   6.711
20401WAT      O61444   7.366   8.322   7.089
20401WAT     H161445   7.455   8.359   7.113
20401WAT     H261446   7.378   8.235   7.042
20402WAT      O61447   2.198   3.152   0.950
20402WAT     H161448   2.250   3.158   1.036
20402WAT     H261449   2.130   3.225   0.948
20403WAT      O61450   7.236   6.946   0.189
20403WAT     H161451   7.301   7.010   0.150
20403WAT     H261452   7.195   6.891   0.116
20404WAT      O61453   5.822   0.313   1.445
20404WAT     H161454   5.731   0.332   1.408
20404WAT     H261455   5.889   0.372   1.400
20405WAT      O61456   5.300   0.056   1.937
20405WAT     H161457   5.276   0.062   1.840
20405WAT     H261458   5.313   0.148   1.973
20406WAT      O61459   0.129   2.519   6.421
20406WAT     H161460   0.056   2.547   6.358
20406WAT     H261461   0.096   2.528   6.515
20407WAT      O61462   8.504   4.141   5.616
20407WAT     H161463   8.443   4.184   5.550
20407WAT     H261464   8.583   4.200   5.633
20408WAT      O61465   4.944   2.741   8.503
20408WAT     H161466   4.905   2.696   8.583
20408WAT     H261467   4.960   2.838   8.524
20409WAT      O61468   2.756   6.068   3.757
20409WAT     H161469   2.823   6.105   3.692
20409WAT     H261470   2.800   6.054   3.845
20410WAT      O61471   6.741   3.678   4.725
20410WAT     H161472   6.794   3.593   4.718
20410WAT     H261473   6.794   3.753   4.685
20411WAT      O61474   8.090   6.414   3.714
20411WAT     H161475   8.151   6.360   3.655
20411WAT     H261476   8.145   6.478   3.769
20412WAT      O61477   6.951   7.781   0.448
20412WAT     H161478   7.017   7.718   0.407
20412WAT     H261479   6.931   7.855   0.383
20413WAT      O61480   4.539   4.296   8.202
20413WAT     H161481   4.620   4.350   8.178
20413WAT     H261482   4.558   4.199   8.187
20414WAT      O61483   1.574   7.050   7.056
20414WAT     H161484   1.525   7.136   7.073
20414WAT     H261485   1.623   7.057   6.969
20415WAT      O61486   1.668   8.911   9.822
20415WAT     H161487   1.728   8.862   9.885
20415WAT     H261488   1.715   8.992   9.787
20416WAT      O61489   9.565   4.057   3.419
20416WAT     H161490   9.609   4.051   3.509
20416WAT     H261491   9.488   4.121   3.425
20417WAT      O61492   6.885   6.131   3.294
20417WAT     H161493   6.876   6.203   3.224
20417WAT     H261494   6.978   6.131   3.330
20418WAT      O61495   0.446   2.171   7.300
20418WAT     H161496   0.449   2.271   7.306
20418WAT     H261497   0.443   2.133   7.393
20419WAT      O61498   6.922   2.328   4.374
20419WAT     H161499   6.825   2.312   4.395
20419WAT     H261500   6.975   2.321   4.458
20420WAT      O61501   1.626   8.019   4.253
20420WAT     H161502   1.599   8.022   4.349
20420WAT     H261503   1.720   8.051   4.244
20421WAT      O61504   3.748   7.942   8.849
20421WAT     H161505   3.798   7.899   8.774
20421WAT     H261506   3.652   7.952   8.824
20422WAT      O61507   2.751   5.224   2.107
20422WAT     H161508   2.758   5.131   2.141
20422WAT     H261509   2.655   5.253   2.108
20423WAT      O61510   8.272   3.853   9.428
20423WAT     H161511   8.371   3.848   9.440
20423WAT     H261512   8.248   3.823   9.335
20424WAT      O61513   6.895   7.719   8.179
20424WAT     H161514   6.976   7.776   8.198
20424WAT     H261515   6.918   7.623   8.194
20425WAT      O61516   6.849   4.554   6.308
20425WAT     H161517   6.856   4.629   6.373
20425WAT     H261518   6.869   4.587   6.216
20426WAT      O61519   4.179   1.491   5.055
20426WAT     H161520   4.136   1.580   5.039
20426WAT     H261521   4.173   1.468   5.152
20427WAT      O61522   6.308   8.266   3.744
20427WAT     H161523   6.284   8.216   3.828
20427WAT     H261524   6.352   8.204   3.679
20428WAT      O61525   2.604   2.430   4.692
20428WAT     H161526   2.535   2.358   4.697
20428WAT     H261527   2.567   2.509   4.643
20429WAT      O61528   3.921   2.115   1.374
20429WAT     H161529   3.931   2.016   1.367
20429WAT     H261530   4.012   2.158   1.372
20430WAT      O61531   6.782   9.688   1.898
20430WAT     H161532   6.843   9.618   1.935
20430WAT     H261533   6.752   9.748   1.971
20431WAT      O61534   0.719   7.773   0.179
20431WAT     H161535   0.743   7.845   0.245
20431WAT     H261536   0.691   7.691   0.229
20432WAT      O61537   7.312   1.998   4.015
20432WAT     H161538   7.359   1.930   4.071
20432WAT     H261539   7.281   1.955   3.930
20433WAT      O61540   8.219   9.481   2.745
20433WAT     H161541   8.152   9.419   2.703
20433WAT     H261542   8.185   9.574   2.742
20434WAT      O61543   9.172   6.482   4.144
20434WAT     H161544   9.151   6.412   4.212
20434WAT     H261545   9.270   6.501   4.143
20435WAT      O61546   9.174   9.665   3.765
20435WAT     H161547   9.152   9.571   3.792
20435WAT     H261548   9.268   9.687   3.792
20436WAT      O61549   4.346   1.524   9.692
20436WAT     H161550   4.434   1.561   9.723
20436WAT     H261551   4.354   1.426   9.677
20437WAT      O61552   6.636   4.945   0.123
20437WAT     H161553   6.542   4.912   0.130
20437WAT     H261554   6.648   4.996   0.038
20438WAT      O61555   0.573   4.448   1.691
20438WAT     H161556   0.511   4.462   1.613
20438WAT     H261557   0.534   4.378   1.752
20439WAT      O61558   3.116   3.074   8.888
20439WAT     H161559   3.022   3.043   8.879
20439WAT     H261560   3.126   3.164   8.844
20440WAT      O61561   8.444   8.851   2.644
20440WAT     H161562   8.471   8.884   2.735
20440WAT     H261563   8.365   8.902   2.612
20441WAT      O61564   7.638   9.775   5.708
20441WAT     H161565   7.668   9.723   5.788
20441WAT     H261566   7.679   9.866   5.710
20442WAT      O61567   5.932   7.532   1.430
20442WAT     H161568   5.903   7.548   1.335
20442WAT     H261569   5.971   7.616   1.467
20443WAT      O61570   6.090   2.915   8.390
20443WAT     H161571   6.080   3.014   8.384
20443WAT     H261572   6.053   2.883   8.478
20444WAT      O61573   3.598   3.944   3.301
20444WAT     H161574   3.567   3.974   3.210
20444WAT     H261575   3.659   4.012   3.340
20445WAT      O61576   7.311   2.530   3.803
20445WAT     H161577   7.372   2.453   3.783
20445WAT     H261578   7.319   2.555   3.900
20446WAT      O61579   4.382   9.053   4.977
20446WAT     H161580   4.356   8.968   5.022
20446WAT     H261581   4.302   9.111   4.964
20447WAT      O61582   6.603   5.174   0.317
20447WAT     H161583   6.635   5.111   0.246
20447WAT     H261584   6.549   5.124   0.385
20448WAT      O61585   0.690   6.309   0.687
20448WAT     H161586   0.694   6.388   0.625
20448WAT     H261587   0.781   6.266   0.691
20449WAT      O61588   8.434   7.173   1.154
20449WAT     H161589   8.515   7.172   1.213
20449WAT     H261590   8.449   7.237   1.079
20450WAT      O61591   3.078   1.472   8.641
20450WAT     H161592   3.017   1.521   8.702
20450WAT     H261593   3.143   1.418   8.694
20451WAT      O61594   8.756   2.340   6.728
20451WAT     H161595   8.691   2.279   6.682
20451WAT     H261596   8.831   2.285   6.766
20452WAT      O61597   1.181   2.479   8.508
20452WAT     H161598   1.277   2.458   8.525
20452WAT     H261599   1.136   2.502   8.594
20453WAT      O61600   2.520   3.333   5.034
20453WAT     H161601   2.527   3.330   4.934
20453WAT     H261602   2.423   3.342   5.060
20454WAT      O61603   0.481   7.238   5.248
20454WAT     H161604   0.427   7.260   5.166
20454WAT     H261605   0.505   7.323   5.295
20455WAT      O61606   5.233   5.041   1.918
20455WAT     H161607   5.283   5.045   1.832
20455WAT     H261608   5.296   5.060   1.994
20456WAT      O61609   5.137   8.943   2.145
20456WAT     H161610   5.089   9.030   2.132
20456WAT     H261611   5.133   8.889   2.060
20457WAT      O61612   5.538   0.046   9.165
20457WAT     H161613   5.488  -0.034   9.197
20457WAT     H261614   5.599   0.020   9.089
20458WAT      O61615   7.897   8.246   2.153
20458WAT     H161616   7.924   8.290   2.068
20458WAT     H261617   7.806   8.280   2.180
20459WAT      O61618   5.387   3.434   8.726
20459WAT     H161619   5.369   3.518   8.675
20459WAT     H261620   5.347   3.356   8.678
20460WAT      O61621   5.785   6.352   6.050
20460WAT     H161622   5.791   6.369   5.951
20460WAT     H261623   5.713   6.285   6.067
20461WAT      O61624   5.914   3.386   2.836
20461WAT     H161625   5.912   3.482   2.809
20461WAT     H261626   5.980   3.373   2.910
20462WAT      O61627   3.413   9.541   1.872
20462WAT     H161628   3.490   9.605   1.886
20462WAT     H261629   3.449   9.449   1.859
20463WAT      O61630   2.951   2.512   4.967
20463WAT     H161631   2.959   2.585   4.899
20463WAT     H261632   2.861   2.470   4.961
20464WAT      O61633   4.642   6.512   6.694
20464WAT     H161634   4.554   6.545   6.658
20464WAT     H261635   4.660   6.557   6.781
20465WAT      O61636   0.520   9.747   2.855
20465WAT     H161637   0.494   9.678   2.788
20465WAT     H261638   0.489   9.837   2.823
20466WAT      O61639   1.319   2.247   5.913
20466WAT     H161640   1.252   2.234   5.986
20466WAT     H261641   1.312   2.171   5.847
20467WAT      O61642   2.337   0.991   5.722
20467WAT     H161643   2.331   1.090   5.737
20467WAT     H261644   2.324   0.944   5.809
20468WAT      O61645   5.068   5.232   8.911
20468WAT     H161646   5.013   5.153   8.884
20468WAT     H261647   5.158   5.201   8.941
20469WAT      O61648   3.904   6.908   4.957
20469WAT     H161649   3.823   6.926   4.901
20469WAT     H261650   3.930   6.992   5.006
20470WAT      O61651   9.622   8.341   5.653
20470WAT     H161652   9.571   8.404   5.711
20470WAT     H261653   9.673   8.277   5.710
20471WAT      O61654   9.553   9.812   9.388
20471WAT     H161655   9.577   9.789   9.294
20471WAT     H261656   9.624   9.872   9.427
20472WAT      O61657   2.056   2.518   0.039
20472WAT     H161658   2.052   2.446   0.108
20472WAT     H261659   1.999   2.594   0.067
20473WAT      O61660   6.316   6.637   2.814
20473WAT     H161661   6.225   6.640   2.856
20473WAT     H261662   6.350   6.730   2.802
20474WAT      O61663   3.170   7.657   0.888
20474WAT     H161664   3.221   7.744   0.890
20474WAT     H261665   3.087   7.668   0.833
20475WAT      O61666   7.053   5.468   4.295
20475WAT     H161667   7.048   5.564   4.266
20475WAT     H261668   6.978   5.449   4.358
20476WAT      O61669   1.729   0.669   1.895
20476WAT     H161670   1.666   0.737   1.933
20476WAT     H261671   1.699   0.577   1.922
20477WAT      O61672   7.532   3.171   0.511
20477WAT     H161673   7.587   3.251   0.535
20477WAT     H261674   7.463   3.155   0.582
20478WAT      O61675   8.072   3.986   2.859
20478WAT     H161676   8.097   3.972   2.764
20478WAT     H261677   8.121   3.922   2.917
20479WAT      O61678   7.072   2.432   3.664
20479WAT     H161679   7.108   2.344   3.631
20479WAT     H261680   7.139   2.474   3.725
20480WAT      O61681   4.520   0.943   5.299
20480WAT     H161682   4.486   0.998   5.375
20480WAT     H261683   4.549   0.853   5.333
20481WAT      O61684   8.788   2.336   3.872
20481WAT     H161685   8.808   2.378   3.784
20481WAT     H261686   8.784   2.237   3.861
20482WAT      O61687   6.247   7.956   4.806
20482WAT     H161688   6.292   7.892   4.868
20482WAT     H261689   6.285   7.947   4.714
20483WAT      O61690   5.077   7.525   4.799
20483WAT     H161691   5.124   7.501   4.884
20483WAT     H261692   5.120   7.476   4.723
20484WAT      O61693   8.221   7.192   8.410
20484WAT     H161694   8.220   7.269   8.475
20484WAT     H261695   8.195   7.225   8.319
20485WAT      O61696   2.592   5.413   5.253
20485WAT     H161697   2.603   5.330   5.307
20485WAT     H261698   2.583   5.492   5.314
20486WAT      O61699   0.154   0.364   4.764
20486WAT     H161700   0.206   0.311   4.831
20486WAT     H261701   0.192   0.349   4.673
20487WAT      O61702   7.016   4.871   9.152
20487WAT     H161703   7.091   4.869   9.086
20487WAT     H261704   6.940   4.816   9.117
20488WAT      O61705   5.670   1.511   3.275
20488WAT     H161706   5.708   1.540   3.187
20488WAT     H261707   5.571   1.527   3.275
20489WAT      O61708   2.826   6.955   6.888
20489WAT     H161709   2.809   6.873   6.942
20489WAT     H261710   2.918   6.990   6.909
20490WAT      O61711   1.148   2.112   5.245
20490WAT     H161712   1.207   2.107   5.165
20490WAT     H261713   1.168   2.036   5.307
20491WAT      O61714   0.065   4.883   1.658
20491WAT     H161715   0.083   4.973   1.619
20491WAT     H261716  -0.014   4.888   1.720
20492WAT      O61717   4.378   3.440   2.226
20492WAT     H161718   4.327   3.436   2.312
20492WAT     H261719   4.447   3.367   2.224
20493WAT      O61720   0.957   7.379   3.530
20493WAT     H161721   0.959   7.385   3.430
20493WAT     H261722   0.893   7.446   3.566
20494WAT      O61723   9.115   7.186   5.206
20494WAT     H161724   9.195   7.129   5.227
20494WAT     H261725   9.059   7.140   5.137
20495WAT      O61726   3.088   6.638   7.770
20495WAT     H161727   3.149   6.714   7.747
20495WAT     H261728   3.136   6.552   7.758
20496WAT      O61729   6.156   7.368   4.238
20496WAT     H161730   6.057   7.376   4.223
20496WAT     H261731   6.201   7.348   4.151
20497WAT      O61732   6.120   2.415   1.288
20497WAT     H161733   6.127   2.467   1.373
20497WAT     H261734   6.178   2.456   1.218
20498WAT      O61735   2.627   4.401   6.380
20498WAT     H161736   2.649   4.373   6.286
20498WAT     H261737   2.564   4.478   6.377
20499WAT      O61738   1.047   9.514   1.464
20499WAT     H161739   0.994   9.453   1.523
20499WAT     H261740   0.987   9.550   1.392
20500WAT      O61741   3.616   8.326   2.976
20500WAT     H161742   3.708   8.363   2.960
20500WAT     H261743   3.616   8.272   3.060
20501WAT      O61744   3.881   9.609   5.968
20501WAT     H161745   3.837   9.692   5.936
20501WAT     H261746   3.829   9.529   5.936
20502WAT      O61747   4.907   7.245   7.533
20502WAT     H161748   4.924   7.152   7.567
20502WAT     H261749   4.990   7.299   7.544
20503WAT      O61750   2.797   3.243   5.647
20503WAT     H161751   2.811   3.342   5.656
20503WAT     H261752   2.699   3.223   5.655
20504WAT      O61753   4.954   5.357   2.732
20504WAT     H161754   5.024   5.359   2.803
20504WAT     H261755   4.992   5.392   2.646
20505WAT      O61756   1.647   2.753   7.024
20505WAT     H161757   1.713   2.826   7.044
20505WAT     H261758   1.696   2.666   7.014
20506WAT      O61759   5.937   2.027   2.089
20506WAT     H161760   5.851   1.978   2.073
20506WAT     H261761   6.014   1.965   2.073
20507WAT      O61762   8.527   1.966   0.753
20507WAT     H161763   8.434   1.948   0.784
20507WAT     H261764   8.525   2.017   0.667
20508WAT      O61765   1.678   7.430   8.025
20508WAT     H161766   1.710   7.370   8.099
20508WAT     H261767   1.583   7.457   8.043
20509WAT      O61768   4.036   5.279   5.184
20509WAT     H161769   3.949   5.231   5.174
20509WAT     H261770   4.026   5.351   5.253
20510WAT      O61771   8.292   8.455   9.879
20510WAT     H161772   8.220   8.524   9.871
20510WAT     H261773   8.303   8.408   9.792
20511WAT      O61774   7.869   3.735   0.052
20511WAT     H161775   7.954   3.687   0.028
20511WAT     H261776   7.813   3.746  -0.029
20512WAT      O61777   6.510   2.721   0.596
20512WAT     H161778   6.498   2.821   0.592
20512WAT     H261779   6.440   2.677   0.540
20513WAT      O61780   3.436   3.419   6.936
20513WAT     H161781   3.476   3.468   6.859
20513WAT     H261782   3.505   3.359   6.976
20514WAT      O61783   4.662   1.607   4.693
20514WAT     H161784   4.695   1.599   4.599
20514WAT     H261785   4.668   1.517   4.737
20515WAT      O61786   5.242   0.469   5.008
20515WAT     H161787   5.314   0.529   4.973
20515WAT     H261788   5.189   0.432   4.931
20516WAT      O61789   2.785   6.948   4.666
20516WAT     H161790   2.780   6.875   4.734
20516WAT     H261791   2.725   6.926   4.589
20517WAT      O61792   7.392   5.087   3.050
20517WAT     H161793   7.442   5.173   3.039
20517WAT     H261794   7.446   5.023   3.104
20518WAT      O61795   0.307   2.369   2.273
20518WAT     H161796   0.324   2.332   2.182
20518WAT     H261797   0.279   2.295   2.334
20519WAT      O61798   5.499   0.275   3.405
20519WAT     H161799   5.497   0.176   3.412
20519WAT     H261800   5.525   0.302   3.312
20520WAT      O61801   3.184   8.997   9.156
20520WAT     H161802   3.108   9.056   9.181
20520WAT     H261803   3.236   8.973   9.238
20521WAT      O61804   1.088   3.225   2.510
20521WAT     H161805   1.149   3.145   2.518
20521WAT     H261806   1.090   3.258   2.416
20522WAT      O61807   1.968   2.730   9.308
20522WAT     H161808   2.062   2.699   9.322
20522WAT     H261809   1.968   2.829   9.292
20523WAT      O61810   1.505   6.550   6.012
20523WAT     H161811   1.425   6.554   5.952
20523WAT     H261812   1.504   6.629   6.074
20524WAT      O61813   2.121   4.987   1.832
20524WAT     H161814   2.045   5.052   1.832
20524WAT     H261815   2.087   4.897   1.804
20525WAT      O61816   8.985   6.116   3.813
20525WAT     H161817   8.976   6.060   3.730
20525WAT     H261818   8.962   6.211   3.791
20526WAT      O61819   7.473   2.861   3.064
20526WAT     H161820   7.525   2.904   3.138
20526WAT     H261821   7.375   2.867   3.083
20527WAT      O61822   2.712   2.564   5.316
20527WAT     H161823   2.624   2.546   5.270
20527WAT     H261824   2.785   2.516   5.267
20528WAT      O61825   8.050   6.927   8.983
20528WAT     H161826   8.017   6.865   8.912
20528WAT     H261827   8.032   6.887   9.073
20529WAT      O61828   3.217   3.969   4.268
20529WAT     H161829   3.140   4.031   4.254
20529WAT     H261830   3.273   3.967   4.185
20530WAT      O61831   1.343   5.060   8.699
20530WAT     H161832   1.360   5.088   8.793
20530WAT     H261833   1.414   4.995   8.670
20531WAT      O61834   4.187   0.519   2.163
20531WAT     H161835   4.120   0.492   2.232
20531WAT     H261836   4.279   0.496   2.194
20532WAT      O61837   7.978   0.653   4.697
20532WAT     H161838   7.912   0.683   4.627
20532WAT     H261839   7.993   0.727   4.762
20533WAT      O61840   7.458   5.170   6.541
20533WAT     H161841   7.505   5.088   6.507
20533WAT     H261842   7.395   5.204   6.471
20534WAT      O61843   2.710   0.452   8.610
20534WAT     H161844   2.755   0.530   8.655
20534WAT     H261845   2.628   0.485   8.563
20535WAT      O61846   0.554   3.645   4.242
20535WAT     H161847   0.636   3.622   4.294
20535WAT     H261848   0.563   3.612   4.148
20536WAT      O61849   5.561   9.582   3.333
20536WAT     H161850   5.524   9.600   3.242
20536WAT     H261851   5.634   9.647   3.353
20537WAT      O61852   6.380   3.622   6.441
20537WAT     H161853   6.295   3.576   6.467
20537WAT     H261854   6.386   3.710   6.487
20538WAT      O61855   3.011   9.620   7.446
20538WAT     H161856   2.974   9.527   7.440
20538WAT     H261857   3.110   9.615   7.462
20539WAT      O61858   2.493   3.538   2.543
20539WAT     H161859   2.405   3.536   2.495
20539WAT     H261860   2.527   3.632   2.544
20540WAT      O61861   4.061   2.848   8.788
20540WAT     H161862   3.984   2.911   8.793
20540WAT     H261863   4.043   2.779   8.717
20541WAT      O61864   5.335   3.356   7.186
20541WAT     H161865   5.252   3.409   7.165
20541WAT     H261866   5.374   3.321   7.101
20542WAT      O61867   5.033   8.393   0.878
20542WAT     H161868   4.988   8.477   0.908
20542WAT     H261869   5.010   8.375   0.783
20543WAT      O61870   5.153   4.853   2.867
20543WAT     H161871   5.062   4.811   2.871
20543WAT     H261872   5.144   4.950   2.844
20544WAT      O61873   1.678   1.198   2.177
20544WAT     H161874   1.594   1.209   2.230
20544WAT     H261875   1.700   1.101   2.169
20545WAT      O61876   6.110   2.988   1.641
20545WAT     H161877   6.088   2.927   1.565
20545WAT     H261878   6.180   2.946   1.699
20546WAT      O61879   8.041   3.642   0.938
20546WAT     H161880   8.090   3.703   0.999
20546WAT     H261881   8.065   3.547   0.958
20547WAT      O61882   0.963   4.173   5.131
20547WAT     H161883   0.980   4.236   5.056
20547WAT     H261884   1.044   4.168   5.189
20548WAT      O61885   0.986   5.414   2.310
20548WAT     H161886   0.910   5.463   2.266
20548WAT     H261887   1.037   5.364   2.240
20549WAT      O61888   2.670   8.752   8.429
20549WAT     H161889   2.766   8.762   8.402
20549WAT     H261890   2.664   8.693   8.510
20550WAT      O61891   6.084   0.562   2.974
20550WAT     H161892   6.115   0.517   3.058
20550WAT     H261893   6.157   0.619   2.937
20551WAT      O61894   9.181   0.477   4.105
20551WAT     H161895   9.251   0.521   4.048
20551WAT     H261896   9.125   0.417   4.049
20552WAT      O61897   3.861   1.785   4.050
20552WAT     H161898   3.818   1.699   4.079
20552WAT     H261899   3.920   1.768   3.971
20553WAT      O61900   2.630   4.657   2.309
20553WAT     H161901   2.655   4.729   2.244
20553WAT     H261902   2.625   4.569   2.261
20554WAT      O61903   4.703   3.506   6.409
20554WAT     H161904   4.693   3.559   6.325
20554WAT     H261905   4.612   3.488   6.448
20555WAT      O61906   8.631   6.657   0.077
20555WAT     H161907   8.686   6.647   0.160
20555WAT     H261908   8.688   6.689   0.002
20556WAT      O61909   3.587   3.410   4.148
20556WAT     H161910   3.601   3.312   4.160
20556WAT     H261911   3.564   3.429   4.052
20557WAT      O61912   5.225   0.129   5.947
20557WAT     H161913   5.241   0.228   5.960
20557WAT     H261914   5.309   0.079   5.970
20558WAT      O61915   2.823   1.016   5.273
20558WAT     H161916   2.908   0.981   5.313
20558WAT     H261917   2.837   1.031   5.175
20559WAT      O61918   4.114   4.619   0.181
20559WAT     H161919   4.098   4.697   0.241
20559WAT     H261920   4.117   4.650   0.086
20560WAT      O61921   3.468   7.134   0.905
20560WAT     H161922   3.555   7.179   0.922
20560WAT     H261923   3.401   7.201   0.873
20561WAT      O61924   1.479   0.748   5.235
20561WAT     H161925   1.523   0.749   5.146
20561WAT     H261926   1.500   0.833   5.284
20562WAT      O61927   1.771   6.299   9.691
20562WAT     H161928   1.799   6.376   9.747
20562WAT     H261929   1.680   6.269   9.719
20563WAT      O61930   4.478   4.288   2.405
20563WAT     H161931   4.444   4.196   2.427
20563WAT     H261932   4.559   4.307   2.460
20564WAT      O61933   3.904   7.430   5.389
20564WAT     H161934   3.878   7.522   5.419
20564WAT     H261935   3.866   7.412   5.299
20565WAT      O61936   1.481   3.509   9.129
20565WAT     H161937   1.572   3.514   9.169
20565WAT     H261938   1.452   3.599   9.098
20566WAT      O61939   7.080   7.405   8.869
20566WAT     H161940   7.131   7.457   8.800
20566WAT     H261941   6.987   7.440   8.876
20567WAT      O61942   6.291   0.766   4.395
20567WAT     H161943   6.245   0.767   4.307
20567WAT     H261944   6.364   0.835   4.396
20568WAT      O61945   1.450   1.929   5.123
20568WAT     H161946   1.410   1.874   5.196
20568WAT     H261947   1.499   1.869   5.059
20569WAT      O61948   1.507   2.297   6.500
20569WAT     H161949   1.410   2.286   6.477
20569WAT     H261950   1.517   2.369   6.569
20570WAT      O61951   3.752   0.101   4.826
20570WAT     H161952   3.840   0.057   4.843
20570WAT     H261953   3.713   0.134   4.913
20571WAT      O61954   3.933   7.674   4.593
20571WAT     H161955   4.012   7.733   4.611
20571WAT     H261956   3.906   7.683   4.497
20572WAT      O61957   3.714   8.363   7.568
20572WAT     H161958   3.696   8.423   7.645
20572WAT     H261959   3.632   8.359   7.510
20573WAT      O61960   0.328   8.594   9.633
20573WAT     H161961   0.336   8.670   9.569
20573WAT     H261962   0.274   8.521   9.591
20574WAT      O61963   9.044   0.206   0.469
20574WAT     H161964   9.095   0.287   0.441
20574WAT     H261965   9.001   0.164   0.389
20575WAT      O61966   8.255   4.158   1.875
20575WAT     H161967   8.305   4.239   1.844
20575WAT     H261968   8.262   4.086   1.807
20576WAT      O61969   3.843   5.813   0.284
20576WAT     H161970   3.898   5.856   0.356
20576WAT     H261971   3.824   5.881   0.213
20577WAT      O61972   7.511   3.593   0.444
20577WAT     H161973   7.419   3.561   0.422
20577WAT     H261974   7.545   3.652   0.370
20578WAT      O61975   4.893   0.625   9.379
20578WAT     H161976   4.898   0.599   9.282
20578WAT     H261977   4.842   0.556   9.430
20579WAT      O61978   9.334   6.537   1.725
20579WAT     H161979   9.329   6.500   1.632
20579WAT     H261980   9.387   6.475   1.783
20580WAT      O61981   7.804   9.371   2.523
20580WAT     H161982   7.776   9.461   2.489
20580WAT     H261983   7.739   9.302   2.492
20581WAT      O61984   5.430   9.329   4.337
20581WAT     H161985   5.427   9.428   4.350
20581WAT     H261986   5.366   9.303   4.264
20582WAT      O61987   4.287   7.187   1.176
20582WAT     H161988   4.239   7.157   1.258
20582WAT     H261989   4.353   7.259   1.199
20583WAT      O61990   6.502   3.648   1.635
20583WAT     H161991   6.532   3.704   1.712
20583WAT     H261992   6.494   3.553   1.663
20584WAT      O61993   3.450   0.268   0.113
20584WAT     H161994   3.396   0.351   0.128
20584WAT     H261995   3.526   0.266   0.179
20585WAT      O61996   5.822   6.661   1.479
20585WAT     H161997   5.909   6.703   1.502
20585WAT     H261998   5.778   6.626   1.561
20586WAT      O61999   0.791   6.004   9.147
20586WAT     H162000   0.750   6.094   9.158
20586WAT     H262001   0.723   5.934   9.166
20587WAT      O62002   1.243   4.268   8.305
20587WAT     H162003   1.231   4.199   8.377
20587WAT     H262004   1.276   4.353   8.346
20588WAT      O62005   2.307   7.059   7.312
20588WAT     H162006   2.233   6.993   7.322
20588WAT     H262007   2.269   7.149   7.292
20589WAT      O62008   2.899   2.227   8.999
20589WAT     H162009   2.824   2.237   8.934
20589WAT     H262010   2.876   2.275   9.084
20590WAT      O62011   1.884   7.968   2.593
20590WAT     H162012   1.862   7.922   2.507
20590WAT     H262013   1.945   7.910   2.647
20591WAT      O62014   6.196   8.784   3.311
20591WAT     H162015   6.272   8.828   3.360
20591WAT     H262016   6.233   8.725   3.239
20592WAT      O62017   2.192   0.695   0.420
20592WAT     H162018   2.125   0.749   0.369
20592WAT     H262019   2.284   0.714   0.385
20593WAT      O62020   4.644   8.166   6.101
20593WAT     H162021   4.547   8.148   6.121
20593WAT     H262022   4.701   8.102   6.152
20594WAT      O62023   5.429   3.870   5.821
20594WAT     H162024   5.490   3.949   5.823
20594WAT     H262025   5.470   3.797   5.766
20595WAT      O62026   6.921   5.008   4.650
20595WAT     H162027   6.961   4.933   4.598
20595WAT     H262028   6.992   5.052   4.705
20596WAT      O62029   4.050   9.079   1.317
20596WAT     H162030   4.009   9.079   1.225
20596WAT     H262031   4.048   8.986   1.354
20597WAT      O62032   2.566   1.694   1.568
20597WAT     H162033   2.652   1.715   1.613
20597WAT     H262034   2.570   1.602   1.528
20598WAT      O62035   3.353   5.877   6.104
20598WAT     H162036   3.395   5.787   6.094
20598WAT     H262037   3.397   5.941   6.041
20599WAT      O62038   0.940   3.744   7.504
20599WAT     H162039   0.891   3.658   7.518
20599WAT     H262040   1.026   3.741   7.555
20600WAT      O62041   3.978   3.514   0.210
20600WAT     H162042   4.022   3.471   0.131
20600WAT     H262043   4.024   3.485   0.294
20601WAT      O62044   5.211   4.690   7.387
20601WAT     H162045   5.191   4.709   7.483
20601WAT     H262046   5.182   4.767   7.331
20602WAT      O62047   9.561   5.913   0.855
20602WAT     H162048   9.500   5.961   0.792
20602WAT     H262049   9.653   5.909   0.816
20603WAT      O62050   2.871   8.586   9.179
20603WAT     H162051   2.853   8.650   9.104
20603WAT     H262052   2.873   8.492   9.143
20604WAT      O62053   3.359   0.794   9.516
20604WAT     H162054   3.333   0.867   9.578
20604WAT     H262055   3.442   0.821   9.466
20605WAT      O62056   4.143   2.971   6.596
20605WAT     H162057   4.051   3.009   6.608
20605WAT     H262058   4.208   3.026   6.648
20606WAT      O62059   5.059   3.493   0.783
20606WAT     H162060   5.100   3.422   0.841
20606WAT     H262061   4.961   3.475   0.772
20607WAT      O62062   2.442   7.257   3.891
20607WAT     H162063   2.344   7.266   3.912
20607WAT     H262064   2.474   7.169   3.925
20608WAT      O62065   7.218   7.630   9.367
20608WAT     H162066   7.316   7.641   9.383
20608WAT     H262067   7.197   7.533   9.349
20609WAT      O62068   2.562   3.806   4.481
20609WAT     H162069   2.474   3.762   4.503
20609WAT     H262070   2.588   3.783   4.388
20610WAT      O62071   8.833   5.360   9.701
20610WAT     H162072   8.795   5.294   9.765
20610WAT     H262073   8.759   5.413   9.660
20611WAT      O62074   6.206   1.789   8.273
20611WAT     H162075   6.256   1.750   8.350
20611WAT     H262076   6.110   1.800   8.299
20612WAT      O62077   0.082   3.264   8.797
20612WAT     H162078   0.126   3.253   8.708
20612WAT     H262079   0.066   3.174   8.838
20613WAT      O62080   2.458   4.010   0.831
20613WAT     H162081   2.532   3.943   0.836
20613WAT     H262082   2.469   4.065   0.748
20614WAT      O62083   0.644   2.491   5.387
20614WAT     H162084   0.604   2.408   5.348
20614WAT     H262085   0.732   2.509   5.345
20615WAT      O62086   2.271   2.725   3.793
20615WAT     H162087   2.353   2.699   3.742
20615WAT     H262088   2.193   2.669   3.762
20616WAT      O62089   7.700   2.659   8.515
20616WAT     H162090   7.730   2.749   8.547
20616WAT     H262091   7.778   2.597   8.511
20617WAT      O62092   4.176   7.072   7.583
20617WAT     H162093   4.124   7.139   7.530
20617WAT     H262094   4.177   7.098   7.679
20618WAT      O62095   8.986   4.237   1.830
20618WAT     H162096   8.956   4.222   1.924
20618WAT     H262097   8.990   4.335   1.812
20619WAT      O62098   3.867   5.355   9.284
20619WAT     H162099   3.812   5.276   9.258
20619WAT     H262100   3.812   5.417   9.339
20620WAT      O62101   9.025   2.206   2.176
20620WAT     H162102   8.962   2.267   2.224
20620WAT     H262103   9.119   2.229   2.200
20621WAT      O62104   2.173   8.826   2.032
20621WAT     H162105   2.253   8.830   1.971
20621WAT     H262106   2.148   8.919   2.059
20622WAT      O62107   2.631   2.352   2.296
20622WAT     H162108   2.595   2.336   2.388
20622WAT     H262109   2.694   2.278   2.271
20623WAT      O62110   5.729   0.378   7.442
20623WAT     H162111   5.742   0.303   7.507
20623WAT     H262112   5.675   0.345   7.364
20624WAT      O62113   8.384   1.416   0.101
20624WAT     H162114   8.357   1.491   0.161
20624WAT     H262115   8.303   1.381   0.053
20625WAT      O62116   4.999   1.060   9.887
20625WAT     H162117   4.981   0.965   9.913
20625WAT     H262118   5.070   1.098   9.947
20626WAT      O62119   4.469   8.862   6.406
20626WAT     H162120   4.432   8.939   6.355
20626WAT     H262121   4.546   8.893   6.463
20627WAT      O62122   4.285   7.383   0.391
20627WAT     H162123   4.243   7.470   0.365
20627WAT     H262124   4.320   7.337   0.310
20628WAT      O62125   2.128   7.412   1.318
20628WAT     H162126   2.059   7.428   1.247
20628WAT     H262127   2.210   7.374   1.275
20629WAT      O62128   7.938   7.575   1.081
20629WAT     H162129   7.870   7.519   1.033
20629WAT     H262130   8.028   7.560   1.040
20630WAT      O62131   2.368   5.887   2.931
20630WAT     H162132   2.341   5.899   2.835
20630WAT     H262133   2.287   5.880   2.988
20631WAT      O62134   6.086   9.246   0.720
20631WAT     H162135   6.185   9.241   0.725
20631WAT     H262136   6.059   9.304   0.643
20632WAT      O62137   7.312   9.655   1.431
20632WAT     H162138   7.215   9.681   1.434
20632WAT     H262139   7.342   9.630   1.523
20633WAT      O62140   7.091   2.233   9.122
20633WAT     H162141   7.038   2.168   9.177
20633WAT     H262142   7.068   2.326   9.148
20634WAT      O62143   4.171   9.778   8.861
20634WAT     H162144   4.214   9.769   8.771
20634WAT     H262145   4.179   9.691   8.910
20635WAT      O62146   7.522   9.090   2.651
20635WAT     H162147   7.562   9.135   2.572
20635WAT     H262148   7.439   9.041   2.624
20636WAT      O62149   6.697   5.031   4.792
20636WAT     H162150   6.771   5.013   4.727
20636WAT     H262151   6.610   5.006   4.750
20637WAT      O62152   1.941   2.593   9.667
20637WAT     H162153   1.975   2.686   9.654
20637WAT     H262154   1.992   2.549   9.742
20638WAT      O62155   7.630   0.590   2.176
20638WAT     H162156   7.619   0.641   2.261
20638WAT     H262157   7.557   0.615   2.112
20639WAT      O62158   5.091   5.877   9.468
20639WAT     H162159   5.163   5.943   9.491
20639WAT     H262160   5.039   5.854   9.551
20640WAT      O62161   4.409   7.128   9.295
20640WAT     H162162   4.372   7.115   9.387
20640WAT     H262163   4.333   7.139   9.230
20641WAT      O62164   6.959   0.860   0.778
20641WAT     H162165   7.011   0.886   0.697
20641WAT     H262166   6.961   0.760   0.789
20642WAT      O62167   6.376   2.578   1.730
20642WAT     H162168   6.464   2.531   1.728
20642WAT     H262169   6.303   2.512   1.746
20643WAT      O62170   7.317   7.551   7.831
20643WAT     H162171   7.279   7.601   7.909
20643WAT     H262172   7.243   7.505   7.781
20644WAT      O62173   3.427   2.047   2.177
20644WAT     H162174   3.447   1.949   2.170
20644WAT     H262175   3.422   2.087   2.086
20645WAT      O62176   6.777   7.523   3.513
20645WAT     H162177   6.800   7.619   3.499
20645WAT     H262178   6.857   7.467   3.493
20646WAT      O62179   5.272   7.101   7.262
20646WAT     H162180   5.349   7.114   7.200
20646WAT     H262181   5.305   7.100   7.357
20647WAT      O62182   4.544   7.304   5.944
20647WAT     H162183   4.487   7.232   5.903
20647WAT     H262184   4.586   7.359   5.871
20648WAT      O62185   5.068   9.571   8.777
20648WAT     H162186   4.973   9.602   8.777
20648WAT     H262187   5.114   9.602   8.694
20649WAT      O62188   9.757   9.212   8.151
20649WAT     H162189   9.741   9.114   8.138
20649WAT     H262190   9.692   9.264   8.095
20650WAT      O62191   4.922   8.000   8.659
20650WAT     H162192   4.944   8.006   8.561
20650WAT     H262193   4.928   8.090   8.701
20651WAT      O62194   4.725   5.203   7.629
20651WAT     H162195   4.639   5.243   7.597
20651WAT     H262196   4.753   5.248   7.714
20652WAT      O62197   6.964   6.219   4.867
20652WAT     H162198   6.901   6.178   4.801
20652WAT     H262199   7.029   6.149   4.899
20653WAT      O62200   2.564   1.450   2.018
20653WAT     H162201   2.476   1.446   2.065
20653WAT     H262202   2.580   1.542   1.984
20654WAT      O62203   5.905   8.665   0.514
20654WAT     H162204   5.971   8.594   0.489
20654WAT     H262205   5.953   8.750   0.535
20655WAT      O62206   2.679   6.749   6.578
20655WAT     H162207   2.745   6.823   6.572
20655WAT     H262208   2.626   6.759   6.662
20656WAT      O62209   4.847   5.699   0.474
20656WAT     H162210   4.874   5.603   0.472
20656WAT     H262211   4.785   5.715   0.552
20657WAT      O62212   9.236   4.176   6.088
20657WAT     H162213   9.201   4.239   6.020
20657WAT     H262214   9.164   4.152   6.153
20658WAT      O62215   1.504   5.840   3.681
20658WAT     H162216   1.412   5.874   3.659
20658WAT     H262217   1.569   5.875   3.614
20659WAT      O62218   3.049   3.434   7.759
20659WAT     H162219   3.089   3.469   7.675
20659WAT     H262220   3.010   3.510   7.812
20660WAT      O62221   4.671   7.078   8.891
20660WAT     H162222   4.688   6.999   8.832
20660WAT     H262223   4.702   7.161   8.844
20661WAT      O62224   0.226   5.915   7.614
20661WAT     H162225   0.211   6.013   7.606
20661WAT     H262226   0.196   5.870   7.530
20662WAT      O62227   7.389   3.510   1.884
20662WAT     H162228   7.380   3.502   1.983
20662WAT     H262229   7.390   3.607   1.859
20663WAT      O62230   4.513   8.012   1.990
20663WAT     H162231   4.611   8.030   1.985
20663WAT     H262232   4.495   7.915   1.974
20664WAT      O62233   0.395   4.375   5.066
20664WAT     H162234   0.367   4.321   5.146
20664WAT     H262235   0.445   4.316   5.003
20665WAT      O62236   7.814   3.161   2.710
20665WAT     H162237   7.759   3.244   2.727
20665WAT     H262238   7.806   3.135   2.614
20666WAT      O62239   3.884   5.577   9.111
20666WAT     H162240   3.877   5.485   9.150
20666WAT     H262241   3.965   5.623   9.148
20667WAT      O62242   1.250   1.629   6.628
20667WAT     H162243   1.261   1.679   6.542
20667WAT     H262244   1.340   1.598   6.660
20668WAT      O62245   7.836   1.520   7.893
20668WAT     H162246   7.782   1.494   7.973
20668WAT     H262247   7.786   1.589   7.840
20669WAT      O62248   0.799   5.845   7.769
20669WAT     H162249   0.827   5.941   7.771
20669WAT     H262250   0.718   5.835   7.712
20670WAT      O62251   9.061   8.051   8.490
20670WAT     H162252   9.034   8.035   8.585
20670WAT     H262253   9.152   8.013   8.474
20671WAT      O62254   7.838   1.936   6.420
20671WAT     H162255   7.916   1.957   6.361
20671WAT     H262256   7.753   1.962   6.374
20672WAT      O62257   6.742   2.953   3.747
20672WAT     H162258   6.697   2.957   3.837
20672WAT     H262259   6.774   3.044   3.722
20673WAT      O62260   6.862   4.964   7.724
20673WAT     H162261   6.950   4.927   7.697
20673WAT     H262262   6.832   4.920   7.809
20674WAT      O62263   6.613   3.940   4.723
20674WAT     H162264   6.620   3.845   4.695
20674WAT     H262265   6.682   3.960   4.793
20675WAT      O62266   5.850   2.116   7.972
20675WAT     H162267   5.822   2.055   7.898
20675WAT     H262268   5.811   2.085   8.058
20676WAT      O62269   6.671   9.568   3.592
20676WAT     H162270   6.714   9.645   3.544
20676WAT     H262271   6.738   9.525   3.653
20677WAT      O62272   8.728   2.484   1.174
20677WAT     H162273   8.650   2.508   1.232
20677WAT     H262274   8.765   2.567   1.132
20678WAT      O62275   9.407   7.664   1.485
20678WAT     H162276   9.466   7.743   1.500
20678WAT     H262277   9.457   7.594   1.435
20679WAT      O62278   1.381   9.298   3.112
20679WAT     H162279   1.385   9.397   3.119
20679WAT     H262280   1.457   9.266   3.055
20680WAT      O62281   4.011   1.879   5.820
20680WAT     H162282   3.917   1.852   5.800
20680WAT     H262283   4.030   1.968   5.779
20681WAT      O62284   8.017   3.737   5.298
20681WAT     H162285   8.072   3.671   5.247
20681WAT     H262286   8.036   3.829   5.265
20682WAT      O62287   0.750   7.890   6.308
20682WAT     H162288   0.674   7.828   6.290
20682WAT     H262289   0.808   7.897   6.226
20683WAT      O62290   8.509   8.868   0.503
20683WAT     H162291   8.429   8.812   0.481
20683WAT     H262292   8.492   8.963   0.477
20684WAT      O62293   3.646   5.469   9.408
20684WAT     H162294   3.565   5.412   9.402
20684WAT     H262295   3.638   5.529   9.488
20685WAT      O62296   9.185   0.636   1.271
20685WAT     H162297   9.169   0.658   1.175
20685WAT     H262298   9.219   0.717   1.318
20686WAT      O62299   0.754   0.423   6.488
20686WAT     H162300   0.795   0.409   6.578
20686WAT     H262301   0.782   0.512   6.452
20687WAT      O62302   7.057   9.041   7.562
20687WAT     H162303   7.035   8.988   7.481
20687WAT     H262304   7.143   9.008   7.602
20688WAT      O62305   4.214   4.978   9.300
20688WAT     H162306   4.312   4.961   9.316
20688WAT     H262307   4.187   4.937   9.214
20689WAT      O62308   2.393   0.197   0.491
20689WAT     H162309   2.334   0.276   0.476
20689WAT     H262310   2.429   0.165   0.403
20690WAT      O62311   4.439   2.735   0.129
20690WAT     H162312   4.397   2.645   0.144
20690WAT     H262313   4.415   2.796   0.204
20691WAT      O62314   3.321   3.360   4.280
20691WAT     H162315   3.248   3.426   4.263
20691WAT     H262316   3.407   3.396   4.244
20692WAT      O62317   9.812   7.464   7.645
20692WAT     H162318   9.905   7.432   7.662
20692WAT     H262319   9.798   7.552   7.691
20693WAT      O62320   0.669   4.425   7.196
20693WAT     H162321   0.724   4.343   7.215
20693WAT     H262322   0.682   4.451   7.100
20694WAT      O62323   5.983   2.253   6.491
20694WAT     H162324   5.934   2.332   6.452
20694WAT     H262325   5.941   2.169   6.457
20695WAT      O62326   7.148   1.983   8.930
20695WAT     H162327   7.132   2.013   8.836
20695WAT     H262328   7.112   2.051   8.994
20696WAT      O62329   5.796   7.832   7.187
20696WAT     H162330   5.749   7.745   7.170
20696WAT     H262331   5.729   7.902   7.211
20697WAT      O62332   6.456   1.808   3.293
20697WAT     H162333   6.445   1.757   3.208
20697WAT     H262334   6.399   1.891   3.289
20698WAT      O62335   6.003   1.923   8.971
20698WAT     H162336   5.954   1.954   9.053
20698WAT     H262337   5.997   1.824   8.963
20699WAT      O62338   1.853   6.882   6.690
20699WAT     H162339   1.949   6.909   6.698
20699WAT     H262340   1.836   6.845   6.599
20700WAT      O62341   1.852   6.787   6.427
20700WAT     H162342   1.941   6.745   6.410
20700WAT     H262343   1.833   6.855   6.355
20701WAT      O62344   9.046   9.451   7.127
20701WAT     H162345   9.015   9.544   7.108
20701WAT     H262346   9.101   9.450   7.210
20702WAT      O62347   5.303   5.709   3.740
20702WAT     H162348   5.288   5.807   3.746
20702WAT     H262349   5.219   5.661   3.767
20703WAT      O62350   5.875   1.999   6.500
20703WAT     H162351   5.902   1.922   6.557
20703WAT     H262352   5.788   2.037   6.532
20704WAT      O62353   6.350   6.957   3.699
20704WAT     H162354   6.252   6.964   3.722
20704WAT     H262355   6.369   6.865   3.663
20705WAT      O62356   8.452   7.817   5.229
20705WAT     H162357   8.359   7.785   5.249
20705WAT     H262358   8.453   7.866   5.142
20706WAT      O62359   3.797   2.206   7.514
20706WAT     H162360   3.870   2.262   7.474
20706WAT     H262361   3.746   2.261   7.580
20707WAT      O62362   2.988   1.277   0.105
20707WAT     H162363   2.983   1.262   0.203
20707WAT     H262364   3.080   1.308   0.080
20708WAT      O62365   6.001   5.306   3.015
20708WAT     H162366   6.073   5.283   2.950
20708WAT     H262367   5.912   5.302   2.969
20709WAT      O62368   1.155   4.672   7.610
20709WAT     H162369   1.102   4.754   7.587
20709WAT     H262370   1.237   4.669   7.552
20710WAT      O62371   2.132   2.392   6.389
20710WAT     H162372   2.132   2.492   6.381
20710WAT     H262373   2.224   2.357   6.374
20711WAT      O62374   2.110   8.778   8.225
20711WAT     H162375   2.148   8.775   8.133
20711WAT     H262376   2.138   8.863   8.270
20712WAT      O62377   6.044   0.784   9.427
20712WAT     H162378   5.969   0.740   9.477
20712WAT     H262379   6.087   0.853   9.486
20713WAT      O62380   7.176   1.271   8.029
20713WAT     H162381   7.159   1.268   7.931
20713WAT     H262382   7.268   1.234   8.048
20714WAT      O62383   2.862   0.022   0.881
20714WAT     H162384   2.853   0.120   0.899
20714WAT     H262385   2.840   0.003   0.785
20715WAT      O62386   5.989   9.016   7.718
20715WAT     H162387   5.944   9.105   7.710
20715WAT     H262388   5.921   8.946   7.739
20716WAT      O62389   6.436   0.177   5.427
20716WAT     H162390   6.350   0.228   5.434
20716WAT     H262391   6.429   0.094   5.481
20717WAT      O62392   2.027   6.458   6.001
20717WAT     H162393   2.124   6.449   6.023
20717WAT     H262394   2.001   6.554   6.003
20718WAT      O62395   6.541   1.854   6.327
20718WAT     H162396   6.583   1.945   6.335
20718WAT     H262397   6.516   1.821   6.418
20719WAT      O62398   8.946   8.363   6.756
20719WAT     H162399   8.917   8.386   6.663
20719WAT     H262400   8.896   8.282   6.787
20720WAT      O62401   8.376   6.652   8.263
20720WAT     H162402   8.322   6.629   8.183
20720WAT     H262403   8.357   6.587   8.336
20721WAT      O62404   4.965   6.049   0.964
20721WAT     H162405   4.927   6.138   0.940
20721WAT     H262406   5.031   6.021   0.893
20722WAT      O62407   9.484   9.469   7.388
20722WAT     H162408   9.428   9.387   7.396
20722WAT     H262409   9.433   9.541   7.342
20723WAT      O62410   1.065   5.591   4.479
20723WAT     H162411   1.135   5.603   4.409
20723WAT     H262412   1.052   5.493   4.497
20724WAT      O62413   5.207   0.100   6.953
20724WAT     H162414   5.115   0.136   6.965
20724WAT     H262415   5.268   0.173   6.923
20725WAT      O62416   9.015   8.364   2.908
20725WAT     H162417   9.115   8.370   2.910
20725WAT     H262418   8.977   8.448   2.945
20726WAT      O62419   6.868   3.957   8.644
20726WAT     H162420   6.953   3.998   8.611
20726WAT     H262421   6.798   3.966   8.574
20727WAT      O62422   1.743   7.946   6.399
20727WAT     H162423   1.835   7.942   6.439
20727WAT     H262424   1.747   7.921   6.303
20728WAT      O62425   3.820   5.080   9.859
20728WAT     H162426   3.902   5.023   9.866
20728WAT     H262427   3.836   5.154   9.794
20729WAT      O62428   9.513   4.782   5.901
20729WAT     H162429   9.544   4.716   5.969
20729WAT     H262430   9.564   4.868   5.912
20730WAT      O62431   5.616   8.509   4.782
20730WAT     H162432   5.589   8.605   4.776
20730WAT     H262433   5.650   8.478   4.693
20731WAT      O62434   3.367   6.307   3.957
20731WAT     H162435   3.271   6.319   3.984
20731WAT     H262436   3.403   6.394   3.924
20732WAT      O62437   3.636   8.554   1.629
20732WAT     H162438   3.725   8.509   1.637
20732WAT     H262439   3.649   8.651   1.611
20733WAT      O62440   3.402   7.612   4.279
20733WAT     H162441   3.401   7.662   4.192
20733WAT     H262442   3.314   7.622   4.324
20734WAT      O62443   6.039   5.929   6.293
20734WAT     H162444   6.083   6.018   6.304
20734WAT     H262445   5.982   5.930   6.211
20735WAT      O62446   4.966   8.644   0.953
20735WAT     H162447   5.041   8.674   1.012
20735WAT     H262448   4.881   8.644   1.005
20736WAT      O62449   2.296   4.480   0.992
20736WAT     H162450   2.251   4.544   0.929
20736WAT     H262451   2.227   4.438   1.051
20737WAT      O62452   7.745   3.470   7.845
20737WAT     H162453   7.797   3.412   7.783
20737WAT     H262454   7.794   3.556   7.859
20738WAT      O62455   9.782   5.398   6.279
20738WAT     H162456   9.744   5.453   6.205
20738WAT     H262457   9.872   5.433   6.305
20739WAT      O62458   6.016   4.591   3.016
20739WAT     H162459   6.030   4.619   3.111
20739WAT     H262460   6.002   4.492   3.013
20740WAT      O62461   2.626   1.596   4.627
20740WAT     H162462   2.549   1.657   4.611
20740WAT     H262463   2.711   1.647   4.617
20741WAT      O62464   3.755   8.430   4.764
20741WAT     H162465   3.717   8.343   4.732
20741WAT     H262466   3.835   8.453   4.709
20742WAT      O62467   2.647   9.014   4.675
20742WAT     H162468   2.628   9.111   4.666
20742WAT     H262469   2.730   8.991   4.623
20743WAT      O62470   6.977   9.037   6.393
20743WAT     H162471   6.880   9.051   6.375
20743WAT     H262472   7.007   9.100   6.466
20744WAT      O62473   5.514   8.542   2.953
20744WAT     H162474   5.602   8.508   2.922
20744WAT     H262475   5.481   8.613   2.890
20745WAT      O62476   4.801   2.651   6.591
20745WAT     H162477   4.899   2.655   6.568
20745WAT     H262478   4.790   2.669   6.689
20746WAT      O62479   6.932   7.094   4.156
20746WAT     H162480   6.892   7.065   4.243
20746WAT     H262481   6.990   7.175   4.172
20747WAT      O62482   1.097   3.032   3.655
20747WAT     H162483   1.185   2.989   3.675
20747WAT     H262484   1.023   2.966   3.671
20748WAT      O62485   4.247   5.845   5.491
20748WAT     H162486   4.318   5.810   5.430
20748WAT     H262487   4.270   5.939   5.518
20749WAT      O62488   4.825   4.922   7.254
20749WAT     H162489   4.846   4.825   7.240
20749WAT     H262490   4.773   4.956   7.175
20750WAT      O62491   4.569   3.103   1.892
20750WAT     H162492   4.497   3.172   1.896
20750WAT     H262493   4.656   3.145   1.917
20751WAT      O62494   1.652   9.745   9.706
20751WAT     H162495   1.742   9.720   9.742
20751WAT     H262496   1.630   9.839   9.734
20752WAT      O62497   5.947   0.856   3.592
20752WAT     H162498   5.847   0.856   3.594
20752WAT     H262499   5.982   0.839   3.684
20753WAT      O62500   7.375   0.665   8.238
20753WAT     H162501   7.427   0.581   8.227
20753WAT     H262502   7.281   0.651   8.208
20754WAT      O62503   1.520   0.843   4.743
20754WAT     H162504   1.524   0.829   4.842
20754WAT     H262505   1.433   0.810   4.708
20755WAT      O62506   6.721   1.385   8.497
20755WAT     H162507   6.643   1.322   8.496
20755WAT     H262508   6.800   1.339   8.538
20756WAT      O62509   2.504   0.160   7.844
20756WAT     H162510   2.537   0.075   7.803
20756WAT     H262511   2.467   0.141   7.935
20757WAT      O62512   8.462   2.898   1.756
20757WAT     H162513   8.439   2.820   1.698
20757WAT     H262514   8.412   2.978   1.725
20758WAT      O62515   1.238   2.230   1.487
20758WAT     H162516   1.252   2.329   1.497
20758WAT     H262517   1.324   2.183   1.506
20759WAT      O62518   4.258   0.452   5.646
20759WAT     H162519   4.261   0.360   5.608
20759WAT     H262520   4.164   0.487   5.641
20760WAT      O62521   8.453   9.294   9.744
20760WAT     H162522   8.463   9.391   9.762
20760WAT     H262523   8.381   9.280   9.676
20761WAT      O62524   6.850   3.710   0.534
20761WAT     H162525   6.793   3.790   0.549
20761WAT     H262526   6.852   3.653   0.616
20762WAT      O62527   4.673   1.451   3.151
20762WAT     H162528   4.738   1.376   3.139
20762WAT     H262529   4.720   1.529   3.194
20763WAT      O62530   0.581   7.050   4.065
20763WAT     H162531   0.531   7.125   4.107
20763WAT     H262532   0.614   7.078   3.975
20764WAT      O62533   7.452   5.883   6.433
20764WAT     H162534   7.443   5.871   6.334
20764WAT     H262535   7.535   5.837   6.465
20765WAT      O62536   3.804   8.187   0.348
20765WAT     H162537   3.824   8.284   0.362
20765WAT     H262538   3.769   8.174   0.255
20766WAT      O62539   6.145   1.782   7.436
20766WAT     H162540   6.244   1.783   7.449
20766WAT     H262541   6.123   1.733   7.351
20767WAT      O62542   2.365   3.445   5.541
20767WAT     H162543   2.394   3.504   5.617
20767WAT     H262544   2.329   3.501   5.467
20768WAT      O62545   0.741   5.207   0.808
20768WAT     H162546   0.652   5.197   0.763
20768WAT     H262547   0.796   5.273   0.758
20769WAT      O62548   9.404   3.302   7.745
20769WAT     H162549   9.440   3.339   7.660
20769WAT     H262550   9.383   3.377   7.808
20770WAT      O62551   6.595   3.193   9.176
20770WAT     H162552   6.655   3.231   9.246
20770WAT     H262553   6.500   3.216   9.197
20771WAT      O62554   1.840   1.894   9.868
20771WAT     H162555   1.844   1.829   9.944
20771WAT     H262556   1.853   1.987   9.903
20772WAT      O62557   5.153   4.410   4.231
20772WAT     H162558   5.110   4.501   4.230
20772WAT     H262559   5.250   4.419   4.251
20773WAT      O62560   5.753   6.230   7.059
20773WAT     H162561   5.656   6.249   7.077
20773WAT     H262562   5.764   6.200   6.965
20774WAT      O62563   3.011   0.978   1.956
20774WAT     H162564   3.001   0.887   1.916
20774WAT     H262565   3.083   0.976   2.026
20775WAT      O62566   1.549   6.725   6.928
20775WAT     H162567   1.476   6.659   6.909
20775WAT     H262568   1.632   6.699   6.880
20776WAT      O62569   8.039   0.178   8.973
20776WAT     H162570   8.000   0.087   8.963
20776WAT     H262571   8.139   0.171   8.972
20777WAT      O62572   4.246   3.060   6.356
20777WAT     H162573   4.167   3.116   6.333
20777WAT     H262574   4.220   2.993   6.426
20778WAT      O62575   3.599   9.635   9.761
20778WAT     H162576   3.597   9.703   9.834
20778WAT     H262577   3.617   9.680   9.673
20779WAT      O62578   3.414   3.044   6.558
20779WAT     H162579   3.392   3.091   6.644
20779WAT     H262580   3.443   3.112   6.490
20780WAT      O62581   4.607   3.040   9.083
20780WAT     H162582   4.551   2.977   9.029
20780WAT     H262583   4.635   3.118   9.026
20781WAT      O62584   9.675   8.303   3.850
20781WAT     H162585   9.744   8.341   3.912
20781WAT     H262586   9.657   8.369   3.776
20782WAT      O62587   9.283   2.159   6.615
20782WAT     H162588   9.282   2.184   6.518
20782WAT     H262589   9.335   2.075   6.628
20783WAT      O62590   3.169   4.763   8.472
20783WAT     H162591   3.228   4.767   8.552
20783WAT     H262592   3.220   4.794   8.392
20784WAT      O62593   2.191   7.163   9.345
20784WAT     H162594   2.156   7.214   9.424
20784WAT     H262595   2.239   7.226   9.283
20785WAT      O62596   9.322   5.348   4.756
20785WAT     H162597   9.263   5.317   4.682
20785WAT     H262598   9.272   5.344   4.843
20786WAT      O62599   8.387   4.194   6.410
20786WAT     H162600   8.474   4.235   6.437
20786WAT     H262601   8.368   4.115   6.469
20787WAT      O62602   3.056   9.027   3.575
20787WAT     H162603   3.131   9.085   3.608
20787WAT     H262604   2.969   9.064   3.607
20788WAT      O62605   1.313   2.119   9.078
20788WAT     H162606   1.234   2.087   9.025
20788WAT     H262607   1.295   2.106   9.175
20789WAT      O62608   2.878   1.810   1.627
20789WAT     H162609   2.916   1.719   1.646
20789WAT     H262610   2.916   1.845   1.542
20790WAT      O62611   2.688   1.841   8.839
20790WAT     H162612   2.695   1.755   8.889
20790WAT     H262613   2.698   1.917   8.903
20791WAT      O62614   1.913   8.683   4.390
20791WAT     H162615   1.836   8.746   4.381
20791WAT     H262616   1.921   8.655   4.486
20792WAT      O62617   3.402   1.891   1.600
20792WAT     H162618   3.453   1.925   1.679
20792WAT     H262619   3.456   1.904   1.517
20793WAT      O62620   4.657   5.819   1.055
20793WAT     H162621   4.750   5.821   1.018
20793WAT     H262622   4.618   5.728   1.042
20794WAT      O62623   1.009   7.206   7.370
20794WAT     H162624   0.924   7.227   7.417
20794WAT     H262625   1.002   7.116   7.325
20795WAT      O62626   9.427   1.996   6.964
20795WAT     H162627   9.506   1.936   6.974
20795WAT     H262628   9.428   2.064   7.037
20796WAT      O62629   9.056   3.100   7.168
20796WAT     H162630   9.045   3.076   7.264
20796WAT     H262631   9.152   3.121   7.149
20797WAT      O62632   6.087   2.035   8.580
20797WAT     H162633   6.009   2.054   8.639
20797WAT     H262634   6.073   2.079   8.491
20798WAT      O62635   9.594   8.988   5.994
20798WAT     H162636   9.513   9.028   6.036
20798WAT     H262637   9.578   8.892   5.975
20799WAT      O62638   0.077   9.447   7.938
20799WAT     H162639   0.052   9.538   7.973
20799WAT     H262640   0.167   9.453   7.893
20800WAT      O62641   7.551   5.781   0.416
20800WAT     H162642   7.471   5.756   0.470
20800WAT     H262643   7.552   5.881   0.404
20801WAT      O62644   4.058   0.187   8.560
20801WAT     H162645   4.122   0.223   8.627
20801WAT     H262646   3.964   0.203   8.591
20802WAT      O62647   3.484   9.567   3.097
20802WAT     H162648   3.474   9.545   3.000
20802WAT     H262649   3.551   9.640   3.107
20803WAT      O62650   2.167   2.856   4.257
20803WAT     H162651   2.123   2.793   4.321
20803WAT     H262652   2.257   2.882   4.292
20804WAT      O62653   6.889   2.803   9.628
20804WAT     H162654   6.988   2.818   9.638
20804WAT     H262655   6.873   2.723   9.570
20805WAT      O62656   2.884   5.867   7.917
20805WAT     H162657   2.827   5.949   7.906
20805WAT     H262658   2.825   5.786   7.920
20806WAT      O62659   7.916   2.029   7.090
20806WAT     H162660   7.927   2.073   7.000
20806WAT     H262661   7.862   2.088   7.149
20807WAT      O62662   7.578   7.976   9.471
20807WAT     H162663   7.485   8.011   9.475
20807WAT     H262664   7.614   7.963   9.563
20808WAT      O62665   5.653   4.888   1.582
20808WAT     H162666   5.690   4.843   1.501
20808WAT     H262667   5.554   4.871   1.587
20809WAT      O62668   0.256   3.047   0.646
20809WAT     H162669   0.290   3.018   0.557
20809WAT     H262670   0.310   3.004   0.719
20810WAT      O62671   4.264   2.223   3.306
20810WAT     H162672   4.209   2.306   3.304
20810WAT     H262673   4.216   2.152   3.358
20811WAT      O62674   1.990   9.136   5.670
20811WAT     H162675   2.022   9.212   5.613
20811WAT     H262676   2.066   9.103   5.727
20812WAT      O62677   6.010   5.395   9.705
20812WAT     H162678   6.033   5.489   9.730
20812WAT     H262679   6.039   5.378   9.611
20813WAT      O62680   8.512   0.855   5.716
20813WAT     H162681   8.429   0.863   5.660
20813WAT     H262682   8.550   0.763   5.705
20814WAT      O62683   0.646   6.464   6.898
20814WAT     H162684   0.691   6.492   6.813
20814WAT     H262685   0.714   6.433   6.964
20815WAT      O62686   3.346   1.287   7.348
20815WAT     H162687   3.329   1.360   7.282
20815WAT     H262688   3.287   1.299   7.428
20816WAT      O62689   5.365   3.637   5.371
20816WAT     H162690   5.408   3.558   5.327
20816WAT     H262691   5.279   3.658   5.326
20817WAT      O62692   9.077   4.945   4.918
20817WAT     H162693   8.999   5.002   4.893
20817WAT     H262694   9.067   4.917   5.014
20818WAT      O62695   8.664   2.967   5.088
20818WAT     H162696   8.616   2.966   5.000
20818WAT     H262697   8.605   3.009   5.157
20819WAT      O62698   1.680   2.709   3.759
20819WAT     H162699   1.729   2.677   3.840
20819WAT     H262700   1.582   2.702   3.775
20820WAT      O62701   9.008   9.225   1.649
20820WAT     H162702   8.908   9.227   1.644
20820WAT     H262703   9.037   9.189   1.737
20821WAT      O62704   0.378   6.376   0.954
20821WAT     H162705   0.452   6.322   0.993
20821WAT     H262706   0.383   6.469   0.990
20822WAT      O62707   3.075   8.250   7.174
20822WAT     H162708   3.117   8.336   7.201
20822WAT     H262709   3.023   8.263   7.090
20823WAT      O62710   1.514   4.050   6.116
20823WAT     H162711   1.442   4.018   6.178
20823WAT     H262712   1.479   4.124   6.059
20824WAT      O62713   3.546   6.580   2.717
20824WAT     H162714   3.598   6.528   2.649
20824WAT     H262715   3.579   6.559   2.809
20825WAT      O62716   8.762   3.156   8.621
20825WAT     H162717   8.719   3.245   8.635
20825WAT     H262718   8.844   3.167   8.566
20826WAT      O62719   7.006   4.197   0.055
20826WAT     H162720   6.984   4.220  -0.040
20826WAT     H262721   6.948   4.121   0.085
20827WAT      O62722   3.716   2.756   8.344
20827WAT     H162723   3.774   2.677   8.325
20827WAT     H262724   3.633   2.750   8.287
20828WAT      O62725   3.687   0.816   2.251
20828WAT     H162726   3.663   0.747   2.320
20828WAT     H262727   3.781   0.801   2.220
20829WAT      O62728   9.061   5.479   0.355
20829WAT     H162729   8.989   5.474   0.286
20829WAT     H262730   9.140   5.527   0.318
20830WAT      O62731   9.800   1.170   2.924
20830WAT     H162732   9.895   1.150   2.946
20830WAT     H262733   9.781   1.141   2.830
20831WAT      O62734   5.194   7.788   8.100
20831WAT     H162735   5.178   7.696   8.134
20831WAT     H262736   5.107   7.836   8.091
20832WAT      O62737   9.477   2.891   5.387
20832WAT     H162738   9.386   2.913   5.352
20832WAT     H262739   9.470   2.863   5.483
20833WAT      O62740   0.409   4.481   7.286
20833WAT     H162741   0.493   4.446   7.244
20833WAT     H262742   0.427   4.572   7.325
20834WAT      O62743   9.149   4.724   1.660
20834WAT     H162744   9.211   4.700   1.735
20834WAT     H262745   9.200   4.727   1.574
20835WAT      O62746   5.635   4.500   5.387
20835WAT     H162747   5.605   4.595   5.394
20835WAT     H262748   5.582   4.453   5.316
20836WAT      O62749   0.044   7.339   5.038
20836WAT     H162750   0.015   7.431   5.011
20836WAT     H262751   0.066   7.338   5.136
20837WAT      O62752   4.231   3.942   7.961
20837WAT     H162753   4.327   3.959   7.982
20837WAT     H262754   4.220   3.934   7.862
20838WAT      O62755   0.399   9.838   6.298
20838WAT     H162756   0.374   9.836   6.395
20838WAT     H262757   0.357   9.918   6.255
20839WAT      O62758   9.312   3.025   6.915
20839WAT     H162759   9.303   2.926   6.921
20839WAT     H262760   9.279   3.068   6.999
20840WAT      O62761   0.674   5.763   3.743
20840WAT     H162762   0.620   5.844   3.765
20840WAT     H262763   0.684   5.707   3.825
20841WAT      O62764   4.279   1.685   8.408
20841WAT     H162765   4.278   1.784   8.416
20841WAT     H262766   4.372   1.651   8.427
20842WAT      O62767   0.728   4.673   7.041
20842WAT     H162768   0.683   4.739   6.981
20842WAT     H262769   0.752   4.717   7.127
20843WAT      O62770   7.204   3.085   8.414
20843WAT     H162771   7.287   3.030   8.409
20843WAT     H262772   7.222   3.177   8.379
20844WAT      O62773   1.079   9.194   0.797
20844WAT     H162774   1.042   9.212   0.706
20844WAT     H262775   1.052   9.268   0.859
20845WAT      O62776   6.348   1.324   9.809
20845WAT     H162777   6.300   1.410   9.830
20845WAT     H262778   6.445   1.343   9.797
20846WAT      O62779   5.152   4.536   6.175
20846WAT     H162780   5.097   4.608   6.132
20846WAT     H262781   5.114   4.446   6.151
20847WAT      O62782   7.166   5.747   6.306
20847WAT     H162783   7.231   5.821   6.324
20847WAT     H262784   7.110   5.731   6.387
20848WAT      O62785   7.709   5.681   4.286
20848WAT     H162786   7.673   5.598   4.241
20848WAT     H262787   7.642   5.715   4.351
20849WAT      O62788   7.549   1.225   0.186
20849WAT     H162789   7.571   1.158   0.115
20849WAT     H262790   7.612   1.302   0.179
20850WAT      O62791   2.774   2.315   9.586
20850WAT     H162792   2.721   2.263   9.520
20850WAT     H262793   2.749   2.412   9.581
20851WAT      O62794   5.078   4.216   7.494
20851WAT     H162795   5.177   4.225   7.478
20851WAT     H262796   5.045   4.133   7.450
20852WAT      O62797   7.551   0.105   6.280
20852WAT     H162798   7.502   0.122   6.366
20852WAT     H262799   7.494   0.133   6.203
20853WAT      O62800   2.872   6.686   7.603
20853WAT     H162801   2.865   6.783   7.579
20853WAT     H262802   2.949   6.673   7.665
20854WAT      O62803   6.308   7.046   1.368
20854WAT     H162804   6.213   7.072   1.352
20854WAT     H262805   6.365   7.128   1.368
20855WAT      O62806   4.772   6.545   2.792
20855WAT     H162807   4.786   6.639   2.762
20855WAT     H262808   4.819   6.483   2.730
20856WAT      O62809   8.646   8.792   8.207
20856WAT     H162810   8.593   8.771   8.125
20856WAT     H262811   8.634   8.889   8.230
20857WAT      O62812   1.424   0.825   1.134
20857WAT     H162813   1.472   0.764   1.071
20857WAT     H262814   1.480   0.905   1.152
20858WAT      O62815   1.360   5.528   2.514
20858WAT     H162816   1.451   5.563   2.491
20858WAT     H262817   1.328   5.468   2.440
20859WAT      O62818   4.573   3.524   9.740
20859WAT     H162819   4.547   3.607   9.690
20859WAT     H262820   4.609   3.456   9.675
20860WAT      O62821   1.534   4.967   4.465
20860WAT     H162822   1.576   4.883   4.502
20860WAT     H262823   1.543   4.968   4.366
20861WAT      O62824   9.791   9.287   6.975
20861WAT     H162825   9.761   9.317   6.884
20861WAT     H262826   9.764   9.192   6.988
20862WAT      O62827   2.833   0.826   4.595
20862WAT     H162828   2.779   0.877   4.661
20862WAT     H262829   2.798   0.844   4.503
20863WAT      O62830   8.027   8.546   4.584
20863WAT     H162831   8.009   8.574   4.489
20863WAT     H262832   8.124   8.526   4.595
20864WAT      O62833   0.943   1.509   8.159
20864WAT     H162834   0.868   1.555   8.206
20864WAT     H262835   1.028   1.558   8.178
20865WAT      O62836   1.553   9.184   0.075
20865WAT     H162837   1.502   9.266   0.105
20865WAT     H262838   1.525   9.160  -0.018
20866WAT      O62839   1.616   2.191   7.219
20866WAT     H162840   1.537   2.148   7.175
20866WAT     H262841   1.700   2.148   7.186
20867WAT      O62842   8.592   4.448   2.714
20867WAT     H162843   8.608   4.422   2.618
20867WAT     H262844   8.523   4.388   2.754
20868WAT      O62845   5.014   8.365   0.392
20868WAT     H162846   4.941   8.417   0.347
20868WAT     H262847   5.093   8.424   0.407
20869WAT      O62848   2.610   2.158   8.162
20869WAT     H162849   2.682   2.222   8.139
20869WAT     H262850   2.530   2.208   8.197
20870WAT      O62851   5.726   9.416   1.836
20870WAT     H162852   5.752   9.470   1.756
20870WAT     H262853   5.648   9.459   1.881
20871WAT      O62854   1.858   7.354   5.093
20871WAT     H162855   1.804   7.418   5.039
20871WAT     H262856   1.861   7.384   5.188
20872WAT      O62857   5.540   4.905   3.165
20872WAT     H162858   5.464   4.957   3.125
20872WAT     H262859   5.571   4.951   3.248
20873WAT      O62860   6.990   2.195   1.712
20873WAT     H162861   6.947   2.274   1.754
20873WAT     H262862   6.996   2.208   1.613
20874WAT      O62863   6.842   2.250   7.634
20874WAT     H162864   6.743   2.243   7.644
20874WAT     H262865   6.886   2.178   7.688
20875WAT      O62866   9.199   7.437   8.014
20875WAT     H162867   9.109   7.474   7.991
20875WAT     H262868   9.192   7.377   8.093
20876WAT      O62869   9.236   9.506   0.766
20876WAT     H162870   9.146   9.469   0.741
20876WAT     H262871   9.304   9.434   0.759
20877WAT      O62872   5.885   2.572   4.037
20877WAT     H162873   5.851   2.653   4.084
20877WAT     H262874   5.849   2.569   3.944
20878WAT      O62875   5.978   2.461   3.229
20878WAT     H162876   6.060   2.518   3.238
20878WAT     H262877   5.928   2.460   3.315
20879WAT      O62878   2.710   5.421   0.075
20879WAT     H162879   2.661   5.479   0.140
20879WAT     H262880   2.728   5.332   0.117
20880WAT      O62881   3.075   8.734   3.144
20880WAT     H162882   3.167   8.755   3.179
20880WAT     H262883   3.050   8.799   3.073
20881WAT      O62884   0.841   4.865   6.693
20881WAT     H162885   0.910   4.876   6.764
20881WAT     H262886   0.878   4.807   6.620
20882WAT      O62887   2.317   2.580   6.961
20882WAT     H162888   2.261   2.547   6.885
20882WAT     H262889   2.413   2.582   6.932
20883WAT      O62890   0.644   0.262   9.030
20883WAT     H162891   0.577   0.258   9.104
20883WAT     H262892   0.726   0.211   9.056
20884WAT      O62893   5.354   3.707   9.348
20884WAT     H162894   5.362   3.804   9.326
20884WAT     H262895   5.403   3.653   9.279
20885WAT      O62896   5.891   9.491   5.804
20885WAT     H162897   5.874   9.541   5.889
20885WAT     H262898   5.952   9.545   5.746
20886WAT      O62899   3.965   3.675   3.347
20886WAT     H162900   4.023   3.600   3.378
20886WAT     H262901   3.898   3.640   3.281
20887WAT      O62902   3.978   0.010   4.118
20887WAT     H162903   4.029   0.061   4.048
20887WAT     H262904   4.041  -0.015   4.192
20888WAT      O62905   4.197   1.049   5.452
20888WAT     H162906   4.231   0.957   5.473
20888WAT     H262907   4.274   1.110   5.434
20889WAT      O62908   7.914   9.539   6.538
20889WAT     H162909   7.990   9.490   6.495
20889WAT     H262910   7.896   9.499   6.628
20890WAT      O62911   5.158   3.014   7.442
20890WAT     H162912   5.181   2.959   7.361
20890WAT     H262913   5.230   3.004   7.510
20891WAT      O62914   3.798   2.665   5.570
20891WAT     H162915   3.786   2.567   5.556
20891WAT     H262916   3.839   2.680   5.660
20892WAT      O62917   3.688   4.272   5.534
20892WAT     H162918   3.759   4.296   5.467
20892WAT     H262919   3.637   4.354   5.559
20893WAT      O62920   8.440   9.656   4.680
20893WAT     H162921   8.476   9.658   4.773
20893WAT     H262922   8.359   9.715   4.674
20894WAT      O62923   6.754   4.172   9.006
20894WAT     H162924   6.822   4.178   8.934
20894WAT     H262925   6.674   4.122   8.972
20895WAT      O62926   6.531   4.238   2.916
20895WAT     H162927   6.600   4.196   2.974
20895WAT     H262928   6.534   4.338   2.927
20896WAT      O62929   0.625   0.381   0.915
20896WAT     H162930   0.658   0.367   0.822
20896WAT     H262931   0.542   0.436   0.913
20897WAT      O62932   2.388   6.939   2.084
20897WAT     H162933   2.424   6.981   2.168
20897WAT     H262934   2.335   7.007   2.033
20898WAT      O62935   9.644   6.628   3.581
20898WAT     H162936   9.632   6.546   3.637
20898WAT     H262937   9.572   6.632   3.511
20899WAT      O62938   4.950   6.805   5.440
20899WAT     H162939   5.014   6.881   5.426
20899WAT     H262940   4.916   6.808   5.534
20900WAT      O62941   0.193   5.812   2.732
20900WAT     H162942   0.118   5.770   2.681
20900WAT     H262943   0.159   5.891   2.782
20901WAT      O62944   4.695   8.422   5.797
20901WAT     H162945   4.656   8.504   5.754
20901WAT     H262946   4.766   8.450   5.862
20902WAT      O62947   6.803   6.674   0.431
20902WAT     H162948   6.885   6.694   0.485
20902WAT     H262949   6.828   6.621   0.350
20903WAT      O62950   3.934   4.653   5.071
20903WAT     H162951   3.950   4.554   5.072
20903WAT     H262952   3.860   4.675   5.135
20904WAT      O62953   8.829   3.705   4.390
20904WAT     H162954   8.825   3.648   4.472
20904WAT     H262955   8.917   3.692   4.344
20905WAT      O62956   5.820   5.809   0.009
20905WAT     H162957   5.723   5.812   0.032
20905WAT     H262958   5.847   5.716  -0.012
20906WAT      O62959   2.802   9.517   3.832
20906WAT     H162960   2.877   9.451   3.832
20906WAT     H262961   2.756   9.514   3.921
20907WAT      O62962   5.530   1.675   1.270
20907WAT     H162963   5.543   1.766   1.229
20907WAT     H262964   5.535   1.682   1.369
20908WAT      O62965   8.372   9.403   4.960
20908WAT     H162966   8.430   9.396   4.879
20908WAT     H262967   8.429   9.416   5.041
20909WAT      O62968   4.227   1.205   7.660
20909WAT     H162969   4.304   1.207   7.724
20909WAT     H262970   4.205   1.111   7.636
20910WAT      O62971   7.197   0.821   6.808
20910WAT     H162972   7.241   0.790   6.892
20910WAT     H262973   7.258   0.885   6.761
20911WAT      O62974   7.354   8.934   5.659
20911WAT     H162975   7.361   8.925   5.758
20911WAT     H262976   7.439   8.906   5.616
20912WAT      O62977   5.798   3.196   7.043
20912WAT     H162978   5.738   3.222   7.118
20912WAT     H262979   5.849   3.114   7.067
20913WAT      O62980   2.944   9.627   8.006
20913WAT     H162981   2.893   9.580   7.933
20913WAT     H262982   3.033   9.584   8.017
20914WAT      O62983   7.868   2.935   6.799
20914WAT     H162984   7.926   2.909   6.722
20914WAT     H262985   7.794   2.868   6.809
20915WAT      O62986   0.892   8.337   9.245
20915WAT     H162987   0.978   8.361   9.198
20915WAT     H262988   0.908   8.261   9.307
20916WAT      O62989   4.417   8.209   7.701
20916WAT     H162990   4.356   8.281   7.734
20916WAT     H262991   4.394   8.122   7.746
20917WAT      O62992   0.659   0.020   3.529
20917WAT     H162993   0.747   0.052   3.563
20917WAT     H262994   0.586   0.082   3.559
20918WAT      O62995   0.731   4.782   1.928
20918WAT     H162996   0.638   4.816   1.939
20918WAT     H262997   0.768   4.814   1.840
20919WAT      O62998   3.442   0.089   8.951
20919WAT     H162999   3.399   0.000   8.932
20919WAT     H263000   3.504   0.112   8.876
20920WAT      O63001   1.619   4.377   6.534
20920WAT     H163002   1.661   4.310   6.595
20920WAT     H263003   1.573   4.330   6.459
20921WAT      O63004   7.363   6.707   0.643
20921WAT     H163005   7.416   6.630   0.608
20921WAT     H263006   7.274   6.709   0.596
20922WAT      O63007   8.797   6.168   9.574
20922WAT     H163008   8.728   6.132   9.637
20922WAT     H263009   8.751   6.199   9.490
20923WAT      O63010   4.057   1.579   4.137
20923WAT     H163011   3.957   1.577   4.128
20923WAT     H263012   4.086   1.672   4.162
20924WAT      O63013   7.484   6.834   1.561
20924WAT     H163014   7.413   6.899   1.534
20924WAT     H263015   7.456   6.788   1.645
20925WAT      O63016   0.768   7.386   3.166
20925WAT     H163017   0.737   7.310   3.109
20925WAT     H263018   0.858   7.365   3.203
20926WAT      O63019   7.116   6.584   6.957
20926WAT     H163020   7.160   6.546   6.875
20926WAT     H263021   7.144   6.530   7.037
20927WAT      O63022   6.073   6.647   9.771
20927WAT     H163023   6.095   6.549   9.776
20927WAT     H263024   6.127   6.696   9.839
20928WAT      O63025   9.666   5.538   3.940
20928WAT     H163026   9.728   5.462   3.959
20928WAT     H263027   9.572   5.509   3.951
20929WAT      O63028   5.377   2.143   4.077
20929WAT     H163029   5.328   2.190   4.150
20929WAT     H263030   5.328   2.156   3.991
20930WAT      O63031   7.070   3.631   7.709
20930WAT     H163032   7.008   3.568   7.663
20930WAT     H263033   7.165   3.604   7.690
20931WAT      O63034   2.706   8.090   5.262
20931WAT     H163035   2.689   8.144   5.345
20931WAT     H263036   2.767   8.140   5.201
20932WAT      O63037   8.473   7.575   7.340
20932WAT     H163038   8.427   7.622   7.265
20932WAT     H263039   8.455   7.477   7.335
20933WAT      O63040   6.489   1.532   4.418
20933WAT     H163041   6.500   1.560   4.323
20933WAT     H263042   6.441   1.445   4.422
20934WAT      O63043   0.780   9.105   2.352
20934WAT     H163044   0.788   9.005   2.361
20934WAT     H263045   0.731   9.127   2.267
20935WAT      O63046   2.041   5.859   7.929
20935WAT     H163047   2.080   5.949   7.905
20935WAT     H263048   2.063   5.838   8.024
20936WAT      O63049   1.647   3.565   2.501
20936WAT     H163050   1.664   3.632   2.574
20936WAT     H263051   1.551   3.567   2.475
20937WAT      O63052   6.479   3.652   0.276
20937WAT     H163053   6.442   3.703   0.198
20937WAT     H263054   6.451   3.697   0.361
20938WAT      O63055   6.793   8.335   4.858
20938WAT     H163056   6.706   8.357   4.813
20938WAT     H263057   6.814   8.405   4.926
20939WAT      O63058   7.753   8.064   3.070
20939WAT     H163059   7.666   8.042   3.114
20939WAT     H263060   7.743   8.056   2.971
20940WAT      O63061   9.198   8.594   9.696
20940WAT     H163062   9.204   8.534   9.615
20940WAT     H263063   9.240   8.682   9.675
20941WAT      O63064   6.619   4.742   3.865
20941WAT     H163065   6.634   4.837   3.891
20941WAT     H263066   6.521   4.724   3.859
20942WAT      O63067   2.475   7.594   0.711
20942WAT     H163068   2.411   7.573   0.637
20942WAT     H263069   2.490   7.512   0.766
20943WAT      O63070   1.735   8.594   4.963
20943WAT     H163071   1.637   8.572   4.964
20943WAT     H263072   1.753   8.669   5.026
20944WAT      O63073   7.221   1.674   1.130
20944WAT     H163074   7.159   1.714   1.062
20944WAT     H263075   7.314   1.702   1.110
20945WAT      O63076   9.054   1.960   4.108
20945WAT     H163077   8.972   1.920   4.068
20945WAT     H263078   9.134   1.904   4.085
20946WAT      O63079   2.968   5.758   1.182
20946WAT     H163080   2.914   5.749   1.266
20946WAT     H263081   3.036   5.685   1.179
20947WAT      O63082   6.398   3.962   3.335
20947WAT     H163083   6.406   3.913   3.249
20947WAT     H263084   6.303   3.958   3.367
20948WAT      O63085   3.546   0.022   1.474
20948WAT     H163086   3.493   0.038   1.557
20948WAT     H263087   3.546   0.104   1.418
20949WAT      O63088   6.302   9.694   2.979
20949WAT     H163089   6.204   9.688   2.961
20949WAT     H263090   6.321   9.771   3.040
20950WAT      O63091   6.936   8.379   6.326
20950WAT     H163092   6.935   8.436   6.244
20950WAT     H263093   7.026   8.385   6.370
20951WAT      O63094   4.872   7.188   2.807
20951WAT     H163095   4.931   7.225   2.879
20951WAT     H263096   4.857   7.091   2.822
20952WAT      O63097   1.345   5.105   5.109
20952WAT     H163098   1.248   5.089   5.130
20952WAT     H263099   1.377   5.036   5.045
20953WAT      O63100   1.515   7.097   4.568
20953WAT     H163101   1.476   7.065   4.481
20953WAT     H263102   1.486   7.037   4.642
20954WAT      O63103   5.808   5.374   5.485
20954WAT     H163104   5.744   5.444   5.518
20954WAT     H263105   5.865   5.413   5.413
20955WAT      O63106   9.206   1.806   7.100
20955WAT     H163107   9.268   1.757   7.039
20955WAT     H263108   9.257   1.872   7.154
20956WAT      O63109   7.141   5.132   5.932
20956WAT     H163110   7.141   5.119   5.833
20956WAT     H263111   7.047   5.132   5.966
20957WAT      O63112   9.326   9.167   3.018
20957WAT     H163113   9.390   9.223   2.965
20957WAT     H263114   9.262   9.226   3.067
20958WAT      O63115   3.391   6.501   6.069
20958WAT     H163116   3.491   6.501   6.072
20958WAT     H263117   3.359   6.579   6.016
20959WAT      O63118   7.695   4.894   5.550
20959WAT     H163119   7.775   4.920   5.604
20959WAT     H263120   7.724   4.839   5.471
20960WAT      O63121   9.369   5.988   4.196
20960WAT     H163122   9.340   5.892   4.204
20960WAT     H263123   9.323   6.031   4.119
20961WAT      O63124   3.061   1.773   5.897
20961WAT     H163125   3.115   1.838   5.951
20961WAT     H263126   3.006   1.823   5.829
20962WAT      O63127   6.475   2.018   1.590
20962WAT     H163128   6.517   1.959   1.659
20962WAT     H263129   6.433   1.961   1.519
20963WAT      O63130   9.667   1.186   3.427
20963WAT     H163131   9.664   1.142   3.517
20963WAT     H263132   9.647   1.283   3.436
20964WAT      O63133   1.646   6.568   3.312
20964WAT     H163134   1.568   6.530   3.362
20964WAT     H263135   1.705   6.493   3.282
20965WAT      O63136   5.126   1.954   9.520
20965WAT     H163137   5.224   1.937   9.503
20965WAT     H263138   5.076   1.949   9.434
20966WAT      O63139   8.005   8.002   3.182
20966WAT     H163140   7.933   8.019   3.114
20966WAT     H263141   8.066   8.082   3.186
20967WAT      O63142   6.628   4.111   4.256
20967WAT     H163143   6.619   4.050   4.334
20967WAT     H263144   6.576   4.076   4.179
20968WAT      O63145   8.242   6.158   9.866
20968WAT     H163146   8.150   6.189   9.840
20968WAT     H263147   8.309   6.225   9.835
20969WAT      O63148   7.508   2.588   7.143
20969WAT     H163149   7.534   2.682   7.165
20969WAT     H263150   7.591   2.532   7.138
20970WAT      O63151   9.842   4.883   2.652
20970WAT     H163152   9.848   4.891   2.552
20970WAT     H263153   9.858   4.788   2.678
20971WAT      O63154   8.711   4.625   4.694
20971WAT     H163155   8.701   4.554   4.624
20971WAT     H263156   8.652   4.703   4.671
20972WAT      O63157   0.782   6.005   2.944
20972WAT     H163158   0.768   5.925   2.885
20972WAT     H263159   0.700   6.019   3.000
20973WAT      O63160   5.399   9.312   2.318
20973WAT     H163161   5.426   9.240   2.254
20973WAT     H263162   5.302   9.304   2.338
20974WAT      O63163   0.586   9.074   2.069
20974WAT     H163164   0.628   9.075   1.979
20974WAT     H263165   0.590   9.166   2.109
20975WAT      O63166   9.255   8.796   2.255
20975WAT     H163167   9.221   8.855   2.329
20975WAT     H263168   9.231   8.835   2.167
20976WAT      O63169   2.247   2.635   8.233
20976WAT     H163170   2.275   2.607   8.325
20976WAT     H263171   2.149   2.616   8.221
20977WAT      O63172   2.385   4.506   9.663
20977WAT     H163173   2.368   4.417   9.703
20977WAT     H263174   2.377   4.577   9.733
20978WAT      O63175   7.343   0.428   7.350
20978WAT     H163176   7.389   0.496   7.292
20978WAT     H263177   7.348   0.338   7.306
20979WAT      O63178   0.778   6.575   6.698
20979WAT     H163179   0.797   6.664   6.739
20979WAT     H263180   0.721   6.587   6.616
20980WAT      O63181   3.961   6.044   6.011
20980WAT     H163182   3.875   5.996   6.027
20980WAT     H263183   3.953   6.137   6.048
20981WAT      O63184   0.588   4.270   2.444
20981WAT     H163185   0.489   4.269   2.430
20981WAT     H263186   0.634   4.283   2.356
20982WAT      O63187   8.704   5.473   5.160
20982WAT     H163188   8.774   5.428   5.214
20982WAT     H263189   8.686   5.420   5.077
20983WAT      O63190   3.280   0.042   0.102
20983WAT     H163191   3.323  -0.032   0.051
20983WAT     H263192   3.343   0.119   0.110
20984WAT      O63193   0.635   4.529   2.526
20984WAT     H163194   0.632   4.429   2.523
20984WAT     H263195   0.642   4.559   2.621
20985WAT      O63196   9.563   9.695   0.117
20985WAT     H163197   9.606   9.783   0.099
20985WAT     H263198   9.480   9.708   0.172
20986WAT      O63199   4.390   6.422   6.877
20986WAT     H163200   4.475   6.419   6.824
20986WAT     H263201   4.379   6.336   6.927
20987WAT      O63202   4.674   8.159   1.423
20987WAT     H163203   4.699   8.239   1.368
20987WAT     H263204   4.645   8.085   1.362
20988WAT      O63205   9.463   6.533   4.144
20988WAT     H163206   9.473   6.587   4.227
20988WAT     H263207   9.466   6.594   4.064
20989WAT      O63208   2.073   6.451   9.124
20989WAT     H163209   1.987   6.492   9.095
20989WAT     H263210   2.082   6.458   9.223
20990WAT      O63211   1.603   3.239   4.010
20990WAT     H163212   1.522   3.287   4.045
20990WAT     H263213   1.681   3.302   4.009
20991WAT      O63214   3.542   0.557   0.616
20991WAT     H163215   3.609   0.628   0.637
20991WAT     H263216   3.453   0.600   0.599
20992WAT      O63217   8.250   0.632   1.823
20992WAT     H163218   8.349   0.619   1.809
20992WAT     H263219   8.234   0.727   1.851
20993WAT      O63220   7.721   8.818   4.114
20993WAT     H163221   7.703   8.769   4.029
20993WAT     H263222   7.634   8.838   4.160
20994WAT      O63223   5.401   0.343   6.019
20994WAT     H163224   5.499   0.325   6.029
20994WAT     H263225   5.351   0.306   6.097
20995WAT      O63226   0.602   5.267   5.732
20995WAT     H163227   0.687   5.306   5.695
20995WAT     H263228   0.553   5.337   5.784
20996WAT      O63229   3.618   6.241   8.679
20996WAT     H163230   3.651   6.148   8.689
20996WAT     H263231   3.695   6.304   8.672
20997WAT      O63232   3.863   1.102   9.638
20997WAT     H163233   3.898   1.152   9.560
20997WAT     H263234   3.936   1.048   9.680
20998WAT      O63235   7.014   5.954   5.160
20998WAT     H163236   7.079   5.880   5.176
20998WAT     H263237   6.955   5.931   5.082
20999WAT      O63238   9.139   5.565   9.407
20999WAT     H163239   9.112   5.633   9.475
20999WAT     H263240   9.096   5.587   9.319
21000WAT      O63241   0.834   8.073   3.139
21000WAT     H163242   0.744   8.045   3.174
21000WAT     H263243   0.896   8.089   3.215
21001WAT      O63244   9.521   6.549   1.351
21001WAT     H163245   9.496   6.645   1.346
21001WAT     H263246   9.446   6.497   1.392
21002WAT      O63247   0.819   6.861   6.793
21002WAT     H163248   0.878   6.942   6.787
21002WAT     H263249   0.726   6.885   6.764
21003WAT      O63250   1.648   1.378   5.453
21003WAT     H163251   1.575   1.335   5.508
21003WAT     H263252   1.703   1.436   5.512
21004WAT      O63253   4.833   2.634   1.599
21004WAT     H163254   4.887   2.677   1.527
21004WAT     H263255   4.817   2.700   1.672
21005WAT      O63256   2.804   1.710   6.093
21005WAT     H163257   2.739   1.772   6.137
21005WAT     H263258   2.806   1.623   6.144
21006WAT      O63259   6.762   6.864   5.914
21006WAT     H163260   6.771   6.905   6.005
21006WAT     H263261   6.852   6.846   5.876
21007WAT      O63262   1.405   6.800   1.860
21007WAT     H163263   1.453   6.727   1.811
21007WAT     H263264   1.359   6.763   1.940
21008WAT      O63265   8.536   1.927   6.930
21008WAT     H163266   8.593   1.986   6.987
21008WAT     H263267   8.458   1.980   6.895
21009WAT      O63268   5.156   4.063   9.261
21009WAT     H163269   5.102   4.097   9.338
21009WAT     H263270   5.104   4.076   9.176
21010WAT      O63271   4.541   6.702   5.883
21010WAT     H163272   4.531   6.786   5.830
21010WAT     H263273   4.508   6.625   5.830
21011WAT      O63274   3.409   6.018   3.308
21011WAT     H163275   3.434   5.922   3.295
21011WAT     H263276   3.414   6.041   3.405
21012WAT      O63277   4.329   5.355   8.703
21012WAT     H163278   4.309   5.433   8.763
21012WAT     H263279   4.288   5.272   8.741
21013WAT      O63280   3.052   9.051   5.206
21013WAT     H163281   3.072   9.036   5.109
21013WAT     H263282   2.954   9.063   5.219
21014WAT      O63283   9.843   4.262   6.291
21014WAT     H163284   9.747   4.238   6.304
21014WAT     H263285   9.850   4.340   6.228
21015WAT      O63286   9.059   1.899   6.204
21015WAT     H163287   9.029   1.976   6.260
21015WAT     H263288   9.139   1.925   6.150
21016WAT      O63289   0.143   0.659   5.229
21016WAT     H163290   0.159   0.745   5.181
21016WAT     H263291   0.097   0.677   5.316
21017WAT      O63292   8.553   4.677   4.078
21017WAT     H163293   8.601   4.607   4.025
21017WAT     H263294   8.551   4.762   4.025
21018WAT      O63295   0.142   5.056   6.436
21018WAT     H163296   0.167   4.962   6.412
21018WAT     H263297   0.060   5.083   6.385
21019WAT      O63298   8.510   7.011   3.866
21019WAT     H163299   8.533   6.928   3.815
21019WAT     H263300   8.511   7.090   3.804
21020WAT      O63301   0.385   6.530   7.898
21020WAT     H163302   0.469   6.551   7.848
21020WAT     H263303   0.307   6.535   7.835
21021WAT      O63304   2.157   3.014   3.450
21021WAT     H163305   2.215   3.058   3.518
21021WAT     H263306   2.214   2.970   3.381
21022WAT      O63307   3.676   3.269   7.094
21022WAT     H163308   3.691   3.235   7.001
21022WAT     H263309   3.744   3.341   7.114
21023WAT      O63310   7.290   0.157   4.929
21023WAT     H163311   7.366   0.170   4.865
21023WAT     H263312   7.259   0.245   4.963
21024WAT      O63313   0.195   1.250   5.751
21024WAT     H163314   0.132   1.314   5.794
21024WAT     H263315   0.240   1.294   5.674
21025WAT      O63316   4.681   0.061   5.224
21025WAT     H163317   4.636  -0.027   5.219
21025WAT     H263318   4.663   0.103   5.314
21026WAT      O63319   7.135   3.305   9.522
21026WAT     H163320   7.115   3.337   9.430
21026WAT     H263321   7.203   3.231   9.518
21027WAT      O63322   0.927   9.364   6.318
21027WAT     H163323   0.863   9.290   6.299
21027WAT     H263324   0.927   9.429   6.243
21028WAT      O63325   9.456   6.765   8.158
21028WAT     H163326   9.383   6.733   8.218
21028WAT     H263327   9.537   6.708   8.170
21029WAT      O63328   2.550   4.700   3.877
21029WAT     H163329   2.472   4.762   3.868
21029WAT     H263330   2.518   4.607   3.893
21030WAT      O63331   9.191   6.993   4.139
21030WAT     H163332   9.208   6.929   4.214
21030WAT     H263333   9.266   7.058   4.132
21031WAT      O63334   7.993   4.538   2.809
21031WAT     H163335   7.893   4.528   2.809
21031WAT     H263336   8.034   4.453   2.842
21032WAT      O63337   3.952   2.417   8.060
21032WAT     H163338   4.016   2.356   8.106
21032WAT     H263339   3.874   2.364   8.026
21033WAT      O63340   0.897   1.249   1.862
21033WAT     H163341   0.889   1.292   1.952
21033WAT     H263342   0.962   1.301   1.807
21034WAT      O63343   0.719   6.064   5.567
21034WAT     H163344   0.684   6.156   5.551
21034WAT     H263345   0.688   6.004   5.493
21035WAT      O63346   4.034   0.353   8.200
21035WAT     H163347   4.080   0.287   8.140
21035WAT     H263348   4.101   0.417   8.237
21036WAT      O63349   0.466   2.773   2.343
21036WAT     H163350   0.543   2.804   2.399
21036WAT     H263351   0.449   2.839   2.270
21037WAT      O63352   7.248   0.232   5.440
21037WAT     H163353   7.257   0.305   5.507
21037WAT     H263354   7.189   0.262   5.365
21038WAT      O63355   5.840   9.099   5.336
21038WAT     H163356   5.929   9.069   5.370
21038WAT     H263357   5.844   9.196   5.313
21039WAT      O63358   1.362   9.383   0.114
21039WAT     H163359   1.303   9.318   0.066
21039WAT     H263360   1.313   9.468   0.129
21040WAT      O63361   5.340   0.261   3.153
21040WAT     H163362   5.327   0.278   3.251
21040WAT     H263363   5.282   0.325   3.102
21041WAT      O63364   0.822   5.599   5.689
21041WAT     H163365   0.833   5.637   5.781
21041WAT     H263366   0.871   5.512   5.683
21042WAT      O63367   3.236   4.520   2.711
21042WAT     H163368   3.289   4.482   2.786
21042WAT     H263369   3.247   4.463   2.630
21043WAT      O63370   5.871   9.263   7.680
21043WAT     H163371   5.892   9.247   7.584
21043WAT     H263372   5.777   9.296   7.689
21044WAT      O63373   1.416   6.798   8.117
21044WAT     H163374   1.442   6.701   8.123
21044WAT     H263375   1.466   6.841   8.043
21045WAT      O63376   0.003   3.412   9.035
21045WAT     H163377   0.075   3.466   9.078
21045WAT     H263378   0.023   3.400   8.938
21046WAT      O63379   7.561   5.480   6.096
21046WAT     H163380   7.474   5.486   6.048
21046WAT     H263381   7.609   5.567   6.090
21047WAT      O63382   0.042   3.177   0.018
21047WAT     H163383   0.119   3.121  -0.011
21047WAT     H263384   0.054   3.201   0.115
21048WAT      O63385   4.936   9.421   0.057
21048WAT     H163386   4.867   9.458   0.119
21048WAT     H263387   4.950   9.484  -0.019
21049WAT      O63388   3.177   4.788   2.753
21049WAT     H163389   3.196   4.837   2.838
21049WAT     H263390   3.200   4.691   2.764
21050WAT      O63391   9.361   1.786   2.965
21050WAT     H163392   9.426   1.720   2.927
21050WAT     H263393   9.299   1.738   3.028
21051WAT      O63394   4.185   2.921   3.735
21051WAT     H163395   4.268   2.973   3.718
21051WAT     H263396   4.207   2.840   3.790
21052WAT      O63397   0.765   1.206   6.351
21052WAT     H163398   0.785   1.303   6.360
21052WAT     H263399   0.676   1.187   6.392
21053WAT      O63400   2.833   7.611   9.829
21053WAT     H163401   2.798   7.633   9.738
21053WAT     H263402   2.916   7.557   9.820
21054WAT      O63403   9.377   8.163   2.909
21054WAT     H163404   9.459   8.111   2.929
21054WAT     H263405   9.307   8.143   2.978
21055WAT      O63406   0.588   1.358   0.814
21055WAT     H163407   0.526   1.385   0.741
21055WAT     H263408   0.543   1.289   0.871
21056WAT      O63409   1.520   7.758   6.464
21056WAT     H163410   1.456   7.828   6.496
21056WAT     H263411   1.606   7.802   6.436
21057WAT      O63412   5.735   0.919   7.335
21057WAT     H163413   5.746   0.827   7.298
21057WAT     H263414   5.676   0.916   7.415
21058WAT      O63415   8.183   7.046   3.300
21058WAT     H163416   8.161   6.969   3.360
21058WAT     H263417   8.149   7.131   3.341
21059WAT      O63418   7.890   4.687   3.177
21059WAT     H163419   7.893   4.589   3.155
21059WAT     H263420   7.886   4.698   3.277
21060WAT      O63421   4.111   7.017   0.314
21060WAT     H163422   4.015   7.044   0.313
21060WAT     H263423   4.157   7.060   0.392
21061WAT      O63424   5.760   6.032   7.685
21061WAT     H163425   5.739   5.934   7.690
21061WAT     H263426   5.760   6.071   7.777
21062WAT      O63427   1.993   5.770   1.180
21062WAT     H163428   1.919   5.710   1.150
21062WAT     H263429   2.006   5.760   1.279
21063WAT      O63430   1.783   7.547   5.813
21063WAT     H163431   1.725   7.481   5.765
21063WAT     H263432   1.825   7.609   5.746
21064WAT      O63433   1.514   2.730   2.894
21064WAT     H163434   1.548   2.789   2.967
21064WAT     H263435   1.467   2.651   2.934
21065WAT      O63436   4.453   2.647   3.601
21065WAT     H163437   4.406   2.628   3.515
21065WAT     H263438   4.386   2.661   3.673
21066WAT      O63439   1.463   3.083   8.249
21066WAT     H163440   1.367   3.089   8.275
21066WAT     H263441   1.503   3.175   8.248
21067WAT      O63442   5.922   6.872   0.983
21067WAT     H163443   5.835   6.920   0.999
21067WAT     H263444   5.904   6.785   0.936
21068WAT      O63445   3.682   5.866   2.698
21068WAT     H163446   3.746   5.862   2.775
21068WAT     H263447   3.605   5.804   2.715
21069WAT      O63448   4.641   7.894   5.856
21069WAT     H163449   4.734   7.857   5.848
21069WAT     H263450   4.577   7.831   5.812
21070WAT      O63451   7.261   4.262   3.334
21070WAT     H163452   7.287   4.283   3.428
21070WAT     H263453   7.329   4.201   3.294
21071WAT      O63454   2.663   7.616   7.433
21071WAT     H163455   2.675   7.704   7.387
21071WAT     H263456   2.566   7.603   7.455
21072WAT      O63457   3.570   6.963   1.401
21072WAT     H163458   3.557   6.879   1.348
21072WAT     H263459   3.508   6.963   1.479
21073WAT      O63460   8.379   2.997   1.071
21073WAT     H163461   8.452   2.991   1.004
21073WAT     H263462   8.358   2.906   1.106
21074WAT      O63463   5.822   5.375   6.068
21074WAT     H163464   5.890   5.390   6.140
21074WAT     H263465   5.770   5.292   6.088
21075WAT      O63466   3.768   7.881   6.417
21075WAT     H163467   3.791   7.786   6.395
21075WAT     H263468   3.669   7.892   6.414
21076WAT      O63469   1.813   0.201   5.872
21076WAT     H163470   1.741   0.173   5.935
21076WAT     H263471   1.772   0.254   5.797
21077WAT      O63472   1.869   1.067   9.859
21077WAT     H163473   1.794   1.003   9.874
21077WAT     H263474   1.858   1.146   9.919
21078WAT      O63475   9.314   7.626   8.179
21078WAT     H163476   9.406   7.640   8.142
21078WAT     H263477   9.264   7.563   8.121
21079WAT      O63478   9.345   1.583   6.501
21079WAT     H163479   9.418   1.612   6.563
21079WAT     H263480   9.267   1.644   6.511
21080WAT      O63481   5.264   1.123   4.442
21080WAT     H163482   5.273   1.165   4.532
21080WAT     H263483   5.291   1.188   4.372
21081WAT      O63484   4.191   1.363   0.895
21081WAT     H163485   4.285   1.343   0.923
21081WAT     H263486   4.138   1.390   0.975
21082WAT      O63487   4.016   2.554   7.829
21082WAT     H163488   3.989   2.504   7.911
21082WAT     H263489   3.934   2.572   7.774
21083WAT      O63490   8.105   8.584   8.529
21083WAT     H163491   8.146   8.496   8.553
21083WAT     H263492   8.175   8.654   8.524
21084WAT      O63493   4.788   9.784   7.047
21084WAT     H163494   4.730   9.792   7.129
21084WAT     H263495   4.825   9.691   7.042
21085WAT      O63496   7.293   8.315   5.382
21085WAT     H163497   7.264   8.233   5.432
21085WAT     H263498   7.284   8.299   5.284
21086WAT      O63499   2.645   3.980   0.515
21086WAT     H163500   2.712   4.027   0.457
21086WAT     H263501   2.687   3.899   0.555
21087WAT      O63502   4.262   1.167   4.016
21087WAT     H163503   4.329   1.239   3.998
21087WAT     H263504   4.171   1.199   3.993
21088WAT      O63505   5.469   6.102   1.126
21088WAT     H163506   5.495   6.136   1.036
21088WAT     H263507   5.415   6.171   1.173
21089WAT      O63508   1.689   8.488   0.643
21089WAT     H163509   1.589   8.489   0.651
21089WAT     H263510   1.714   8.500   0.547
21090WAT      O63511   6.362   0.038   0.263
21090WAT     H163512   6.451   0.070   0.229
21090WAT     H263513   6.363   0.041   0.363
21091WAT      O63514   1.951   6.953   5.328
21091WAT     H163515   1.983   6.988   5.240
21091WAT     H263516   1.861   6.991   5.348
21092WAT      O63517   4.652   2.791   9.882
21092WAT     H163518   4.693   2.869   9.930
21092WAT     H263519   4.573   2.759   9.935
21093WAT      O63520   6.720   7.658   5.003
21093WAT     H163521   6.787   7.721   5.042
21093WAT     H263522   6.752   7.625   4.914
21094WAT      O63523   2.687   3.144   0.213
21094WAT     H163524   2.727   3.171   0.301
21094WAT     H263525   2.597   3.102   0.229
21095WAT      O63526   9.537   0.450   8.820
21095WAT     H163527   9.522   0.413   8.912
21095WAT     H263528   9.449   0.480   8.782
21096WAT      O63529   6.694   7.891   8.129
21096WAT     H163530   6.616   7.855   8.180
21096WAT     H263531   6.771   7.827   8.136
21097WAT      O63532   5.372   4.452   4.722
21097WAT     H163533   5.428   4.401   4.657
21097WAT     H263534   5.300   4.501   4.674
21098WAT      O63535   7.889   1.531   7.206
21098WAT     H163536   7.815   1.493   7.151
21098WAT     H263537   7.908   1.625   7.176
21099WAT      O63538   1.545   3.238   5.255
21099WAT     H163539   1.453   3.259   5.288
21099WAT     H263540   1.539   3.187   5.169
21100WAT      O63541   6.097   0.456   7.236
21100WAT     H163542   6.100   0.512   7.319
21100WAT     H263543   6.088   0.516   7.156
21101WAT      O63544   7.069   4.456   9.491
21101WAT     H163545   7.027   4.472   9.581
21101WAT     H263546   7.077   4.542   9.442
21102WAT      O63547   3.061   2.141   4.685
21102WAT     H163548   3.155   2.144   4.719
21102WAT     H263549   3.005   2.084   4.745
21103WAT      O63550   8.145   8.930   2.877
21103WAT     H163551   8.144   8.834   2.849
21103WAT     H263552   8.239   8.964   2.874
21104WAT      O63553   5.520   8.391   8.823
21104WAT     H163554   5.598   8.429   8.873
21104WAT     H263555   5.477   8.463   8.769
21105WAT      O63556   6.000   5.533   0.386
21105WAT     H163557   5.979   5.511   0.481
21105WAT     H263558   6.015   5.632   0.377
21106WAT      O63559   4.660   6.406   1.322
21106WAT     H163560   4.569   6.448   1.324
21106WAT     H263561   4.657   6.318   1.368
21107WAT      O63562   7.740   0.968   4.868
21107WAT     H163563   7.774   0.951   4.961
21107WAT     H263564   7.809   1.020   4.817
21108WAT      O63565   7.549   0.012   8.719
21108WAT     H163566   7.525  -0.067   8.664
21108WAT     H263567   7.466   0.067   8.737
21109WAT      O63568   4.702   2.982   3.437
21109WAT     H163569   4.726   3.069   3.481
21109WAT     H263570   4.768   2.962   3.364
21110WAT      O63571   0.981   0.375   8.613
21110WAT     H163572   1.024   0.359   8.525
21110WAT     H263573   0.956   0.471   8.621
21111WAT      O63574   0.260   5.380   0.476
21111WAT     H163575   0.162   5.389   0.461
21111WAT     H263576   0.282   5.406   0.570
21112WAT      O63577   2.409   6.808   1.743
21112WAT     H163578   2.504   6.779   1.746
21112WAT     H263579   2.385   6.835   1.650
21113WAT      O63580   9.810   2.446   0.299
21113WAT     H163581   9.821   2.525   0.239
21113WAT     H263582   9.866   2.370   0.264
21114WAT      O63583   2.257   5.907   7.501
21114WAT     H163584   2.277   5.860   7.415
21114WAT     H263585   2.208   5.846   7.562
21115WAT      O63586   9.624   5.941   8.825
21115WAT     H163587   9.545   5.975   8.876
21115WAT     H263588   9.697   6.010   8.825
21116WAT      O63589   7.703   8.753   3.172
21116WAT     H163590   7.647   8.829   3.137
21116WAT     H263591   7.670   8.727   3.263
21117WAT      O63592   2.554   3.905   7.034
21117WAT     H163593   2.527   4.000   7.051
21117WAT     H263594   2.497   3.866   6.961
21118WAT      O63595   5.774   6.548   7.494
21118WAT     H163596   5.821   6.629   7.531
21118WAT     H263597   5.764   6.479   7.566
21119WAT      O63598   2.198   7.371   4.170
21119WAT     H163599   2.145   7.345   4.251
21119WAT     H263600   2.182   7.467   4.149
21120WAT      O63601   6.114   8.374   9.358
21120WAT     H163602   6.045   8.350   9.427
21120WAT     H263603   6.149   8.465   9.377
21121WAT      O63604   9.125   9.591   5.746
21121WAT     H163605   9.178   9.667   5.784
21121WAT     H263606   9.041   9.627   5.704
21122WAT      O63607   5.289   4.147   8.053
21122WAT     H163608   5.229   4.216   8.095
21122WAT     H263609   5.384   4.173   8.064
21123WAT      O63610   1.444   7.273   9.648
21123WAT     H163611   1.376   7.214   9.605
21123WAT     H263612   1.533   7.257   9.606
21124WAT      O63613   0.019   0.374   5.649
21124WAT     H163614   0.079   0.441   5.606
21124WAT     H263615   0.023   0.383   5.748
21125WAT      O63616   4.898   9.692   2.168
21125WAT     H163617   4.859   9.758   2.233
21125WAT     H263618   4.953   9.741   2.101
21126WAT      O63619   2.016   5.833   0.078
21126WAT     H163620   2.053   5.926   0.078
21126WAT     H263621   1.954   5.823   0.156
21127WAT      O63622   6.617   9.077   9.503
21127WAT     H163623   6.675   9.067   9.584
21127WAT     H263624   6.633   8.999   9.441
21128WAT      O63625   0.558   4.596   9.059
21128WAT     H163626   0.487   4.647   9.107
21128WAT     H263627   0.638   4.586   9.119
21129WAT      O63628   5.167   4.461   2.625
21129WAT     H163629   5.218   4.531   2.675
21129WAT     H263630   5.129   4.501   2.541
21130WAT      O63631   7.063   0.738   4.926
21130WAT     H163632   6.988   0.803   4.913
21130WAT     H263633   7.073   0.681   4.844
21131WAT      O63634   9.076   6.517   1.849
21131WAT     H163635   9.169   6.549   1.832
21131WAT     H263636   9.031   6.580   1.913
21132WAT      O63637   6.832   1.405   6.345
21132WAT     H163638   6.735   1.395   6.322
21132WAT     H263639   6.852   1.352   6.427
21133WAT      O63640   6.599   4.402   5.602
21133WAT     H163641   6.586   4.418   5.504
21133WAT     H263642   6.661   4.471   5.639
21134WAT      O63643   6.895   4.240   3.639
21134WAT     H163644   6.881   4.301   3.717
21134WAT     H263645   6.839   4.271   3.562
21135WAT      O63646   7.773   4.228   2.210
21135WAT     H163647   7.832   4.151   2.184
21135WAT     H263648   7.716   4.200   2.288
21136WAT      O63649   4.765   0.953   4.006
21136WAT     H163650   4.786   0.991   3.916
21136WAT     H263651   4.850   0.939   4.057
21137WAT      O63652   9.654   2.263   2.647
21137WAT     H163653   9.647   2.294   2.742
21137WAT     H263654   9.639   2.341   2.585
21138WAT      O63655   4.947   7.118   0.330
21138WAT     H163656   4.945   7.055   0.408
21138WAT     H263657   4.988   7.072   0.251
21139WAT      O63658   9.188   9.765   4.751
21139WAT     H163659   9.254   9.832   4.717
21139WAT     H263660   9.235   9.679   4.771
21140WAT      O63661   5.086   7.456   6.594
21140WAT     H163662   5.056   7.542   6.554
21140WAT     H263663   5.012   7.418   6.650
21141WAT      O63664   0.655   8.826   8.488
21141WAT     H163665   0.717   8.810   8.411
21141WAT     H263666   0.645   8.742   8.541
21142WAT      O63667   0.396   2.280   4.294
21142WAT     H163668   0.444   2.233   4.220
21142WAT     H263669   0.443   2.365   4.315
21143WAT      O63670   4.484   9.750   7.882
21143WAT     H163671   4.543   9.736   7.802
21143WAT     H263672   4.536   9.733   7.965
21144WAT      O63673   5.163   6.784   8.488
21144WAT     H163674   5.213   6.816   8.408
21144WAT     H263675   5.076   6.745   8.459
21145WAT      O63676   7.165   0.327   3.405
21145WAT     H163677   7.200   0.412   3.445
21145WAT     H263678   7.072   0.310   3.438
21146WAT      O63679   5.143   2.742   1.879
21146WAT     H163680   5.219   2.679   1.862
21146WAT     H263681   5.179   2.834   1.896
21147WAT      O63682   8.623   6.608   1.403
21147WAT     H163683   8.541   6.638   1.451
21147WAT     H263684   8.686   6.564   1.467
21148WAT      O63685   0.379   4.940   0.655
21148WAT     H163686   0.293   4.974   0.616
21148WAT     H263687   0.395   4.846   0.622
21149WAT      O63688   2.050   3.262   6.529
21149WAT     H163689   2.136   3.211   6.535
21149WAT     H263690   1.999   3.252   6.614
21150WAT      O63691   0.401   5.259   4.085
21150WAT     H163692   0.324   5.210   4.126
21150WAT     H263693   0.378   5.284   3.991
21151WAT      O63694   5.314   1.935   3.575
21151WAT     H163695   5.257   2.000   3.627
21151WAT     H263696   5.403   1.927   3.620
21152WAT      O63697   9.199   7.537   2.901
21152WAT     H163698   9.190   7.612   2.836
21152WAT     H263699   9.109   7.509   2.933
21153WAT      O63700   3.365   3.706   1.988
21153WAT     H163701   3.393   3.794   1.948
21153WAT     H263702   3.305   3.723   2.066
21154WAT      O63703   6.232   5.133   5.500
21154WAT     H163704   6.197   5.043   5.527
21154WAT     H263705   6.165   5.203   5.526
21155WAT      O63706   4.637   2.821   2.309
21155WAT     H163707   4.602   2.731   2.332
21155WAT     H263708   4.601   2.850   2.220
21156WAT      O63709   1.950   5.943   7.129
21156WAT     H163710   1.889   6.012   7.170
21156WAT     H263711   1.932   5.854   7.169
21157WAT      O63712   2.355   6.610   3.520
21157WAT     H163713   2.292   6.671   3.568
21157WAT     H263714   2.435   6.661   3.490
21158WAT      O63715   2.907   8.018   5.560
21158WAT     H163716   2.814   7.999   5.529
21158WAT     H263717   2.905   8.045   5.657
21159WAT      O63718   7.661   8.415   8.543
21159WAT     H163719   7.645   8.328   8.588
21159WAT     H263720   7.749   8.453   8.572
21160WAT      O63721   4.836   3.230   3.523
21160WAT     H163722   4.882   3.296   3.464
21160WAT     H263723   4.869   3.239   3.617
21161WAT      O63724   7.335   4.077   1.410
21161WAT     H163725   7.414   4.030   1.370
21161WAT     H263726   7.265   4.010   1.435
21162WAT      O63727   5.601   2.180   4.293
21162WAT     H163728   5.539   2.200   4.217
21162WAT     H263729   5.636   2.266   4.330
21163WAT      O63730   3.519   0.138   9.707
21163WAT     H163731   3.528   0.126   9.806
21163WAT     H263732   3.580   0.075   9.660
21164WAT      O63733   6.533   7.851   1.473
21164WAT     H163734   6.537   7.951   1.478
21164WAT     H263735   6.618   7.817   1.432
21165WAT      O63736   6.349   6.196   9.209
21165WAT     H163737   6.274   6.158   9.262
21165WAT     H263738   6.402   6.259   9.266
21166WAT      O63739   2.064   7.025   9.683
21166WAT     H163740   2.053   6.987   9.775
21166WAT     H263741   2.050   7.124   9.687
21167WAT      O63742   3.386   6.451   8.975
21167WAT     H163743   3.372   6.360   9.013
21167WAT     H263744   3.484   6.468   8.963
21168WAT      O63745   7.785   6.591   5.228
21168WAT     H163746   7.818   6.683   5.251
21168WAT     H263747   7.857   6.524   5.247
21169WAT      O63748   7.463   3.449   1.638
21169WAT     H163749   7.436   3.485   1.727
21169WAT     H263750   7.562   3.437   1.635
21170WAT      O63751   2.390   7.602   8.167
21170WAT     H163752   2.424   7.658   8.091
21170WAT     H263753   2.298   7.570   8.146
21171WAT      O63754   9.483   8.587   2.857
21171WAT     H163755   9.527   8.647   2.924
21171WAT     H263756   9.435   8.644   2.789
21172WAT      O63757   7.169   6.468   3.401
21172WAT     H163758   7.184   6.540   3.334
21172WAT     H263759   7.088   6.490   3.456
21173WAT      O63760   8.392   3.831   3.487
21173WAT     H163761   8.403   3.901   3.417
21173WAT     H263762   8.399   3.740   3.444
21174WAT      O63763   8.195   1.894   2.004
21174WAT     H163764   8.163   1.916   1.912
21174WAT     H263765   8.273   1.831   1.998
21175WAT      O63766   2.207   5.494   3.861
21175WAT     H163767   2.154   5.451   3.788
21175WAT     H263768   2.195   5.593   3.857
21176WAT      O63769   1.047   7.090   8.658
21176WAT     H163770   1.065   6.998   8.694
21176WAT     H263771   1.111   7.155   8.700
21177WAT      O63772   0.890   2.636   6.568
21177WAT     H163773   0.832   2.567   6.613
21177WAT     H263774   0.851   2.659   6.479
21178WAT      O63775   6.790   5.208   3.306
21178WAT     H163776   6.839   5.157   3.378
21178WAT     H263777   6.796   5.158   3.220
21179WAT      O63778   7.981   0.493   9.337
21179WAT     H163779   7.939   0.429   9.274
21179WAT     H263780   7.910   0.551   9.378
21180WAT      O63781   9.094   2.651   4.523
21180WAT     H163782   9.052   2.643   4.432
21180WAT     H263783   9.179   2.702   4.516
21181WAT      O63784   4.378   1.105   1.943
21181WAT     H163785   4.415   1.146   1.860
21181WAT     H263786   4.327   1.174   1.994
21182WAT      O63787   0.673   4.056   2.584
21182WAT     H163788   0.653   4.131   2.522
21182WAT     H263789   0.590   4.003   2.600
21183WAT      O63790   1.123   5.269   2.108
21183WAT     H163791   1.141   5.171   2.113
21183WAT     H263792   1.125   5.299   2.013
21184WAT      O63793   6.934   8.074   1.963
21184WAT     H163794   6.841   8.070   1.926
21184WAT     H263795   6.940   8.150   2.028
21185WAT      O63796   5.390   0.855   8.379
21185WAT     H163797   5.414   0.948   8.352
21185WAT     H263798   5.472   0.808   8.412
21186WAT      O63799   0.548   1.098   6.499
21186WAT     H163800   0.454   1.127   6.489
21186WAT     H263801   0.556   1.001   6.473
21187WAT      O63802   8.484   9.120   5.347
21187WAT     H163803   8.415   9.101   5.277
21187WAT     H263804   8.565   9.063   5.331
21188WAT      O63805   4.433   4.297   2.933
21188WAT     H163806   4.456   4.318   3.029
21188WAT     H263807   4.428   4.382   2.881
21189WAT      O63808   7.516   5.922   2.601
21189WAT     H163809   7.540   6.006   2.651
21189WAT     H263810   7.421   5.929   2.569
21190WAT      O63811   4.654   7.577   4.781
21190WAT     H163812   4.700   7.662   4.755
21190WAT     H263813   4.565   7.597   4.822
21191WAT      O63814   4.738   8.112   3.363
21191WAT     H163815   4.779   8.188   3.413
21191WAT     H263816   4.764   8.026   3.406
21192WAT      O63817   7.247   2.254   6.183
21192WAT     H163818   7.333   2.298   6.159
21192WAT     H263819   7.225   2.184   6.114
21193WAT      O63820   2.172   3.592   8.524
21193WAT     H163821   2.150   3.659   8.453
21193WAT     H263822   2.122   3.615   8.608
21194WAT      O63823   2.856   3.586   4.652
21194WAT     H163824   2.861   3.590   4.552
21194WAT     H263825   2.769   3.623   4.683
21195WAT      O63826   1.025   5.134   0.018
21195WAT     H163827   0.991   5.196   0.088
21195WAT     H263828   0.977   5.149  -0.068
21196WAT      O63829   7.704   6.618   0.214
21196WAT     H163830   7.605   6.629   0.206
21196WAT     H263831   7.744   6.598   0.124
21197WAT      O63832   4.858   6.280   5.256
21197WAT     H163833   4.893   6.208   5.316
21197WAT     H263834   4.871   6.369   5.300
21198WAT      O63835   0.171   0.084   8.644
21198WAT     H163836   0.205   0.170   8.681
21198WAT     H263837   0.238   0.046   8.580
21199WAT      O63838   2.401   3.591   9.226
21199WAT     H163839   2.464   3.662   9.257
21199WAT     H263840   2.448   3.503   9.224
21200WAT      O63841   1.058   8.183   0.616
21200WAT     H163842   1.123   8.254   0.587
21200WAT     H263843   1.064   8.172   0.716
21201WAT      O63844   2.043   5.526   4.421
21201WAT     H163845   1.991   5.600   4.379
21201WAT     H263846   2.001   5.502   4.509
21202WAT      O63847   8.573   1.819   1.142
21202WAT     H163848   8.629   1.757   1.087
21202WAT     H263849   8.558   1.781   1.233
21203WAT      O63850   5.032   2.206   8.677
21203WAT     H163851   5.016   2.305   8.673
21203WAT     H263852   5.033   2.169   8.584
21204WAT      O63853   8.515   9.729   7.821
21204WAT     H163854   8.581   9.655   7.811
21204WAT     H263855   8.548   9.810   7.771
21205WAT      O63856   3.295   8.095   3.536
21205WAT     H163857   3.313   8.013   3.590
21205WAT     H263858   3.199   8.098   3.509
21206WAT      O63859   0.183   5.142   7.141
21206WAT     H163860   0.159   5.187   7.228
21206WAT     H263861   0.273   5.174   7.112
21207WAT      O63862   0.112   0.241   7.362
21207WAT     H163863   0.051   0.308   7.404
21207WAT     H263864   0.068   0.201   7.282
21208WAT      O63865   7.393   4.687   5.185
21208WAT     H163866   7.313   4.658   5.134
21208WAT     H263867   7.368   4.706   5.280
21209WAT      O63868   1.894   2.627   5.491
21209WAT     H163869   1.884   2.533   5.524
21209WAT     H263870   1.982   2.638   5.445
21210WAT      O63871   9.034   3.923   7.444
21210WAT     H163872   9.018   3.993   7.514
21210WAT     H263873   9.109   3.952   7.384
21211WAT      O63874   1.869   7.422   4.246
21211WAT     H163875   1.820   7.349   4.294
21211WAT     H263876   1.891   7.392   4.153
21212WAT      O63877   1.893   9.836   8.368
21212WAT     H163878   1.846   9.866   8.285
21212WAT     H263879   1.825   9.805   8.435
21213WAT      O63880   5.573   4.164   1.937
21213WAT     H163881   5.540   4.071   1.916
21213WAT     H263882   5.613   4.164   2.028
21214WAT      O63883   0.366   1.550   6.403
21214WAT     H163884   0.362   1.649   6.419
21214WAT     H263885   0.411   1.533   6.316
21215WAT      O63886   1.542   3.742   1.783
21215WAT     H163887   1.561   3.677   1.857
21215WAT     H263888   1.571   3.833   1.811
21216WAT      O63889   8.746   3.435   4.251
21216WAT     H163890   8.801   3.351   4.252
21216WAT     H263891   8.746   3.477   4.342
21217WAT      O63892   4.916   0.573   6.264
21217WAT     H163893   4.957   0.565   6.173
21217WAT     H263894   4.957   0.505   6.325
21218WAT      O63895   8.698   8.586   3.635
21218WAT     H163896   8.768   8.559   3.702
21218WAT     H263897   8.720   8.676   3.598
21219WAT      O63898   3.956   0.466   8.972
21219WAT     H163899   3.879   0.417   8.930
21219WAT     H263900   4.012   0.402   9.024
21220WAT      O63901   5.499   3.166   2.183
21220WAT     H163902   5.405   3.193   2.202
21220WAT     H263903   5.501   3.085   2.125
21221WAT      O63904   0.395   5.058   2.708
21221WAT     H163905   0.420   5.023   2.617
21221WAT     H263906   0.322   5.001   2.746
21222WAT      O63907   5.518   1.607   4.168
21222WAT     H163908   5.441   1.634   4.226
21222WAT     H263909   5.573   1.538   4.216
21223WAT      O63910   2.083   5.959   5.029
21223WAT     H163911   2.153   5.905   5.076
21223WAT     H263912   2.020   5.898   4.980
21224WAT      O63913   7.208   5.656   8.370
21224WAT     H163914   7.214   5.598   8.451
21224WAT     H263915   7.228   5.751   8.396
21225WAT      O63916   2.845   0.240   8.539
21225WAT     H163917   2.791   0.158   8.559
21225WAT     H263918   2.794   0.322   8.566
21226WAT      O63919   3.028   3.091   1.425
21226WAT     H163920   3.106   3.028   1.429
21226WAT     H263921   2.997   3.111   1.518
21227WAT      O63922   7.580   2.109   9.644
21227WAT     H163923   7.483   2.130   9.630
21227WAT     H263924   7.634   2.159   9.576
21228WAT      O63925   8.339   0.357   9.657
21228WAT     H163926   8.301   0.402   9.576
21228WAT     H263927   8.270   0.296   9.697
21229WAT      O63928   8.904   8.579   7.528
21229WAT     H163929   8.937   8.578   7.434
21229WAT     H263930   8.805   8.593   7.528
21230WAT      O63931   5.125   0.545   2.022
21230WAT     H163932   5.100   0.583   2.111
21230WAT     H263933   5.057   0.573   1.954
21231WAT      O63934   9.318   1.723   8.522
21231WAT     H163935   9.416   1.701   8.523
21231WAT     H263936   9.304   1.811   8.569
21232WAT      O63937   4.657   9.281   6.278
21232WAT     H163938   4.756   9.277   6.289
21232WAT     H263939   4.626   9.375   6.290
21233WAT      O63940   8.220   6.584   9.746
21233WAT     H163941   8.134   6.533   9.747
21233WAT     H263942   8.296   6.521   9.761
21234WAT      O63943   2.460   0.699   7.443
21234WAT     H163944   2.513   0.649   7.374
21234WAT     H263945   2.477   0.660   7.533
21235WAT      O63946   5.678   5.400   8.662
21235WAT     H163947   5.692   5.312   8.618
21235WAT     H263948   5.765   5.432   8.701
21236WAT      O63949   7.877   2.594   1.259
21236WAT     H163950   7.912   2.606   1.353
21236WAT     H263951   7.798   2.534   1.260
21237WAT      O63952   2.577   4.531   2.974
21237WAT     H163953   2.621   4.620   2.990
21237WAT     H263954   2.585   4.507   2.877
21238WAT      O63955   6.233   0.811   0.514
21238WAT     H163956   6.287   0.727   0.523
21238WAT     H263957   6.295   0.889   0.506
21239WAT      O63958   3.450   0.822   3.226
21239WAT     H163959   3.537   0.864   3.199
21239WAT     H263960   3.417   0.762   3.153
21240WAT      O63961   0.044   1.054   8.328
21240WAT     H163962   0.091   1.138   8.354
21240WAT     H263963   0.100   0.975   8.355
21241WAT      O63964   5.029   0.126   6.395
21241WAT     H163965   4.996   0.086   6.310
21241WAT     H263966   5.012   0.225   6.394
21242WAT      O63967   8.572   3.077   3.965
21242WAT     H163968   8.616   3.051   4.051
21242WAT     H263969   8.491   3.131   3.985
21243WAT      O63970   6.675   0.366   8.210
21243WAT     H163971   6.632   0.293   8.158
21243WAT     H263972   6.640   0.365   8.304
21244WAT      O63973   5.768   2.459   9.118
21244WAT     H163974   5.819   2.543   9.138
21244WAT     H263975   5.770   2.398   9.197
21245WAT      O63976   6.198   5.722   2.919
21245WAT     H163977   6.103   5.746   2.901
21245WAT     H263978   6.232   5.777   2.995
21246WAT      O63979   7.349   0.040   1.287
21246WAT     H163980   7.276   0.092   1.330
21246WAT     H263981   7.340  -0.057   1.312
21247WAT      O63982   7.686   3.922   1.899
21247WAT     H163983   7.728   4.009   1.874
21247WAT     H263984   7.703   3.904   1.996
21248WAT      O63985   0.452   5.467   3.362
21248WAT     H163986   0.543   5.462   3.403
21248WAT     H263987   0.439   5.392   3.298
21249WAT      O63988   3.424   8.971   1.677
21249WAT     H163989   3.416   8.876   1.646
21249WAT     H263990   3.503   8.981   1.737
21250WAT      O63991   5.653   6.190   5.094
21250WAT     H163992   5.634   6.227   5.185
21250WAT     H263993   5.614   6.251   5.024
21251WAT      O63994   4.380   2.578   4.909
21251WAT     H163995   4.445   2.515   4.867
21251WAT     H263996   4.388   2.573   5.009
21252WAT      O63997   9.415   0.452   6.096
21252WAT     H163998   9.432   0.486   6.189
21252WAT     H263999   9.316   0.448   6.080
21253WAT      O64000   5.456   7.661   6.248
21253WAT     H164001   5.519   7.682   6.323
21253WAT     H264002   5.468   7.728   6.175
21254WAT      O64003   8.005   7.851   2.871
21254WAT     H164004   7.911   7.834   2.843
21254WAT     H264005   8.032   7.785   2.941
21255WAT      O64006   5.008   7.944   4.335
21255WAT     H164007   4.960   7.860   4.363
21255WAT     H264008   5.089   7.919   4.282
21256WAT      O64009   2.443   1.410   8.775
21256WAT     H164010   2.378   1.391   8.701
21256WAT     H264011   2.414   1.492   8.825
21257WAT      O64012   8.841   2.772   8.797
21257WAT     H164013   8.906   2.800   8.726
21257WAT     H264014   8.762   2.834   8.796
21258WAT      O64015   1.318   0.522   2.429
21258WAT     H164016   1.279   0.562   2.346
21258WAT     H264017   1.274   0.434   2.448
21259WAT      O64018   3.398   4.328   0.834
21259WAT     H164019   3.452   4.263   0.889
21259WAT     H264020   3.436   4.420   0.845
21260WAT      O64021   8.887   9.039   5.568
21260WAT     H164022   8.924   8.986   5.492
21260WAT     H264023   8.830   8.980   5.626
21261WAT      O64024   3.894   6.030   6.977
21261WAT     H164025   3.979   6.025   6.924
21261WAT     H264026   3.884   6.121   7.017
21262WAT      O64027   8.964   9.456   5.450
21262WAT     H164028   9.014   9.403   5.518
21262WAT     H264029   8.931   9.541   5.491
21263WAT      O64030   7.108   0.704   2.312
21263WAT     H164031   7.087   0.613   2.346
21263WAT     H264032   7.095   0.772   2.384
21264WAT      O64033   3.662   2.155   1.206
21264WAT     H164034   3.674   2.188   1.112
21264WAT     H264035   3.734   2.089   1.228
21265WAT      O64036   0.148   6.126   9.850
21265WAT     H164037   0.088   6.205   9.865
21265WAT     H264038   0.120   6.079   9.767
21266WAT      O64039   7.432   7.726   7.210
21266WAT     H164040   7.497   7.792   7.172
21266WAT     H264041   7.339   7.759   7.195
21267WAT      O64042   8.287   7.247   6.396
21267WAT     H164043   8.308   7.336   6.356
21267WAT     H264044   8.243   7.189   6.327
21268WAT      O64045   1.426   6.420   3.437
21268WAT     H164046   1.367   6.499   3.454
21268WAT     H264047   1.376   6.336   3.457
21269WAT      O64048   6.560   7.323   0.066
21269WAT     H164049   6.517   7.321  -0.024
21269WAT     H264050   6.491   7.336   0.136
21270WAT      O64051   2.487   6.901   8.797
21270WAT     H164052   2.539   6.853   8.727
21270WAT     H264053   2.498   6.855   8.885
21271WAT      O64054   6.948   6.497   2.844
21271WAT     H164055   6.953   6.596   2.859
21271WAT     H264056   6.876   6.477   2.778
21272WAT      O64057   9.797   4.515   9.747
21272WAT     H164058   9.800   4.421   9.713
21272WAT     H264059   9.734   4.569   9.691
21273WAT      O64060   2.259   0.124   0.910
21273WAT     H164061   2.307   0.039   0.932
21273WAT     H264062   2.237   0.126   0.812
21274WAT      O64063   3.494   5.762   0.250
21274WAT     H164064   3.447   5.694   0.194
21274WAT     H264065   3.552   5.819   0.191
21275WAT      O64066   8.717   1.765   0.814
21275WAT     H164067   8.632   1.816   0.805
21275WAT     H264068   8.758   1.752   0.724
21276WAT      O64069   2.532   4.855   2.766
21276WAT     H164070   2.447   4.836   2.816
21276WAT     H264071   2.607   4.802   2.808
21277WAT      O64072   2.627   6.561   2.456
21277WAT     H164073   2.716   6.526   2.484
21277WAT     H264074   2.563   6.556   2.534
21278WAT      O64075   6.092   9.796   3.840
21278WAT     H164076   6.054   9.888   3.845
21278WAT     H264077   6.092   9.766   3.744
21279WAT      O64078   9.137   8.548   6.275
21279WAT     H164079   9.054   8.593   6.241
21279WAT     H264080   9.145   8.564   6.374
21280WAT      O64081   8.692   4.861   6.952
21280WAT     H164082   8.639   4.869   7.036
21280WAT     H264083   8.771   4.922   6.956
21281WAT      O64084   9.569   9.676   6.487
21281WAT     H164085   9.579   9.774   6.504
21281WAT     H264086   9.598   9.626   6.568
21282WAT      O64087   7.971   7.904   6.413
21282WAT     H164088   7.910   7.906   6.334
21282WAT     H264089   7.947   7.979   6.475
21283WAT      O64090   3.265   6.153   2.941
21283WAT     H164091   3.243   6.097   3.021
21283WAT     H264092   3.199   6.136   2.869
21284WAT      O64093   9.808   2.528   7.269
21284WAT     H164094   9.906   2.524   7.290
21284WAT     H264095   9.759   2.572   7.344
21285WAT      O64096   6.798   3.183   4.669
21285WAT     H164097   6.831   3.103   4.719
21285WAT     H264098   6.799   3.164   4.571
21286WAT      O64099   5.227   6.338   9.788
21286WAT     H164100   5.216   6.428   9.745
21286WAT     H264101   5.147   6.282   9.768
21287WAT      O64102   7.351   1.492   2.974
21287WAT     H164103   7.376   1.527   2.884
21287WAT     H264104   7.338   1.568   3.037
21288WAT      O64105   6.236   5.046   9.607
21288WAT     H164106   6.241   5.142   9.579
21288WAT     H264107   6.248   4.988   9.526
21289WAT      O64108   2.993   2.662   3.418
21289WAT     H164109   2.949   2.575   3.440
21289WAT     H264110   2.992   2.722   3.498
21290WAT      O64111   3.531   2.604   5.507
21290WAT     H164112   3.451   2.655   5.538
21290WAT     H264113   3.612   2.663   5.512
21291WAT      O64114   6.554   8.375   4.732
21291WAT     H164115   6.464   8.341   4.761
21291WAT     H264116   6.560   8.472   4.751
21292WAT      O64117   1.399   0.197   4.459
21292WAT     H164118   1.454   0.186   4.542
21292WAT     H264119   1.455   0.177   4.379
21293WAT      O64120   9.075   3.105   2.642
21293WAT     H164121   9.028   3.094   2.730
21293WAT     H264122   9.174   3.097   2.657
21294WAT      O64123   9.859   7.577   2.887
21294WAT     H164124   9.788   7.508   2.901
21294WAT     H264125   9.913   7.587   2.970
21295WAT      O64126   0.788   0.061   6.988
21295WAT     H164127   0.746   0.148   7.017
21295WAT     H264128   0.772   0.048   6.890
21296WAT      O64129   4.066   1.758   1.561
21296WAT     H164130   4.114   1.671   1.577
21296WAT     H264131   4.131   1.833   1.567
21297WAT      O64132   0.191   1.461   1.811
21297WAT     H164133   0.203   1.411   1.897
21297WAT     H264134   0.093   1.478   1.796
21298WAT      O64135   5.144   7.701   0.254
21298WAT     H164136   5.155   7.652   0.168
21298WAT     H264137   5.065   7.762   0.247
21299WAT      O64138   6.621   9.185   8.636
21299WAT     H164139   6.715   9.218   8.633
21299WAT     H264140   6.559   9.253   8.597
21300WAT      O64141   6.237   5.334   7.501
21300WAT     H164142   6.283   5.397   7.439
21300WAT     H264143   6.301   5.304   7.572
21301WAT      O64144   0.594   0.228   7.669
21301WAT     H164145   0.634   0.196   7.583
21301WAT     H264146   0.561   0.321   7.658
21302WAT      O64147   7.787   5.362   7.190
21302WAT     H164148   7.807   5.406   7.102
21302WAT     H264149   7.757   5.431   7.256
21303WAT      O64150   4.028   0.004   1.084
21303WAT     H164151   4.055   0.010   0.988
21303WAT     H264152   4.082  -0.066   1.130
21304WAT      O64153   9.851   1.814   0.479
21304WAT     H164154   9.871   1.737   0.418
21304WAT     H264155   9.844   1.780   0.573
21305WAT      O64156   0.423   6.143   8.916
21305WAT     H164157   0.391   6.078   8.986
21305WAT     H264158   0.464   6.092   8.840
21306WAT      O64159   5.483   8.761   4.092
21306WAT     H164160   5.558   8.706   4.056
21306WAT     H264161   5.520   8.844   4.135
21307WAT      O64162   2.933   2.787   0.703
21307WAT     H164163   2.913   2.862   0.766
21307WAT     H264164   2.853   2.771   0.644
21308WAT      O64165   3.273   2.332   9.546
21308WAT     H164166   3.185   2.286   9.538
21308WAT     H264167   3.260   2.431   9.542
21309WAT      O64168   3.021   1.654   2.496
21309WAT     H164169   2.993   1.585   2.563
21309WAT     H264170   3.003   1.745   2.532
21310WAT      O64171   1.286   6.732   6.690
21310WAT     H164172   1.240   6.702   6.774
21310WAT     H264173   1.279   6.831   6.682
21311WAT      O64174   3.957   3.040   5.031
21311WAT     H164175   3.972   3.051   5.129
21311WAT     H264176   4.046   3.027   4.986
21312WAT      O64177   1.881   2.494   0.512
21312WAT     H164178   1.847   2.570   0.568
21312WAT     H264179   1.808   2.464   0.451
21313WAT      O64180   8.892   7.529   7.666
21313WAT     H164181   8.889   7.439   7.710
21313WAT     H264182   8.799   7.565   7.657
21314WAT      O64183   1.648   3.310   3.298
21314WAT     H164184   1.707   3.336   3.375
21314WAT     H264185   1.555   3.344   3.313
21315WAT      O64186   7.351   6.314   4.489
21315WAT     H164187   7.334   6.347   4.396
21315WAT     H264188   7.352   6.392   4.553
21316WAT      O64189   2.406   9.601   8.809
21316WAT     H164190   2.438   9.654   8.887
21316WAT     H264191   2.366   9.662   8.740
21317WAT      O64192   1.703   2.674   8.999
21317WAT     H164193   1.695   2.666   9.098
21317WAT     H264194   1.745   2.762   8.976
21318WAT      O64195   8.759   8.574   6.040
21318WAT     H164196   8.687   8.610   5.981
21318WAT     H264197   8.775   8.637   6.116
21319WAT      O64198   8.617   4.038   7.846
21319WAT     H164199   8.653   3.945   7.851
21319WAT     H264200   8.694   4.102   7.834
21320WAT      O64201   0.125   9.161   0.015
21320WAT     H164202   0.042   9.218   0.023
21320WAT     H264203   0.202   9.209   0.056
21321WAT      O64204   0.309   4.318   5.541
21321WAT     H164205   0.256   4.403   5.531
21321WAT     H264206   0.406   4.340   5.553
21322WAT      O64207   0.177   3.148   1.601
21322WAT     H164208   0.144   3.074   1.542
21322WAT     H264209   0.103   3.178   1.661
21323WAT      O64210   9.768   5.105   7.263
21323WAT     H164211   9.763   5.026   7.201
21323WAT     H264212   9.688   5.164   7.248
21324WAT      O64213   2.298   3.414   0.515
21324WAT     H164214   2.340   3.354   0.583
21324WAT     H264215   2.210   3.375   0.487
21325WAT      O64216   8.273   8.957   4.292
21325WAT     H164217   8.245   8.928   4.384
21325WAT     H264218   8.244   8.888   4.226
21326WAT      O64219   6.094   0.223   2.113
21326WAT     H164220   6.001   0.249   2.088
21326WAT     H264221   6.118   0.137   2.067
21327WAT      O64222   8.141   4.541   4.318
21327WAT     H164223   8.205   4.615   4.297
21327WAT     H264224   8.104   4.554   4.410
21328WAT      O64225   0.750   6.419   3.274
21328WAT     H164226   0.677   6.486   3.288
21328WAT     H264227   0.720   6.330   3.308
21329WAT      O64228   3.045   8.602   5.744
21329WAT     H164229   3.083   8.510   5.737
21329WAT     H264230   3.119   8.669   5.732
21330WAT      O64231   1.067   4.843   3.109
21330WAT     H164232   0.973   4.877   3.101
21330WAT     H264233   1.118   4.868   3.027
21331WAT      O64234   0.861   8.972   3.660
21331WAT     H164235   0.780   8.926   3.696
21331WAT     H264236   0.882   9.052   3.716
21332WAT      O64237   8.339   8.562   4.202
21332WAT     H164238   8.434   8.532   4.215
21332WAT     H264239   8.277   8.491   4.236
21333WAT      O64240   4.602   6.784   3.180
21333WAT     H164241   4.570   6.818   3.092
21333WAT     H264242   4.663   6.706   3.165
21334WAT      O64243   2.462   7.805   3.821
21334WAT     H164244   2.507   7.850   3.744
21334WAT     H264245   2.397   7.737   3.787
21335WAT      O64246   5.221   4.592   1.910
21335WAT     H164247   5.192   4.556   1.821
21335WAT     H264248   5.218   4.518   1.978
21336WAT      O64249   8.116   5.484   1.866
21336WAT     H164250   8.173   5.417   1.915
21336WAT     H264251   8.144   5.576   1.892
21337WAT      O64252   1.081   7.126   1.873
21337WAT     H164253   1.040   7.187   1.806
21337WAT     H264254   1.160   7.080   1.833
21338WAT      O64255   3.269   5.424   5.302
21338WAT     H164256   3.275   5.522   5.320
21338WAT     H264257   3.175   5.401   5.274
21339WAT      O64258   1.334   3.535   3.830
21339WAT     H164259   1.286   3.470   3.771
21339WAT     H264260   1.298   3.627   3.815
21340WAT      O64261   8.048   1.340   4.024
21340WAT     H164262   8.009   1.275   3.959
21340WAT     H264263   8.096   1.290   4.096
21341WAT      O64264   8.283   0.526   4.301
21341WAT     H164265   8.370   0.477   4.297
21341WAT     H264266   8.221   0.480   4.364
21342WAT      O64267   0.470   7.129   2.276
21342WAT     H164268   0.525   7.101   2.354
21342WAT     H264269   0.396   7.063   2.262
21343WAT      O64270   9.269   3.173   9.511
21343WAT     H164271   9.243   3.130   9.597
21343WAT     H264272   9.187   3.202   9.462
21344WAT      O64273   5.741   8.607   8.678
21344WAT     H164274   5.780   8.543   8.613
21344WAT     H264275   5.806   8.624   8.752
21345WAT      O64276   1.714   5.258   4.748
21345WAT     H164277   1.640   5.275   4.813
21345WAT     H264278   1.675   5.240   4.657
21346WAT      O64279   2.072   7.308   2.396
21346WAT     H164280   2.000   7.336   2.332
21346WAT     H264281   2.161   7.314   2.351
21347WAT      O64282   9.250   9.836   7.494
21347WAT     H164283   9.156   9.821   7.525
21347WAT     H264284   9.275   9.931   7.506
21348WAT      O64285   6.174   5.375   5.173
21348WAT     H164286   6.257   5.332   5.208
21348WAT     H264287   6.182   5.387   5.074
21349WAT      O64288   2.358   6.067   9.398
21349WAT     H164289   2.340   6.014   9.315
21349WAT     H264290   2.321   6.017   9.477
21350WAT      O64291   8.331   7.333   8.827
21350WAT     H164292   8.381   7.279   8.759
21350WAT     H264293   8.283   7.272   8.889
21351WAT      O64294   0.031   2.757   2.429
21351WAT     H164295   0.107   2.736   2.491
21351WAT     H264296   0.026   2.686   2.358
21352WAT      O64297   8.391   7.258   9.183
21352WAT     H164298   8.323   7.206   9.234
21352WAT     H264299   8.421   7.204   9.103
21353WAT      O64300   1.630   0.450   5.202
21353WAT     H164301   1.688   0.506   5.261
21353WAT     H264302   1.686   0.411   5.128
21354WAT      O64303   0.035   9.710   8.713
21354WAT     H164304   0.076   9.800   8.725
21354WAT     H264305   0.076   9.645   8.777
21355WAT      O64306   6.234   3.374   4.200
21355WAT     H164307   6.214   3.276   4.189
21355WAT     H264308   6.223   3.399   4.297
21356WAT      O64309   1.587   4.042   1.774
21356WAT     H164310   1.512   4.108   1.765
21356WAT     H264311   1.649   4.051   1.697
21357WAT      O64312   2.327   5.879   6.802
21357WAT     H164313   2.365   5.967   6.773
21357WAT     H264314   2.228   5.880   6.788
21358WAT      O64315   7.579   2.930   1.026
21358WAT     H164316   7.629   2.883   1.099
21358WAT     H264317   7.635   3.005   0.990
21359WAT      O64318   5.706   0.371   2.694
21359WAT     H164319   5.731   0.435   2.622
21359WAT     H264320   5.782   0.307   2.709
21360WAT      O64321   4.972   9.006   0.788
21360WAT     H164322   5.049   9.007   0.851
21360WAT     H264323   4.886   9.015   0.840
21361WAT      O64324   1.440   2.976   7.989
21361WAT     H164325   1.416   2.879   8.001
21361WAT     H264326   1.461   3.016   8.078
21362WAT      O64327   4.088   4.382   4.742
21362WAT     H164328   3.990   4.365   4.735
21362WAT     H264329   4.139   4.298   4.721
21363WAT      O64330   1.140   7.908   7.140
21363WAT     H164331   1.142   8.002   7.106
21363WAT     H264332   1.188   7.848   7.076
21364WAT      O64333   2.204   0.733   9.265
21364WAT     H164334   2.291   0.744   9.314
21364WAT     H264335   2.142   0.806   9.293
21365WAT      O64336   3.971   2.096   6.193
21365WAT     H164337   4.004   2.085   6.099
21365WAT     H264338   4.049   2.094   6.256
21366WAT      O64339   5.599   8.414   1.198
21366WAT     H164340   5.679   8.455   1.155
21366WAT     H264341   5.618   8.395   1.294
21367WAT      O64342   9.756   1.625   7.736
21367WAT     H164343   9.718   1.711   7.703
21367WAT     H264344   9.735   1.614   7.833
21368WAT      O64345   7.720   4.625   2.364
21368WAT     H164346   7.743   4.707   2.416
21368WAT     H264347   7.803   4.579   2.335
21369WAT      O64348   6.067   0.811   0.287
21369WAT     H164349   6.138   0.821   0.357
21369WAT     H264350   6.073   0.719   0.248
21370WAT      O64351   5.777   6.339   7.678
21370WAT     H164352   5.851   6.354   7.612
21370WAT     H264353   5.806   6.271   7.746
21371WAT      O64354   0.297   0.741   2.819
21371WAT     H164355   0.314   0.710   2.913
21371WAT     H264356   0.267   0.664   2.763
21372WAT      O64357   2.298   7.112   0.180
21372WAT     H164358   2.377   7.168   0.205
21372WAT     H264359   2.313   7.018   0.213
21373WAT      O64360   3.597   3.173   3.144
21373WAT     H164361   3.625   3.093   3.197
21373WAT     H264362   3.566   3.245   3.207
21374WAT      O64363   3.842   9.282   1.243
21374WAT     H164364   3.912   9.223   1.283
21374WAT     H264365   3.829   9.362   1.301
21375WAT      O64366   9.323   1.306   8.567
21375WAT     H164367   9.269   1.390   8.574
21375WAT     H264368   9.419   1.329   8.550
21376WAT      O64369   8.248   8.338   2.241
21376WAT     H164370   8.263   8.303   2.334
21376WAT     H264371   8.228   8.262   2.180
21377WAT      O64372   9.788   5.819   4.681
21377WAT     H164373   9.734   5.857   4.606
21377WAT     H264374   9.868   5.771   4.644
21378WAT      O64375   9.260   5.876   8.464
21378WAT     H164376   9.238   5.967   8.499
21378WAT     H264377   9.357   5.872   8.441
21379WAT      O64378   4.082   7.010   6.247
21379WAT     H164379   4.023   7.012   6.328
21379WAT     H264380   4.177   7.025   6.275
21380WAT      O64381   2.173   2.033   3.918
21380WAT     H164382   2.115   1.990   3.849
21380WAT     H264383   2.220   1.963   3.971
21381WAT      O64384   8.640   1.835   9.565
21381WAT     H164385   8.544   1.844   9.537
21381WAT     H264386   8.694   1.798   9.490
21382WAT      O64387   3.523   5.803   0.942
21382WAT     H164388   3.572   5.887   0.918
21382WAT     H264389   3.442   5.793   0.883
21383WAT      O64390   4.419   6.414   0.027
21383WAT     H164391   4.441   6.331   0.078
21383WAT     H264392   4.458   6.494   0.073
21384WAT      O64393   8.981   5.218   7.968
21384WAT     H164394   8.904   5.266   8.009
21384WAT     H264395   8.963   5.120   7.967
21385WAT      O64396   2.158   9.229   0.688
21385WAT     H164397   2.086   9.223   0.757
21385WAT     H264398   2.118   9.222   0.597
21386WAT      O64399   6.088   5.620   9.817
21386WAT     H164400   6.157   5.685   9.784
21386WAT     H264401   6.114   5.587   9.908
21387WAT      O64402   6.288   0.209   6.528
21387WAT     H164403   6.379   0.185   6.560
21387WAT     H264404   6.294   0.287   6.465
21388WAT      O64405   9.530   4.647   9.118
21388WAT     H164406   9.451   4.592   9.088
21388WAT     H264407   9.499   4.717   9.182
21389WAT      O64408   3.657   3.736   9.579
21389WAT     H164409   3.696   3.758   9.668
21389WAT     H264410   3.576   3.678   9.590
21390WAT      O64411   8.682   1.362   1.764
21390WAT     H164412   8.628   1.445   1.748
21390WAT     H264413   8.700   1.316   1.677
21391WAT      O64414   5.187   9.486   0.374
21391WAT     H164415   5.260   9.438   0.326
21391WAT     H264416   5.113   9.506   0.310
21392WAT      O64417   1.287   4.693   6.470
21392WAT     H164418   1.338   4.735   6.395
21392WAT     H264419   1.226   4.622   6.433
21393WAT      O64420   6.379   6.409   6.730
21393WAT     H164421   6.443   6.432   6.657
21393WAT     H264422   6.352   6.493   6.779
21394WAT      O64423   5.398   6.116   9.768
21394WAT     H164424   5.374   6.060   9.847
21394WAT     H264425   5.348   6.203   9.772
21395WAT      O64426   3.277   1.833   0.578
21395WAT     H164427   3.203   1.868   0.636
21395WAT     H264428   3.342   1.783   0.635
21396WAT      O64429   7.426   1.681   0.723
21396WAT     H164430   7.447   1.599   0.777
21396WAT     H264431   7.371   1.656   0.644
21397WAT      O64432   8.411   8.846   1.216
21397WAT     H164433   8.356   8.762   1.215
21397WAT     H264434   8.416   8.883   1.123
21398WAT      O64435   2.918   5.328   1.237
21398WAT     H164436   3.003   5.337   1.288
21398WAT     H264437   2.937   5.334   1.139
21399WAT      O64438   6.071   1.872   3.916
21399WAT     H164439   6.154   1.839   3.961
21399WAT     H264440   6.079   1.970   3.898
21400WAT      O64441   4.317   0.105   6.236
21400WAT     H164442   4.311   0.020   6.183
21400WAT     H264443   4.330   0.182   6.174
21401WAT      O64444   2.409   8.655   1.083
21401WAT     H164445   2.319   8.668   1.125
21401WAT     H264446   2.399   8.607   0.996
21402WAT      O64447   4.803   6.915   5.249
21402WAT     H164448   4.857   6.865   5.317
21402WAT     H264449   4.749   6.851   5.195
21403WAT      O64450   5.078   1.096   9.145
21403WAT     H164451   5.160   1.145   9.176
21403WAT     H264452   5.008   1.161   9.118
21404WAT      O64453   3.944   6.953   2.999
21404WAT     H164454   3.865   6.895   2.981
21404WAT     H264455   3.964   6.954   3.097
21405WAT      O64456   6.403   7.534   3.938
21405WAT     H164457   6.478   7.499   3.994
21405WAT     H264458   6.415   7.503   3.844
21406WAT      O64459   4.837   3.533   5.989
21406WAT     H164460   4.842   3.533   5.889
21406WAT     H264461   4.742   3.522   6.018
21407WAT      O64462   7.129   3.217   7.519
21407WAT     H164463   7.187   3.258   7.590
21407WAT     H264464   7.081   3.290   7.470
21408WAT      O64465   3.508   8.105   9.591
21408WAT     H164466   3.572   8.164   9.542
21408WAT     H264467   3.444   8.162   9.643
21409WAT      O64468   2.223   7.380   6.665
21409WAT     H164469   2.139   7.410   6.709
21409WAT     H264470   2.294   7.365   6.734
21410WAT      O64471   9.484   2.808   7.215
21410WAT     H164472   9.520   2.873   7.148
21410WAT     H264473   9.531   2.720   7.204
21411WAT      O64474   6.565   1.154   8.449
21411WAT     H164475   6.637   1.101   8.404
21411WAT     H264476   6.502   1.092   8.496
21412WAT      O64477   1.897   5.197   8.326
21412WAT     H164478   1.805   5.173   8.358
21412WAT     H264479   1.897   5.208   8.227
21413WAT      O64480   6.485   5.058   6.397
21413WAT     H164481   6.571   5.109   6.402
21413WAT     H264482   6.476   5.000   6.477
21414WAT      O64483   5.067   2.737   9.770
21414WAT     H164484   5.091   2.640   9.774
21414WAT     H264485   5.054   2.772   9.863
21415WAT      O64486   3.469   1.414   7.641
21415WAT     H164487   3.477   1.394   7.543
21415WAT     H264488   3.382   1.461   7.658
21416WAT      O64489   2.870   7.141   1.330
21416WAT     H164490   2.885   7.203   1.407
21416WAT     H264491   2.888   7.189   1.244
21417WAT      O64492   7.046   3.847   3.588
21417WAT     H164493   7.034   3.936   3.544
21417WAT     H264494   7.042   3.858   3.687
21418WAT      O64495   5.473   7.049   6.613
21418WAT     H164496   5.432   6.958   6.610
21418WAT     H264497   5.461   7.087   6.705
21419WAT      O64498   9.143   1.112   2.087
21419WAT     H164499   9.070   1.130   2.021
21419WAT     H264500   9.181   1.021   2.071
21420WAT      O64501   9.749   4.046   7.882
21420WAT     H164502   9.754   4.115   7.809
21420WAT     H264503   9.753   4.092   7.971
21421WAT      O64504   0.723   8.409   1.825
21421WAT     H164505   0.777   8.338   1.779
21421WAT     H264506   0.785   8.469   1.876
21422WAT      O64507   2.435   4.318   4.891
21422WAT     H164508   2.489   4.236   4.871
21422WAT     H264509   2.462   4.392   4.829
21423WAT      O64510   8.797   4.520   3.377
21423WAT     H164511   8.721   4.542   3.315
21423WAT     H264512   8.793   4.580   3.457
21424WAT      O64513   1.909   2.353   3.665
21424WAT     H164514   1.954   2.430   3.711
21424WAT     H264515   1.940   2.349   3.570
21425WAT      O64516   4.685   0.237   3.528
21425WAT     H164517   4.758   0.171   3.509
21425WAT     H264518   4.725   0.320   3.567
21426WAT      O64519   0.141   1.362   2.798
21426WAT     H164520   0.117   1.370   2.895
21426WAT     H264521   0.226   1.412   2.780
21427WAT      O64522   6.817   9.727   3.422
21427WAT     H164523   6.827   9.631   3.395
21427WAT     H264524   6.900   9.778   3.397
21428WAT      O64525   1.963   9.022   7.576
21428WAT     H164526   1.934   8.993   7.667
21428WAT     H264527   1.898   8.988   7.508
21429WAT      O64528   9.611   8.820   4.837
21429WAT     H164529   9.680   8.871   4.890
21429WAT     H264530   9.575   8.746   4.893
21430WAT      O64531   8.417   4.219   8.697
21430WAT     H164532   8.406   4.158   8.619
21430WAT     H264533   8.452   4.307   8.666
21431WAT      O64534   8.524   4.928   3.917
21431WAT     H164535   8.511   4.873   3.834
21431WAT     H264536   8.435   4.960   3.949
21432WAT      O64537   4.455   2.068   8.082
21432WAT     H164538   4.471   2.148   8.024
21432WAT     H264539   4.512   1.992   8.051
21433WAT      O64540   6.705   7.242   5.175
21433WAT     H164541   6.647   7.236   5.094
21433WAT     H264542   6.753   7.330   5.175
21434WAT      O64543   2.405   9.556   1.254
21434WAT     H164544   2.418   9.652   1.281
21434WAT     H264545   2.311   9.529   1.273
21435WAT      O64546   4.411   0.017   1.754
21435WAT     H164547   4.318   0.016   1.789
21435WAT     H264548   4.413  -0.023   1.663
21436WAT      O64549   9.831   6.306   9.888
21436WAT     H164550   9.787   6.395   9.875
21436WAT     H264551   9.812   6.272   9.980
21437WAT      O64552   4.114   0.403   2.865
21437WAT     H164553   4.140   0.308   2.847
21437WAT     H264554   4.196   0.457   2.886
21438WAT      O64555   7.441   1.185   6.388
21438WAT     H164556   7.476   1.107   6.336
21438WAT     H264557   7.515   1.224   6.443
21439WAT      O64558   7.610   0.363   7.093
21439WAT     H164559   7.705   0.357   7.125
21439WAT     H264560   7.581   0.459   7.096
21440WAT      O64561   9.743   0.834   9.641
21440WAT     H164562   9.837   0.863   9.625
21440WAT     H264563   9.681   0.892   9.587
21441WAT      O64564   6.856   0.994   6.292
21441WAT     H164565   6.920   1.060   6.333
21441WAT     H264566   6.876   0.902   6.328
21442WAT      O64567   9.499   1.556   2.135
21442WAT     H164568   9.538   1.503   2.060
21442WAT     H264569   9.561   1.630   2.159
21443WAT      O64570   9.757   2.509   4.661
21443WAT     H164571   9.753   2.496   4.760
21443WAT     H264572   9.784   2.423   4.617
21444WAT      O64573   1.954   3.680   6.862
21444WAT     H164574   1.857   3.663   6.840
21444WAT     H264575   2.006   3.689   6.777
21445WAT      O64576   0.363   5.580   8.245
21445WAT     H164577   0.347   5.630   8.330
21445WAT     H264578   0.342   5.639   8.167
21446WAT      O64579   9.262   6.734   2.798
21446WAT     H164580   9.272   6.635   2.797
21446WAT     H264581   9.338   6.775   2.848
21447WAT      O64582   0.846   5.262   0.559
21447WAT     H164583   0.851   5.182   0.500
21447WAT     H264584   0.852   5.345   0.504
21448WAT      O64585   2.778   0.848   0.701
21448WAT     H164586   2.788   0.757   0.661
21448WAT     H264587   2.851   0.863   0.768
21449WAT      O64588   3.554   4.436   6.869
21449WAT     H164589   3.580   4.339   6.866
21449WAT     H264590   3.500   4.454   6.951
21450WAT      O64591   5.931   4.113   8.889
21450WAT     H164592   6.025   4.082   8.882
21450WAT     H264593   5.885   4.103   8.801
21451WAT      O64594   5.934   4.195   2.181
21451WAT     H164595   5.888   4.217   2.095
21451WAT     H264596   5.972   4.102   2.176
21452WAT      O64597   1.726   5.838   9.794
21452WAT     H164598   1.669   5.766   9.754
21452WAT     H264599   1.757   5.809   9.885
21453WAT      O64600   4.133   5.245   7.559
21453WAT     H164601   4.091   5.199   7.638
21453WAT     H264602   4.168   5.334   7.587
21454WAT      O64603   7.466   3.498   1.145
21454WAT     H164604   7.448   3.504   1.243
21454WAT     H264605   7.436   3.582   1.100
21455WAT      O64606   8.650   7.793   5.419
21455WAT     H164607   8.728   7.840   5.377
21455WAT     H264608   8.577   7.784   5.351
21456WAT      O64609   9.848   8.454   8.792
21456WAT     H164610   9.765   8.418   8.834
21456WAT     H264611   9.866   8.405   8.707
21457WAT      O64612   0.923   2.420   1.403
21457WAT     H164613   0.996   2.385   1.344
21457WAT     H264614   0.960   2.437   1.495
21458WAT      O64615   0.744   7.926   1.277
21458WAT     H164616   0.788   7.932   1.187
21458WAT     H264617   0.780   7.847   1.326
21459WAT      O64618   8.501   5.147   5.019
21459WAT     H164619   8.427   5.215   5.021
21459WAT     H264620   8.461   5.056   5.014
21460WAT      O64621   2.546   4.079   8.382
21460WAT     H164622   2.538   4.160   8.440
21460WAT     H264623   2.479   4.010   8.411
21461WAT      O64624   7.135   9.447   8.236
21461WAT     H164625   7.071   9.453   8.312
21461WAT     H264626   7.228   9.432   8.271
21462WAT      O64627   6.211   7.575   9.736
21462WAT     H164628   6.187   7.668   9.765
21462WAT     H264629   6.178   7.560   9.643
21463WAT      O64630   0.370   5.372   8.541
21463WAT     H164631   0.352   5.426   8.623
21463WAT     H264632   0.462   5.333   8.548
21464WAT      O64633   4.981   6.990   7.160
21464WAT     H164634   5.040   7.069   7.177
21464WAT     H264635   4.903   7.019   7.104
21465WAT      O64636   4.199   7.653   5.362
21465WAT     H164637   4.148   7.719   5.417
21465WAT     H264638   4.266   7.701   5.305
21466WAT      O64639   0.881   8.156   5.408
21466WAT     H164640   0.906   8.210   5.327
21466WAT     H264641   0.868   8.217   5.486
21467WAT      O64642   7.806   5.682   3.495
21467WAT     H164643   7.783   5.730   3.410
21467WAT     H264644   7.899   5.646   3.487
21468WAT      O64645   1.345   2.365   7.385
21468WAT     H164646   1.354   2.355   7.484
21468WAT     H264647   1.432   2.395   7.346
21469WAT      O64648   3.105   6.845   2.030
21469WAT     H164649   3.151   6.758   2.048
21469WAT     H264650   3.021   6.850   2.085
21470WAT      O64651   7.277   8.281   4.171
21470WAT     H164652   7.276   8.333   4.085
21470WAT     H264653   7.358   8.306   4.224
21471WAT      O64654   4.138   4.947   3.714
21471WAT     H164655   4.112   5.029   3.765
21471WAT     H264656   4.226   4.961   3.668
21472WAT      O64657   9.787   0.094   0.848
21472WAT     H164658   9.780   0.103   0.948
21472WAT     H264659   9.710   0.140   0.805
21473WAT      O64660   3.011   0.851   6.049
21473WAT     H164661   3.082   0.922   6.051
21473WAT     H264662   3.036   0.781   5.982
21474WAT      O64663   5.563   8.934   2.361
21474WAT     H164664   5.578   8.980   2.449
21474WAT     H264665   5.490   8.867   2.372
21475WAT      O64666   9.731   8.506   1.267
21475WAT     H164667   9.790   8.471   1.194
21475WAT     H264668   9.772   8.484   1.356
21476WAT      O64669   0.663   2.910   7.907
21476WAT     H164670   0.637   3.004   7.886
21476WAT     H264671   0.611   2.847   7.849
21477WAT      O64672   2.257   8.327   8.431
21477WAT     H164673   2.244   8.411   8.379
21477WAT     H264674   2.186   8.261   8.405
21478WAT      O64675   7.313   1.112   8.941
21478WAT     H164676   7.248   1.071   9.005
21478WAT     H264677   7.400   1.129   8.988
21479WAT      O64678   6.544   7.564   7.450
21479WAT     H164679   6.474   7.611   7.396
21479WAT     H264680   6.502   7.494   7.506
21480WAT      O64681   2.138   7.641   1.463
21480WAT     H164682   2.108   7.555   1.421
21480WAT     H264683   2.129   7.715   1.396
21481WAT      O64684   2.769   0.661   7.712
21481WAT     H164685   2.684   0.709   7.735
21481WAT     H264686   2.749   0.585   7.651
21482WAT      O64687   0.970   3.223   0.949
21482WAT     H164688   0.906   3.255   1.019
21482WAT     H264689   0.918   3.181   0.874
21483WAT      O64690   0.093   3.989   2.280
21483WAT     H164691   0.002   4.029   2.294
21483WAT     H264692   0.147   4.000   2.364
21484WAT      O64693   3.451   0.140   6.745
21484WAT     H164694   3.436   0.239   6.748
21484WAT     H264695   3.547   0.120   6.764
21485WAT      O64696   6.925   4.992   2.707
21485WAT     H164697   6.908   4.969   2.803
21485WAT     H264698   6.891   4.918   2.649
21486WAT      O64699   0.866   8.576   6.898
21486WAT     H164700   0.961   8.580   6.866
21486WAT     H264701   0.828   8.668   6.898
21487WAT      O64702   1.290   5.839   8.668
21487WAT     H164703   1.382   5.804   8.651
21487WAT     H264704   1.228   5.804   8.599
21488WAT      O64705   0.428   2.096   6.888
21488WAT     H164706   0.424   2.003   6.923
21488WAT     H264707   0.378   2.158   6.949
21489WAT      O64708   6.238   6.012   0.127
21489WAT     H164709   6.154   6.017   0.072
21489WAT     H264710   6.216   6.026   0.223
21490WAT      O64711   3.954   3.167   0.796
21490WAT     H164712   3.857   3.186   0.777
21490WAT     H264713   3.997   3.249   0.834
21491WAT      O64714   7.595   2.843   9.386
21491WAT     H164715   7.570   2.939   9.392
21491WAT     H264716   7.695   2.835   9.386
21492WAT      O64717   0.437   6.676   0.256
21492WAT     H164718   0.507   6.663   0.186
21492WAT     H264719   0.446   6.606   0.327
21493WAT      O64720   5.043   6.194   8.927
21493WAT     H164721   5.080   6.201   8.834
21493WAT     H264722   5.115   6.215   8.993
21494WAT      O64723   4.388   5.044   1.447
21494WAT     H164724   4.449   5.065   1.523
21494WAT     H264725   4.380   4.945   1.437
21495WAT      O64726   9.081   7.778   1.681
21495WAT     H164727   9.035   7.699   1.640
21495WAT     H264728   9.016   7.854   1.688
21496WAT      O64729   4.496   2.433   5.936
21496WAT     H164730   4.472   2.529   5.951
21496WAT     H264731   4.596   2.423   5.934
21497WAT      O64732   2.798   1.485   0.959
21497WAT     H164733   2.740   1.530   0.890
21497WAT     H264734   2.795   1.538   1.044
21498WAT      O64735   6.808   6.127   3.686
21498WAT     H164736   6.754   6.150   3.605
21498WAT     H264737   6.905   6.122   3.660
21499WAT      O64738   1.381   1.540   0.429
21499WAT     H164739   1.363   1.512   0.335
21499WAT     H264740   1.478   1.528   0.450
21500WAT      O64741   0.557   2.496   1.990
21500WAT     H164742   0.459   2.481   1.975
21500WAT     H264743   0.575   2.497   2.088
21501WAT      O64744   2.959   7.803   2.597
21501WAT     H164745   2.957   7.901   2.581
21501WAT     H264746   2.906   7.781   2.680
21502WAT      O64747   1.365   0.456   7.270
21502WAT     H164748   1.280   0.460   7.323
21502WAT     H264749   1.397   0.361   7.267
21503WAT      O64750   7.347   8.318   0.363
21503WAT     H164751   7.362   8.324   0.264
21503WAT     H264752   7.426   8.355   0.411
21504WAT      O64753   3.686   6.991   4.814
21504WAT     H164754   3.639   6.936   4.746
21504WAT     H264755   3.740   7.062   4.768
21505WAT      O64756   3.682   1.248   8.282
21505WAT     H164757   3.669   1.228   8.379
21505WAT     H264758   3.611   1.311   8.251
21506WAT      O64759   3.105   2.354   3.263
21506WAT     H164760   3.064   2.421   3.324
21506WAT     H264761   3.116   2.394   3.172
21507WAT      O64762   5.246   8.464   7.866
21507WAT     H164763   5.335   8.432   7.833
21507WAT     H264764   5.175   8.440   7.799
21508WAT      O64765   5.909   3.200   4.781
21508WAT     H164766   5.885   3.288   4.820
21508WAT     H264767   5.963   3.213   4.697
21509WAT      O64768   6.766   7.256   6.802
21509WAT     H164769   6.777   7.280   6.706
21509WAT     H264770   6.855   7.232   6.841
21510WAT      O64771   7.425   4.977   2.015
21510WAT     H164772   7.363   4.901   1.994
21510WAT     H264773   7.386   5.062   1.979
21511WAT      O64774   8.074   8.107   9.325
21511WAT     H164775   8.048   8.050   9.247
21511WAT     H264776   8.086   8.048   9.405
21512WAT      O64777   0.787   1.544   1.355
21512WAT     H164778   0.793   1.537   1.256
21512WAT     H264779   0.836   1.625   1.386
21513WAT      O64780   7.664   1.507   6.674
21513WAT     H164781   7.613   1.529   6.757
21513WAT     H264782   7.755   1.548   6.679
21514WAT      O64783   5.078   3.454   8.591
21514WAT     H164784   5.078   3.498   8.680
21514WAT     H264785   5.120   3.363   8.598
21515WAT      O64786   0.363   1.131   6.902
21515WAT     H164787   0.438   1.065   6.904
21515WAT     H264788   0.353   1.168   6.810
21516WAT      O64789   6.742   8.171   1.223
21516WAT     H164790   6.762   8.097   1.287
21516WAT     H264791   6.650   8.206   1.239
21517WAT      O64792   5.389   3.518   6.425
21517WAT     H164793   5.363   3.546   6.518
21517WAT     H264794   5.453   3.585   6.387
21518WAT      O64795   2.890   0.152   6.175
21518WAT     H164796   2.948   0.211   6.118
21518WAT     H264797   2.913   0.056   6.158
21519WAT      O64798   9.468   4.509   2.102
21519WAT     H164799   9.539   4.483   2.168
21519WAT     H264800   9.396   4.439   2.102
21520WAT      O64801   6.603   0.395   8.500
21520WAT     H164802   6.680   0.362   8.555
21520WAT     H264803   6.586   0.491   8.520
21521WAT      O64804   1.727   9.811   2.083
21521WAT     H164805   1.738   9.743   2.155
21521WAT     H264806   1.701   9.899   2.123
21522WAT      O64807   8.458   4.950   2.062
21522WAT     H164808   8.405   5.035   2.061
21522WAT     H264809   8.542   4.963   2.115
21523WAT      O64810   3.188   9.114   4.290
21523WAT     H164811   3.115   9.155   4.344
21523WAT     H264812   3.270   9.172   4.296
21524WAT      O64813   5.864   7.781   2.297
21524WAT     H164814   5.854   7.684   2.321
21524WAT     H264815   5.880   7.835   2.380
21525WAT      O64816   0.232   7.219   7.832
21525WAT     H164817   0.327   7.241   7.856
21525WAT     H264818   0.171   7.245   7.906
21526WAT      O64819   8.457   6.382   0.723
21526WAT     H164820   8.489   6.468   0.684
21526WAT     H264821   8.465   6.386   0.823
21527WAT      O64822   2.158   2.070   0.471
21527WAT     H164823   2.169   1.977   0.437
21527WAT     H264824   2.247   2.114   0.479
21528WAT      O64825   5.636   1.235   1.684
21528WAT     H164826   5.629   1.303   1.611
21528WAT     H264827   5.718   1.181   1.672
21529WAT      O64828   8.237   6.374   6.119
21529WAT     H164829   8.249   6.281   6.084
21529WAT     H264830   8.276   6.380   6.211
21530WAT      O64831   4.237   5.634   8.035
21530WAT     H164832   4.214   5.545   8.074
21530WAT     H264833   4.163   5.698   8.055
21531WAT      O64834   7.728   8.386   2.772
21531WAT     H164835   7.644   8.412   2.723
21531WAT     H264836   7.723   8.289   2.796
21532WAT      O64837   4.283   4.175   4.404
21532WAT     H164838   4.308   4.128   4.319
21532WAT     H264839   4.318   4.269   4.402
21533WAT      O64840   9.654   3.720   3.320
21533WAT     H164841   9.727   3.656   3.297
21533WAT     H264842   9.690   3.813   3.322
21534WAT      O64843   2.782   7.249   7.255
21534WAT     H164844   2.735   7.163   7.237
21534WAT     H264845   2.843   7.239   7.333
21535WAT      O64846   6.344   9.218   1.944
21535WAT     H164847   6.360   9.169   1.858
21535WAT     H264848   6.288   9.299   1.926
21536WAT      O64849   3.887   1.983   4.375
21536WAT     H164850   3.956   1.980   4.303
21536WAT     H264851   3.902   1.907   4.438
21537WAT      O64852   7.990   3.815   4.801
21537WAT     H164853   8.043   3.750   4.745
21537WAT     H264854   7.908   3.842   4.750
21538WAT      O64855   3.265   5.995   7.101
21538WAT     H164856   3.258   6.074   7.161
21538WAT     H264857   3.255   5.911   7.155
21539WAT      O64858   6.601   8.082   9.765
21539WAT     H164859   6.582   8.000   9.712
21539WAT     H264860   6.647   8.056   9.850
21540WAT      O64861   1.431   8.336   3.426
21540WAT     H164862   1.489   8.257   3.444
21540WAT     H264863   1.335   8.311   3.441
21541WAT      O64864   5.586   2.934   1.254
21541WAT     H164865   5.685   2.923   1.240
21541WAT     H264866   5.568   2.951   1.350
21542WAT      O64867   3.329   7.092   3.743
21542WAT     H164868   3.408   7.071   3.800
21542WAT     H264869   3.259   7.136   3.799
21543WAT      O64870   7.092   2.840   7.106
21543WAT     H164871   7.162   2.887   7.053
21543WAT     H264872   7.108   2.854   7.204
21544WAT      O64873   8.425   1.347   7.513
21544WAT     H164874   8.466   1.438   7.502
21544WAT     H264875   8.329   1.351   7.487
21545WAT      O64876   8.090   6.892   1.508
21545WAT     H164877   8.082   6.806   1.558
21545WAT     H264878   8.023   6.894   1.434
21546WAT      O64879   1.355   5.001   5.744
21546WAT     H164880   1.406   4.990   5.659
21546WAT     H264881   1.375   5.090   5.783
21547WAT      O64882   9.318   1.499   7.912
21547WAT     H164883   9.320   1.484   7.813
21547WAT     H264884   9.293   1.594   7.930
21548WAT      O64885   8.049   5.846   9.783
21548WAT     H164886   8.138   5.800   9.794
21548WAT     H264887   7.987   5.817   9.855
21549WAT      O64888   6.089   3.904   0.117
21549WAT     H164889   6.032   3.826   0.091
21549WAT     H264890   6.049   3.949   0.197
21550WAT      O64891   5.601   3.588   0.564
21550WAT     H164892   5.524   3.603   0.501
21550WAT     H264893   5.661   3.668   0.563
21551WAT      O64894   2.308   8.042   1.226
21551WAT     H164895   2.243   7.972   1.255
21551WAT     H264896   2.264   8.131   1.225
21552WAT      O64897   4.622   8.327   2.727
21552WAT     H164898   4.668   8.240   2.709
21552WAT     H264899   4.525   8.318   2.707
21553WAT      O64900   8.474   6.460   3.192
21553WAT     H164901   8.449   6.494   3.101
21553WAT     H264902   8.487   6.538   3.254
21554WAT      O64903   6.332   7.485   4.427
21554WAT     H164904   6.294   7.561   4.480
21554WAT     H264905   6.272   7.465   4.350
21555WAT      O64906   1.551   2.513   0.730
21555WAT     H164907   1.482   2.501   0.660
21555WAT     H264908   1.559   2.429   0.784
21556WAT      O64909   5.699   3.586   6.542
21556WAT     H164910   5.628   3.642   6.500
21556WAT     H264911   5.667   3.492   6.551
21557WAT      O64912   2.964   4.050   4.170
21557WAT     H164913   2.978   3.986   4.094
21557WAT     H264914   2.907   4.126   4.140
21558WAT      O64915   5.182   2.477   9.748
21558WAT     H164916   5.143   2.394   9.787
21558WAT     H264917   5.262   2.505   9.802
21559WAT      O64918   8.339   6.165   4.341
21559WAT     H164919   8.259   6.105   4.342
21559WAT     H264920   8.342   6.218   4.426
21560WAT      O64921   3.135   5.128   1.024
21560WAT     H164922   3.110   5.051   0.966
21560WAT     H264923   3.123   5.103   1.120
21561WAT      O64924   8.832   3.627   4.074
21561WAT     H164925   8.928   3.603   4.084
21561WAT     H264926   8.777   3.574   4.138
21562WAT      O64927   4.158   8.703   3.046
21562WAT     H164928   4.153   8.770   3.119
21562WAT     H264929   4.253   8.683   3.024
21563WAT      O64930   0.235   9.294   6.254
21563WAT     H164931   0.292   9.324   6.331
21563WAT     H264932   0.156   9.355   6.246
21564WAT      O64933   5.935   4.270   9.279
21564WAT     H164934   5.871   4.229   9.214
21564WAT     H264935   5.889   4.282   9.368
21565WAT      O64936   9.189   6.856   9.164
21565WAT     H164937   9.182   6.880   9.067
21565WAT     H264938   9.110   6.893   9.214
21566WAT      O64939   4.836   3.232   7.761
21566WAT     H164940   4.904   3.271   7.823
21566WAT     H264941   4.871   3.232   7.667
21567WAT      O64942   1.088   6.061   1.907
21567WAT     H164943   1.112   5.995   1.978
21567WAT     H264944   1.066   6.149   1.949
21568WAT      O64945   5.278   6.362   6.420
21568WAT     H164946   5.347   6.409   6.365
21568WAT     H264947   5.250   6.278   6.373
21569WAT      O64948   9.552   4.792   3.457
21569WAT     H164949   9.622   4.760   3.520
21569WAT     H264950   9.537   4.890   3.471
21570WAT      O64951   8.848   0.007   4.537
21570WAT     H164952   8.853   0.033   4.633
21570WAT     H264953   8.920   0.053   4.486
21571WAT      O64954   6.828   8.907   7.998
21571WAT     H164955   6.848   8.841   7.925
21571WAT     H264956   6.884   8.885   8.078
21572WAT      O64957   9.805   4.375   7.365
21572WAT     H164958   9.898   4.397   7.336
21572WAT     H264959   9.755   4.333   7.289
21573WAT      O64960   6.637   1.690   3.966
21573WAT     H164961   6.639   1.789   3.980
21573WAT     H264962   6.657   1.669   3.870
21574WAT      O64963   8.357   4.701   4.282
21574WAT     H164964   8.414   4.715   4.202
21574WAT     H264965   8.326   4.790   4.317
21575WAT      O64966   9.673   2.176   4.797
21575WAT     H164967   9.740   2.125   4.743
21575WAT     H264968   9.606   2.112   4.837
21576WAT      O64969   6.096   7.267   9.395
21576WAT     H164970   6.187   7.233   9.418
21576WAT     H264971   6.028   7.195   9.411
21577WAT      O64972   4.126   4.762   2.090
21577WAT     H164973   4.143   4.848   2.139
21577WAT     H264974   4.028   4.748   2.079
21578WAT      O64975   2.527   9.831   9.239
21578WAT     H164976   2.530   9.928   9.263
21578WAT     H264977   2.494   9.778   9.317
21579WAT      O64978   2.377   8.141   5.219
21579WAT     H164979   2.337   8.160   5.308
21579WAT     H264980   2.473   8.169   5.219
21580WAT      O64981   2.096   6.377   2.814
21580WAT     H164982   2.171   6.355   2.751
21580WAT     H264983   2.009   6.369   2.766
21581WAT      O64984   7.272   1.873   3.736
21581WAT     H164985   7.232   1.842   3.650
21581WAT     H264986   7.357   1.822   3.754
21582WAT      O64987   0.222   7.873   9.848
21582WAT     H164988   0.299   7.906   9.902
21582WAT     H264989   0.201   7.940   9.776
21583WAT      O64990   8.666   2.866   6.039
21583WAT     H164991   8.739   2.846   6.105
21583WAT     H264992   8.687   2.819   5.953
21584WAT      O64993   1.698   5.197   0.471
21584WAT     H164994   1.659   5.142   0.545
21584WAT     H264995   1.625   5.248   0.426
21585WAT      O64996   9.281   2.359   1.437
21585WAT     H164997   9.292   2.457   1.455
21585WAT     H264998   9.245   2.346   1.344
21586WAT      O64999   7.713   3.287   2.259
21586WAT     H165000   7.700   3.277   2.160
21586WAT     H265001   7.811   3.282   2.280
21587WAT      O65002   1.840   8.331   3.790
21587WAT     H165003   1.925   8.280   3.808
21587WAT     H265004   1.762   8.268   3.794
21588WAT      O65005   8.857   6.412   8.237
21588WAT     H165006   8.795   6.482   8.272
21588WAT     H265007   8.929   6.393   8.304
21589WAT      O65008   9.157   8.944   0.007
21589WAT     H165009   9.115   8.933  -0.084
21589WAT     H265010   9.119   9.026   0.050
21590WAT      O65011   3.492   7.116   1.860
21590WAT     H165012   3.462   7.060   1.938
21590WAT     H265013   3.434   7.197   1.854
21591WAT      O65014   0.476   0.729   5.741
21591WAT     H165015   0.467   0.827   5.763
21591WAT     H265016   0.561   0.694   5.780
21592WAT      O65017   3.414   0.148   2.531
21592WAT     H165018   3.435   0.242   2.503
21592WAT     H265019   3.442   0.134   2.626
21593WAT      O65020   3.201   0.310   5.204
21593WAT     H165021   3.184   0.398   5.160
21593WAT     H265022   3.146   0.304   5.288
21594WAT      O65023   3.631   4.710   9.117
21594WAT     H165024   3.567   4.655   9.170
21594WAT     H265025   3.616   4.693   9.019
21595WAT      O65026   8.303   7.587   2.851
21595WAT     H165027   8.266   7.494   2.846
21595WAT     H265028   8.249   7.641   2.915
21596WAT      O65029   8.293   3.401   4.648
21596WAT     H165030   8.266   3.353   4.731
21596WAT     H265031   8.248   3.359   4.569
21597WAT      O65032   2.694   1.316   5.921
21597WAT     H165033   2.761   1.310   5.847
21597WAT     H265034   2.741   1.309   6.009
21598WAT      O65035   2.541   5.685   3.250
21598WAT     H165036   2.546   5.665   3.152
21598WAT     H265037   2.570   5.779   3.267
21599WAT      O65038   2.825   4.800   4.563
21599WAT     H165039   2.876   4.874   4.519
21599WAT     H265040   2.889   4.738   4.609
21600WAT      O65041   3.732   1.674   3.729
21600WAT     H165042   3.801   1.628   3.674
21600WAT     H265043   3.745   1.773   3.724
21601WAT      O65044   9.541   5.026   6.234
21601WAT     H165045   9.560   4.950   6.296
21601WAT     H265046   9.446   5.019   6.201
21602WAT      O65047   8.618   7.931   4.505
21602WAT     H165048   8.543   7.894   4.451
21602WAT     H265049   8.703   7.882   4.483
21603WAT      O65050   2.987   2.939   9.584
21603WAT     H165051   2.981   2.851   9.539
21603WAT     H265052   3.065   2.991   9.548
21604WAT      O65053   0.287   2.868   8.375
21604WAT     H165054   0.211   2.812   8.343
21604WAT     H265055   0.364   2.858   8.312
21605WAT      O65056   6.471   3.992   7.673
21605WAT     H165057   6.373   4.007   7.686
21605WAT     H265058   6.493   3.995   7.575
21606WAT      O65059   1.560   9.702   9.437
21606WAT     H165060   1.513   9.790   9.439
21606WAT     H265061   1.612   9.690   9.521
21607WAT      O65062   6.888   6.122   9.189
21607WAT     H165063   6.855   6.031   9.213
21607WAT     H265064   6.847   6.190   9.250
21608WAT      O65065   0.200   5.803   9.258
21608WAT     H165066   0.176   5.899   9.276
21608WAT     H265067   0.210   5.754   9.345
21609WAT      O65068   7.835   2.586   6.616
21609WAT     H165069   7.830   2.686   6.609
21609WAT     H265070   7.818   2.545   6.527
21610WAT      O65071   0.429   9.092   1.120
21610WAT     H165072   0.440   9.191   1.115
21610WAT     H265073   0.417   9.056   1.027
21611WAT      O65074   4.866   5.129   2.130
21611WAT     H165075   4.830   5.181   2.207
21611WAT     H265076   4.796   5.123   2.059
21612WAT      O65077   2.317   4.750   1.707
21612WAT     H165078   2.382   4.791   1.771
21612WAT     H265079   2.249   4.697   1.759
21613WAT      O65080   2.009   0.639   2.753
21613WAT     H165081   2.077   0.590   2.807
21613WAT     H265082   1.997   0.594   2.665
21614WAT      O65083   9.200   3.003   1.396
21614WAT     H165084   9.128   3.009   1.465
21614WAT     H265085   9.198   2.913   1.354
21615WAT      O65086   0.327   1.561   9.146
21615WAT     H165087   0.395   1.559   9.219
21615WAT     H265088   0.374   1.570   9.058
21616WAT      O65089   9.091   7.260   5.825
21616WAT     H165090   9.144   7.178   5.805
21616WAT     H265091   9.069   7.263   5.922
21617WAT      O65092   3.222   3.806   9.681
21617WAT     H165093   3.254   3.794   9.775
21617WAT     H265094   3.294   3.848   9.626
21618WAT      O65095   4.605   1.954   9.313
21618WAT     H165096   4.505   1.954   9.310
21618WAT     H265097   4.640   1.884   9.250
21619WAT      O65098   0.689   2.048   6.093
21619WAT     H165099   0.634   2.015   6.017
21619WAT     H265100   0.675   2.146   6.105
21620WAT      O65101   4.757   9.797   4.959
21620WAT     H165102   4.765   9.800   5.058
21620WAT     H265103   4.708   9.714   4.932
21621WAT      O65104   6.712   4.595   9.236
21621WAT     H165105   6.672   4.628   9.321
21621WAT     H265106   6.746   4.502   9.249
21622WAT      O65107   2.043   1.619   8.761
21622WAT     H165108   2.020   1.705   8.805
21622WAT     H265109   1.994   1.544   8.805
21623WAT      O65110   0.613   0.276   4.341
21623WAT     H165111   0.527   0.227   4.349
21623WAT     H265112   0.613   0.329   4.256
21624WAT      O65113   1.568   5.293   3.590
21624WAT     H165114   1.472   5.281   3.562
21624WAT     H265115   1.617   5.208   3.575
21625WAT      O65116   5.040   0.024   1.290
21625WAT     H165117   4.947  -0.003   1.264
21625WAT     H265118   5.035   0.090   1.365
21626WAT      O65119   1.078   1.453   8.561
21626WAT     H165120   1.074   1.470   8.463
21626WAT     H265121   1.108   1.359   8.578
21627WAT      O65122   6.842   5.117   5.592
21627WAT     H165123   6.811   5.209   5.617
21627WAT     H265124   6.831   5.056   5.670
21628WAT      O65125   2.668   4.651   5.808
21628WAT     H165126   2.757   4.673   5.848
21628WAT     H265127   2.596   4.669   5.875
21629WAT      O65128   6.298   9.431   1.683
21629WAT     H165129   6.327   9.506   1.624
21629WAT     H265130   6.278   9.466   1.774
21630WAT      O65131   1.095   8.639   7.429
21630WAT     H165132   1.049   8.707   7.372
21630WAT     H265133   1.186   8.672   7.454
21631WAT      O65134   5.955   2.733   2.470
21631WAT     H165135   6.036   2.705   2.420
21631WAT     H265136   5.945   2.833   2.466
21632WAT      O65137   0.082   4.815   7.939
21632WAT     H165138   0.146   4.891   7.949
21632WAT     H265139   0.065   4.798   7.842
21633WAT      O65140   5.267   9.216   9.340
21633WAT     H165141   5.312   9.179   9.422
21633WAT     H265142   5.198   9.151   9.308
21634WAT      O65143   3.830   5.027   4.713
21634WAT     H165144   3.903   5.029   4.644
21634WAT     H265145   3.789   5.117   4.721
21635WAT      O65146   3.130   6.805   7.080
21635WAT     H165147   3.162   6.856   7.160
21635WAT     H265148   3.030   6.809   7.076
21636WAT      O65149   3.635   9.411   8.784
21636WAT     H165150   3.696   9.491   8.781
21636WAT     H265151   3.687   9.331   8.815
21637WAT      O65152   0.669   6.155   4.294
21637WAT     H165153   0.682   6.093   4.371
21637WAT     H265154   0.672   6.250   4.326
21638WAT      O65155   2.997   4.613   4.892
21638WAT     H165156   3.052   4.696   4.891
21638WAT     H265157   2.904   4.633   4.862
21639WAT      O65158   0.547   8.318   3.858
21639WAT     H165159   0.522   8.352   3.768
21639WAT     H265160   0.465   8.299   3.912
21640WAT      O65161   6.598   2.054   6.975
21640WAT     H165162   6.684   2.096   7.004
21640WAT     H265163   6.607   2.021   6.881
21641WAT      O65164   7.626   0.676   5.535
21641WAT     H165165   7.581   0.676   5.446
21641WAT     H265166   7.705   0.615   5.532
21642WAT      O65167   4.911   7.298   9.405
21642WAT     H165168   4.888   7.333   9.314
21642WAT     H265169   4.828   7.264   9.449
21643WAT      O65170   5.215   0.839   7.968
21643WAT     H165171   5.159   0.874   8.043
21643WAT     H265172   5.170   0.860   7.881
21644WAT      O65173   8.846   3.936   9.889
21644WAT     H165174   8.937   3.899   9.871
21644WAT     H265175   8.853   4.012   9.953
21645WAT      O65176   1.640   1.229   7.056
21645WAT     H165177   1.579   1.219   7.135
21645WAT     H265178   1.626   1.319   7.015
21646WAT      O65179   6.705   0.942   5.474
21646WAT     H165180   6.800   0.941   5.503
21646WAT     H265181   6.660   1.024   5.509
21647WAT      O65182   8.835   4.299   4.352
21647WAT     H165183   8.787   4.380   4.385
21647WAT     H265184   8.900   4.326   4.280
21648WAT      O65185   7.487   0.917   1.663
21648WAT     H165186   7.520   0.978   1.591
21648WAT     H265187   7.496   0.822   1.634
21649WAT      O65188   3.887   0.032   7.124
21649WAT     H165189   3.914   0.128   7.116
21649WAT     H265190   3.969  -0.024   7.140
21650WAT      O65191   4.475   1.589   9.161
21650WAT     H165192   4.440   1.528   9.090
21650WAT     H265193   4.425   1.675   9.159
21651WAT      O65194   0.187   5.247   0.808
21651WAT     H165195   0.241   5.330   0.818
21651WAT     H265196   0.091   5.271   0.794
21652WAT      O65197   8.711   4.973   0.150
21652WAT     H165198   8.675   4.900   0.092
21652WAT     H265199   8.726   4.937   0.243
21653WAT      O65200   2.970   8.939   8.885
21653WAT     H165201   3.035   8.919   8.958
21653WAT     H265202   2.940   9.034   8.892
21654WAT      O65203   0.124   4.344   6.729
21654WAT     H165204   0.204   4.328   6.787
21654WAT     H265205   0.143   4.310   6.636
21655WAT      O65206   7.652   5.942   4.708
21655WAT     H165207   7.618   6.032   4.680
21655WAT     H265208   7.664   5.941   4.807
21656WAT      O65209   0.574   8.808   8.065
21656WAT     H165210   0.601   8.769   7.978
21656WAT     H265211   0.540   8.901   8.051
21657WAT      O65212   9.439   2.228   3.995
21657WAT     H165213   9.453   2.295   3.922
21657WAT     H265214   9.487   2.144   3.972
21658WAT      O65215   7.714   6.634   3.420
21658WAT     H165216   7.621   6.619   3.454
21658WAT     H265217   7.774   6.560   3.452
21659WAT      O65218   5.866   8.568   0.008
21659WAT     H165219   5.943   8.631   0.007
21659WAT     H265220   5.813   8.579   0.093
21660WAT      O65221   1.257   2.915   6.469
21660WAT     H165222   1.178   2.969   6.440
21660WAT     H265223   1.228   2.823   6.495
21661WAT      O65224   0.039   6.639   8.946
21661WAT     H165225   0.126   6.684   8.930
21661WAT     H265226   0.050   6.567   9.015
21662WAT      O65227   1.566   0.598   6.307
21662WAT     H165228   1.467   0.610   6.314
21662WAT     H265229   1.601   0.562   6.393
21663WAT      O65230   8.332   9.296   6.696
21663WAT     H165231   8.323   9.386   6.653
21663WAT     H265232   8.429   9.276   6.712
21664WAT      O65233   8.617   8.445   9.349
21664WAT     H165234   8.629   8.406   9.440
21664WAT     H265235   8.625   8.372   9.281
21665WAT      O65236   3.104   3.870   8.998
21665WAT     H165237   3.175   3.800   9.000
21665WAT     H265238   3.140   3.956   9.034
21666WAT      O65239   3.312   3.752   3.041
21666WAT     H165240   3.313   3.817   3.117
21666WAT     H265241   3.325   3.801   2.955
21667WAT      O65242   1.496   7.363   4.799
21667WAT     H165243   1.488   7.461   4.779
21667WAT     H265244   1.579   7.327   4.757
21668WAT      O65245   3.322   6.293   4.695
21668WAT     H165246   3.290   6.387   4.709
21668WAT     H265247   3.399   6.293   4.632
21669WAT      O65248   0.451   1.609   1.160
21669WAT     H165249   0.501   1.540   1.212
21669WAT     H265250   0.356   1.612   1.191
21670WAT      O65251   0.531   3.142   3.365
21670WAT     H165252   0.618   3.181   3.395
21670WAT     H265253   0.493   3.086   3.439
21671WAT      O65254   3.616   5.614   5.653
21671WAT     H165255   3.558   5.540   5.618
21671WAT     H265256   3.692   5.575   5.705
21672WAT      O65257   6.507   6.626   0.147
21672WAT     H165258   6.527   6.614   0.244
21672WAT     H265259   6.558   6.705   0.112
21673WAT      O65260   0.366   4.068   2.161
21673WAT     H165261   0.376   4.156   2.207
21673WAT     H265262   0.281   4.024   2.192
21674WAT      O65263   2.218   6.126   1.851
21674WAT     H165264   2.296   6.188   1.853
21674WAT     H265265   2.224   6.062   1.927
21675WAT      O65266   7.473   9.453   5.139
21675WAT     H165267   7.413   9.476   5.063
21675WAT     H265268   7.564   9.493   5.122
21676WAT      O65269   9.649   0.605   5.222
21676WAT     H165270   9.705   0.613   5.141
21676WAT     H265271   9.652   0.690   5.274
21677WAT      O65272   1.251   3.524   1.594
21677WAT     H165273   1.328   3.490   1.540
21677WAT     H265274   1.174   3.544   1.534
21678WAT      O65275   0.722   0.183   7.437
21678WAT     H165276   0.728   0.084   7.425
21678WAT     H265277   0.731   0.228   7.348
21679WAT      O65278   1.772   4.249   5.266
21679WAT     H165279   1.724   4.164   5.248
21679WAT     H265280   1.758   4.313   5.191
21680WAT      O65281   2.140   9.022   0.295
21680WAT     H165282   2.188   8.987   0.376
21680WAT     H265283   2.149   8.956   0.220
21681WAT      O65284   4.938   5.252   9.845
21681WAT     H165285   4.887   5.336   9.823
21681WAT     H265286   4.988   5.266   9.931
21682WAT      O65287   8.041   1.453   1.068
21682WAT     H165288   8.056   1.355   1.084
21682WAT     H265289   7.970   1.466   0.999
21683WAT      O65290   6.193   2.556   5.916
21683WAT     H165291   6.275   2.500   5.930
21683WAT     H265292   6.117   2.515   5.966
21684WAT      O65293   5.559   1.111   9.147
21684WAT     H165294   5.560   1.012   9.161
21684WAT     H265295   5.647   1.149   9.175
21685WAT      O65296   3.680   6.997   3.688
21685WAT     H165297   3.751   7.067   3.676
21685WAT     H265298   3.657   6.957   3.599
21686WAT      O65299   8.190   6.953   2.242
21686WAT     H165300   8.178   7.046   2.206
21686WAT     H265301   8.157   6.950   2.337
21687WAT      O65302   9.735   5.664   1.948
21687WAT     H165303   9.740   5.729   1.873
21687WAT     H265304   9.640   5.644   1.969
21688WAT      O65305   6.371   6.427   0.033
21688WAT     H165306   6.420   6.495   0.089
21688WAT     H265307   6.394   6.441  -0.063
21689WAT      O65308   2.917   9.026   3.924
21689WAT     H165309   3.009   9.031   3.964
21689WAT     H265310   2.857   9.091   3.970
21690WAT      O65311   9.031   3.257   9.426
21690WAT     H165312   9.003   3.285   9.518
21690WAT     H265313   8.953   3.266   9.364
21691WAT      O65314   0.456   9.172   2.536
21691WAT     H165315   0.441   9.162   2.437
21691WAT     H265316   0.409   9.098   2.584
21692WAT      O65317   5.856   8.087   5.971
21692WAT     H165318   5.866   8.106   5.873
21692WAT     H265319   5.944   8.062   6.009
21693WAT      O65320   2.994   3.561   0.599
21693WAT     H165321   2.903   3.521   0.611
21693WAT     H265322   3.061   3.489   0.588
21694WAT      O65323   0.335   6.136   0.602
21694WAT     H165324   0.275   6.070   0.557
21694WAT     H265325   0.382   6.191   0.532
21695WAT      O65326   8.395   3.966   4.838
21695WAT     H165327   8.390   3.949   4.936
21695WAT     H265328   8.449   3.893   4.795
21696WAT      O65329   1.985   3.586   3.241
21696WAT     H165330   2.056   3.565   3.173
21696WAT     H265331   1.899   3.604   3.195
21697WAT      O65332   4.992   7.338   8.887
21697WAT     H165333   4.913   7.296   8.842
21697WAT     H265334   4.976   7.341   8.986
21698WAT      O65335   7.240   0.980   0.997
21698WAT     H165336   7.143   0.989   1.018
21698WAT     H265337   7.267   1.050   0.931
21699WAT      O65338   2.944   6.787   5.139
21699WAT     H165339   2.978   6.866   5.088
21699WAT     H265340   2.846   6.775   5.119
21700WAT      O65341   2.125   1.269   6.866
21700WAT     H165342   2.083   1.199   6.808
21700WAT     H265343   2.086   1.263   6.958
21701WAT      O65344   8.131   2.935   0.116
21701WAT     H165345   8.086   2.846   0.118
21701WAT     H265346   8.116   2.979   0.027
21702WAT      O65347   1.597   1.170   3.191
21702WAT     H165348   1.591   1.187   3.093
21702WAT     H265349   1.652   1.088   3.207
21703WAT      O65350   9.654   3.776   0.212
21703WAT     H165351   9.748   3.789   0.182
21703WAT     H265352   9.601   3.734   0.138
21704WAT      O65353   9.858   6.828   2.416
21704WAT     H165354   9.767   6.871   2.410
21704WAT     H265355   9.862   6.751   2.353
21705WAT      O65356   1.694   6.385   4.860
21705WAT     H165357   1.735   6.476   4.864
21705WAT     H265358   1.604   6.391   4.816
21706WAT      O65359   3.634   9.024   4.213
21706WAT     H165360   3.708   8.959   4.228
21706WAT     H265361   3.669   9.117   4.222
21707WAT      O65362   1.775   4.586   6.102
21707WAT     H165363   1.691   4.546   6.065
21707WAT     H265364   1.754   4.640   6.183
21708WAT      O65365   8.737   1.249   8.715
21708WAT     H165366   8.831   1.222   8.693
21708WAT     H265367   8.719   1.233   8.812
21709WAT      O65368   0.300   5.878   7.143
21709WAT     H165369   0.261   5.818   7.074
21709WAT     H265370   0.341   5.958   7.098
21710WAT      O65371   2.740   2.839   5.409
21710WAT     H165372   2.725   2.748   5.370
21710WAT     H265373   2.685   2.906   5.358
21711WAT      O65374   3.101   1.383   7.557
21711WAT     H165375   3.069   1.441   7.482
21711WAT     H265376   3.086   1.287   7.534
21712WAT      O65377   2.053   8.458   7.835
21712WAT     H165378   2.067   8.455   7.934
21712WAT     H265379   2.136   8.491   7.791
21713WAT      O65380   2.924   6.665   4.278
21713WAT     H165381   2.933   6.571   4.310
21713WAT     H265382   2.953   6.671   4.182
21714WAT      O65383   1.163   1.753   8.869
21714WAT     H165384   1.173   1.687   8.943
21714WAT     H265385   1.209   1.719   8.787
21715WAT      O65386   4.193   4.998   2.204
21715WAT     H165387   4.292   4.993   2.192
21715WAT     H265388   4.158   5.079   2.157
21716WAT      O65389   6.174   1.431   6.151
21716WAT     H165390   6.259   1.466   6.112
21716WAT     H265391   6.192   1.390   6.241
21717WAT      O65392   3.184   4.807   7.271
21717WAT     H165393   3.277   4.772   7.275
21717WAT     H265394   3.173   4.863   7.189
21718WAT      O65395   9.143   2.162   1.709
21718WAT     H165396   9.102   2.078   1.746
21718WAT     H265397   9.114   2.175   1.615
21719WAT      O65398   3.071   1.047   0.354
21719WAT     H165399   3.000   1.102   0.397
21719WAT     H265400   3.034   0.958   0.327
21720WAT      O65401   7.073   0.248   8.814
21720WAT     H165402   7.042   0.314   8.883
21720WAT     H265403   7.029   0.269   8.726
21721WAT      O65404   6.816   8.049   9.107
21721WAT     H165405   6.797   8.141   9.072
21721WAT     H265406   6.894   8.053   9.169
21722WAT      O65407   6.768   1.893   2.008
21722WAT     H165408   6.693   1.831   2.029
21722WAT     H265409   6.751   1.939   1.920
21723WAT      O65410   0.587   5.898   2.401
21723WAT     H165411   0.569   5.972   2.465
21723WAT     H265412   0.539   5.816   2.432
21724WAT      O65413   8.987   0.720   7.864
21724WAT     H165414   8.975   0.623   7.842
21724WAT     H265415   8.969   0.735   7.961
21725WAT      O65416   2.622   7.465   2.853
21725WAT     H165417   2.523   7.456   2.842
21725WAT     H265418   2.643   7.480   2.950
21726WAT      O65419   2.474   5.932   5.789
21726WAT     H165420   2.447   5.844   5.827
21726WAT     H265421   2.553   5.920   5.729
21727WAT      O65422   2.908   1.760   0.400
21727WAT     H165423   2.987   1.772   0.340
21727WAT     H265424   2.892   1.663   0.415
21728WAT      O65425   7.004   9.161   9.664
21728WAT     H165426   7.025   9.251   9.704
21728WAT     H265427   7.022   9.164   9.565
21729WAT      O65428   7.936   6.651   0.588
21729WAT     H165429   7.855   6.604   0.552
21729WAT     H265430   7.944   6.633   0.686
21730WAT      O65431   0.790   9.035   8.568
21730WAT     H165432   0.754   9.075   8.652
21730WAT     H265433   0.740   8.951   8.546
21731WAT      O65434   0.880   7.393   1.907
21731WAT     H165435   0.831   7.412   1.822
21731WAT     H265436   0.833   7.439   1.983
21732WAT      O65437   0.212   9.390   7.546
21732WAT     H165438   0.281   9.333   7.501
21732WAT     H265439   0.149   9.332   7.598
21733WAT      O65440   2.341   6.634   5.373
21733WAT     H165441   2.295   6.589   5.450
21733WAT     H265442   2.274   6.655   5.302
21734WAT      O65443   4.873   5.121   0.991
21734WAT     H165444   4.951   5.183   1.000
21734WAT     H265445   4.870   5.059   1.070
21735WAT      O65446   0.373   8.793   7.486
21735WAT     H165447   0.365   8.780   7.387
21735WAT     H265448   0.468   8.783   7.513
21736WAT      O65449   1.658   1.565   8.794
21736WAT     H165450   1.652   1.591   8.698
21736WAT     H265451   1.602   1.484   8.811
21737WAT      O65452   8.166   2.371   3.736
21737WAT     H165453   8.151   2.324   3.823
21737WAT     H265454   8.085   2.426   3.713
21738WAT      O65455   3.071   5.593   3.112
21738WAT     H165456   3.065   5.682   3.156
21738WAT     H265457   3.073   5.605   3.013
21739WAT      O65458   4.482   0.349   4.967
21739WAT     H165459   4.465   0.251   4.961
21739WAT     H265460   4.534   0.369   5.050
21740WAT      O65461   6.556   0.491   2.095
21740WAT     H165462   6.473   0.478   2.040
21740WAT     H265463   6.530   0.509   2.190
21741WAT      O65464   9.252   8.421   7.961
21741WAT     H165465   9.212   8.344   8.009
21741WAT     H265466   9.180   8.478   7.923
21742WAT      O65467   4.925   1.579   7.990
21742WAT     H165468   5.006   1.527   8.018
21742WAT     H265469   4.948   1.639   7.914
21743WAT      O65470   6.004   3.110   0.493
21743WAT     H165471   5.919   3.156   0.518
21743WAT     H265472   5.986   3.013   0.475
21744WAT      O65473   5.716   7.319   6.575
21744WAT     H165474   5.705   7.418   6.566
21744WAT     H265475   5.689   7.290   6.667
21745WAT      O65476   0.409   8.553   6.723
21745WAT     H165477   0.418   8.651   6.705
21745WAT     H265478   0.491   8.506   6.693
21746WAT      O65479   5.760   1.670   2.479
21746WAT     H165480   5.809   1.757   2.478
21746WAT     H265481   5.663   1.687   2.494
21747WAT      O65482   8.105   0.832   6.524
21747WAT     H165483   8.096   0.794   6.615
21747WAT     H265484   8.111   0.932   6.530
21748WAT      O65485   5.594   6.903   2.200
21748WAT     H165486   5.593   6.971   2.274
21748WAT     H265487   5.683   6.905   2.154
21749WAT      O65488   3.288   0.173   9.152
21749WAT     H165489   3.341   0.176   9.067
21749WAT     H265490   3.318   0.246   9.213
21750WAT      O65491   0.820   8.627   7.483
21750WAT     H165492   0.768   8.547   7.453
21750WAT     H265493   0.914   8.619   7.449
21751WAT      O65494   2.706   0.596   7.345
21751WAT     H165495   2.689   0.540   7.426
21751WAT     H265496   2.754   0.679   7.372
21752WAT      O65497   0.007   4.890   8.784
21752WAT     H165498   0.060   4.956   8.838
21752WAT     H265499  -0.063   4.938   8.732
21753WAT      O65500   1.184   0.829   2.042
21753WAT     H165501   1.212   0.925   2.037
21753WAT     H265502   1.085   0.822   2.032
21754WAT      O65503   8.311   2.076   5.905
21754WAT     H165504   8.367   2.159   5.912
21754WAT     H265505   8.365   2.003   5.863
21755WAT      O65506   2.175   0.128   1.269
21755WAT     H165507   2.244   0.201   1.267
21755WAT     H265508   2.092   0.159   1.225
21756WAT      O65509   3.404   0.621   4.225
21756WAT     H165510   3.465   0.664   4.158
21756WAT     H265511   3.314   0.607   4.183
21757WAT      O65512   5.595   6.130   2.144
21757WAT     H165513   5.536   6.135   2.063
21757WAT     H265514   5.679   6.082   2.121
21758WAT      O65515   1.360   4.202   1.062
21758WAT     H165516   1.377   4.107   1.038
21758WAT     H265517   1.262   4.217   1.075
21759WAT      O65518   2.305   0.468   5.702
21759WAT     H165519   2.261   0.513   5.779
21759WAT     H265520   2.283   0.370   5.703
21760WAT      O65521   0.073   3.172   6.798
21760WAT     H165522   0.096   3.139   6.707
21760WAT     H265523   0.088   3.099   6.865
21761WAT      O65524   5.209   5.334   2.300
21761WAT     H165525   5.180   5.239   2.287
21761WAT     H265526   5.186   5.362   2.393
21762WAT      O65527   4.808   6.161   7.201
21762WAT     H165528   4.792   6.137   7.296
21762WAT     H265529   4.784   6.083   7.143
21763WAT      O65530   3.462   5.774   2.871
21763WAT     H165531   3.487   5.840   2.941
21763WAT     H265532   3.364   5.783   2.850
21764WAT      O65533   2.559   8.589   2.429
21764WAT     H165534   2.482   8.546   2.383
21764WAT     H265535   2.526   8.642   2.508
21765WAT      O65536   1.547   7.691   8.545
21765WAT     H165537   1.640   7.655   8.551
21765WAT     H265538   1.549   7.787   8.519
21766WAT      O65539   4.303   6.165   3.361
21766WAT     H165540   4.393   6.199   3.390
21766WAT     H265541   4.256   6.236   3.309
21767WAT      O65542   0.254   6.832   6.588
21767WAT     H165543   0.254   6.932   6.598
21767WAT     H265544   0.341   6.795   6.620
21768WAT      O65545   1.074   0.303   4.670
21768WAT     H165546   1.002   0.349   4.722
21768WAT     H265547   1.041   0.281   4.579
21769WAT      O65548   7.725   6.995   1.549
21769WAT     H165549   7.774   6.970   1.465
21769WAT     H265550   7.640   6.944   1.554
21770WAT      O65551   3.502   8.640   5.838
21770WAT     H165552   3.486   8.632   5.937
21770WAT     H265553   3.526   8.550   5.801
21771WAT      O65554   1.402   2.484   0.478
21771WAT     H165555   1.401   2.560   0.414
21771WAT     H265556   1.311   2.472   0.518
21772WAT      O65557   8.865   6.979   0.894
21772WAT     H165558   8.863   6.882   0.916
21772WAT     H265559   8.915   6.994   0.809
21773WAT      O65560   3.401   8.390   6.380
21773WAT     H165561   3.475   8.435   6.430
21773WAT     H265562   3.437   8.314   6.326
21774WAT      O65563   8.152   7.545   1.312
21774WAT     H165564   8.149   7.455   1.269
21774WAT     H265565   8.079   7.552   1.380
21775WAT      O65566   0.510   3.757   7.284
21775WAT     H165567   0.457   3.802   7.356
21775WAT     H265568   0.547   3.825   7.222
21776WAT      O65569   7.621   7.805   5.818
21776WAT     H165570   7.551   7.773   5.753
21776WAT     H265571   7.596   7.777   5.910
21777WAT      O65572   7.115   1.506   7.152
21777WAT     H165573   7.151   1.550   7.070
21777WAT     H265574   7.030   1.458   7.129
21778WAT      O65575   5.394   7.965   7.147
21778WAT     H165576   5.375   7.890   7.211
21778WAT     H265577   5.388   7.931   7.053
21779WAT      O65578   3.619   3.315   9.050
21779WAT     H165579   3.695   3.254   9.030
21779WAT     H265580   3.563   3.277   9.123
21780WAT      O65581   7.490   5.330   5.380
21780WAT     H165582   7.459   5.269   5.308
21780WAT     H265583   7.575   5.296   5.419
21781WAT      O65584   4.729   7.919   5.036
21781WAT     H165585   4.696   7.975   5.112
21781WAT     H265586   4.792   7.850   5.070
21782WAT      O65587   4.179   1.112   8.859
21782WAT     H165588   4.263   1.126   8.808
21782WAT     H265589   4.199   1.060   8.943
21783WAT      O65590   5.219   4.919   0.524
21783WAT     H165591   5.214   4.867   0.439
21783WAT     H265592   5.303   4.894   0.573
21784WAT      O65593   4.060   3.542   7.763
21784WAT     H165594   4.145   3.589   7.738
21784WAT     H265595   4.021   3.497   7.683
21785WAT      O65596   2.540   9.362   9.582
21785WAT     H165597   2.554   9.275   9.535
21785WAT     H265598   2.442   9.383   9.586
21786WAT      O65599   9.443   7.194   2.634
21786WAT     H165600   9.427   7.170   2.730
21786WAT     H265601   9.369   7.156   2.578
21787WAT      O65602   9.622   5.671   4.494
21787WAT     H165603   9.700   5.637   4.440
21787WAT     H265604   9.588   5.599   4.553
21788WAT      O65605   5.300   1.460   3.506
21788WAT     H165606   5.321   1.533   3.571
21788WAT     H265607   5.352   1.378   3.531
21789WAT      O65608   1.741   4.790   8.285
21789WAT     H165609   1.710   4.756   8.374
21789WAT     H265610   1.718   4.886   8.276
21790WAT      O65611   0.655   4.384   8.030
21790WAT     H165612   0.729   4.426   8.083
21790WAT     H265613   0.571   4.387   8.084
21791WAT      O65614   7.093   9.532   1.620
21791WAT     H165615   7.012   9.513   1.564
21791WAT     H265616   7.155   9.454   1.616
21792WAT      O65617   1.151   1.463   4.657
21792WAT     H165618   1.121   1.391   4.719
21792WAT     H265619   1.235   1.435   4.610
21793WAT      O65620   5.034   1.847   8.670
21793WAT     H165621   5.100   1.860   8.744
21793WAT     H265622   5.051   1.913   8.597
21794WAT      O65623   8.152   3.028   3.232
21794WAT     H165624   8.136   3.126   3.217
21794WAT     H265625   8.150   2.980   3.144
21795WAT      O65626   6.641   9.306   2.515
21795WAT     H165627   6.623   9.243   2.591
21795WAT     H265628   6.618   9.261   2.429
21796WAT      O65629   4.683   1.936   3.225
21796WAT     H165630   4.643   1.929   3.134
21796WAT     H265631   4.721   1.847   3.252
21797WAT      O65632   1.529   2.543   2.380
21797WAT     H165633   1.560   2.632   2.414
21797WAT     H265634   1.603   2.498   2.330
21798WAT      O65635   7.123   5.737   5.682
21798WAT     H165636   7.104   5.640   5.688
21798WAT     H265637   7.221   5.751   5.668
21799WAT      O65638   7.855   5.263   3.478
21799WAT     H165639   7.903   5.321   3.412
21799WAT     H265640   7.880   5.168   3.463
21800WAT      O65641   1.657   3.773   7.368
21800WAT     H165642   1.638   3.701   7.435
21800WAT     H265643   1.752   3.802   7.377
21801WAT      O65644   4.525   0.075   0.597
21801WAT     H165645   4.589   0.147   0.623
21801WAT     H265646   4.472   0.048   0.677
21802WAT      O65647   0.285   8.184   8.182
21802WAT     H165648   0.323   8.276   8.191
21802WAT     H265649   0.329   8.123   8.248
21803WAT      O65650   6.100   1.014   0.109
21803WAT     H165651   6.079   0.943   0.176
21803WAT     H265652   6.171   0.981   0.046
21804WAT      O65653   2.668   7.893   3.631
21804WAT     H165654   2.676   7.966   3.563
21804WAT     H265655   2.658   7.805   3.584
21805WAT      O65656   8.730   4.960   7.503
21805WAT     H165657   8.639   4.922   7.487
21805WAT     H265658   8.760   4.937   7.596
21806WAT      O65659   8.644   9.392   8.312
21806WAT     H165660   8.608   9.394   8.219
21806WAT     H265661   8.634   9.483   8.354
21807WAT      O65662   2.107   9.705   7.454
21807WAT     H165663   2.191   9.758   7.442
21807WAT     H265664   2.043   9.755   7.511
21808WAT      O65665   0.692   8.724   6.629
21808WAT     H165666   0.696   8.625   6.635
21808WAT     H265667   0.757   8.757   6.560
21809WAT      O65668   2.143   7.841   3.149
21809WAT     H165669   2.105   7.796   3.229
21809WAT     H265670   2.073   7.845   3.077
21810WAT      O65671   2.619   6.188   2.053
21810WAT     H165672   2.524   6.178   2.084
21810WAT     H265673   2.680   6.192   2.132
21811WAT      O65674   9.552   6.659   2.238
21811WAT     H165675   9.496   6.682   2.317
21811WAT     H265676   9.634   6.609   2.267
21812WAT      O65677   0.541   1.522   9.312
21812WAT     H165678   0.626   1.535   9.262
21812WAT     H265679   0.553   1.450   9.380
21813WAT      O65680   5.098   7.669   0.939
21813WAT     H165681   5.100   7.681   0.840
21813WAT     H265682   5.116   7.757   0.983
21814WAT      O65683   8.486   7.876   3.859
21814WAT     H165684   8.487   7.925   3.946
21814WAT     H265685   8.392   7.851   3.836
21815WAT      O65686   5.584   7.499   7.594
21815WAT     H165687   5.670   7.451   7.580
21815WAT     H265688   5.602   7.594   7.619
21816WAT      O65689   9.425   8.826   5.617
21816WAT     H165690   9.436   8.852   5.521
21816WAT     H265691   9.411   8.908   5.672
21817WAT      O65692   2.765   3.795   3.862
21817WAT     H165693   2.805   3.869   3.917
21817WAT     H265694   2.752   3.714   3.919
21818WAT      O65695   3.047   8.912   2.849
21818WAT     H165696   3.037   8.826   2.799
21818WAT     H265697   2.970   8.972   2.827
21819WAT      O65698   6.479   0.743   7.935
21819WAT     H165699   6.480   0.655   7.886
21819WAT     H265700   6.426   0.732   8.020
21820WAT      O65701   2.335   8.470   0.500
21820WAT     H165702   2.421   8.453   0.548
21820WAT     H265703   2.354   8.519   0.414
21821WAT      O65704   6.044   6.993   1.715
21821WAT     H165705   6.001   6.933   1.783
21821WAT     H265706   6.143   6.992   1.728
21822WAT      O65707   5.012   1.056   4.096
21822WAT     H165708   4.993   1.120   4.170
21822WAT     H265709   5.043   1.106   4.015
21823WAT      O65710   9.187   3.946   5.861
21823WAT     H165711   9.119   3.970   5.791
21823WAT     H265712   9.267   4.005   5.852
21824WAT      O65713   5.454   7.614   3.108
21824WAT     H165714   5.360   7.647   3.118
21824WAT     H265715   5.511   7.652   3.181
21825WAT      O65716   1.668   6.487   6.586
21825WAT     H165717   1.708   6.562   6.639
21825WAT     H265718   1.668   6.403   6.641
21826WAT      O65719   6.997   0.607   9.272
21826WAT     H165720   7.079   0.552   9.254
21826WAT     H265721   7.017   0.674   9.343
21827WAT      O65722   7.970   5.477   3.294
21827WAT     H165723   7.965   5.572   3.264
21827WAT     H265724   8.039   5.428   3.239
21828WAT      O65725   1.757   4.692   2.935
21828WAT     H165726   1.720   4.772   2.889
21828WAT     H265727   1.686   4.621   2.940
21829WAT      O65728   5.446   5.779   2.434
21829WAT     H165729   5.448   5.680   2.448
21829WAT     H265730   5.509   5.823   2.498
21830WAT      O65731   0.122   0.867   9.642
21830WAT     H165732   0.137   0.784   9.696
21830WAT     H265733   0.177   0.863   9.559
21831WAT      O65734   5.484   3.791   4.322
21831WAT     H165735   5.501   3.854   4.397
21831WAT     H265736   5.391   3.755   4.328
21832WAT      O65737   1.817   0.696   2.959
21832WAT     H165738   1.883   0.677   2.886
21832WAT     H265739   1.808   0.615   3.017
21833WAT      O65740   7.391   7.348   0.490
21833WAT     H165741   7.334   7.318   0.413
21833WAT     H265742   7.400   7.273   0.555
21834WAT      O65743   8.547   4.153   8.943
21834WAT     H165744   8.515   4.162   8.849
21834WAT     H265745   8.499   4.077   8.988
21835WAT      O65746   2.881   4.925   3.260
21835WAT     H165747   2.821   4.963   3.190
21835WAT     H265748   2.930   4.846   3.222
21836WAT      O65749   3.824   6.287   9.533
21836WAT     H165750   3.775   6.341   9.464
21836WAT     H265751   3.891   6.228   9.489
21837WAT      O65752   3.708   0.632   2.977
21837WAT     H165753   3.675   0.726   2.985
21837WAT     H265754   3.655   0.574   3.039
21838WAT      O65755   2.285   5.937   9.620
21838WAT     H165756   2.282   5.867   9.692
21838WAT     H265757   2.318   6.023   9.659
21839WAT      O65758   7.858   8.804   2.961
21839WAT     H165759   7.821   8.880   2.907
21839WAT     H265760   7.812   8.801   3.050
21840WAT      O65761   3.240   6.659   2.685
21840WAT     H165762   3.206   6.662   2.591
21840WAT     H265763   3.332   6.620   2.685
21841WAT      O65764   1.770   6.738   1.632
21841WAT     H165765   1.826   6.763   1.710
21841WAT     H265766   1.828   6.718   1.553
21842WAT      O65767   6.786   1.300   0.956
21842WAT     H165768   6.742   1.383   0.920
21842WAT     H265769   6.866   1.327   1.010
21843WAT      O65770   1.139   7.231   5.646
21843WAT     H165771   1.046   7.214   5.612
21843WAT     H265772   1.201   7.243   5.568
21844WAT      O65773   3.068   3.668   5.610
21844WAT     H165774   3.096   3.718   5.692
21844WAT     H265775   3.137   3.599   5.588
21845WAT      O65776   6.771   7.010   6.161
21845WAT     H165777   6.846   6.983   6.221
21845WAT     H265778   6.693   7.039   6.217
21846WAT      O65779   8.753   1.025   2.670
21846WAT     H165780   8.668   1.074   2.651
21846WAT     H265781   8.810   1.079   2.732
21847WAT      O65782   5.538   3.310   2.916
21847WAT     H165783   5.458   3.312   2.975
21847WAT     H265784   5.579   3.219   2.917
21848WAT      O65785   9.486   2.360   4.979
21848WAT     H165786   9.424   2.303   5.032
21848WAT     H265787   9.514   2.311   4.897
21849WAT      O65788   3.756   4.995   7.996
21849WAT     H165789   3.773   5.017   7.900
21849WAT     H265790   3.840   5.006   8.048
21850WAT      O65791   2.579   8.404   0.609
21850WAT     H165792   2.644   8.361   0.672
21850WAT     H265793   2.606   8.498   0.592
21851WAT      O65794   9.860   3.704   9.008
21851WAT     H165795   9.801   3.719   9.088
21851WAT     H265796   9.956   3.712   9.035
21852WAT      O65797   5.461   4.338   1.135
21852WAT     H165798   5.415   4.252   1.156
21852WAT     H265799   5.414   4.413   1.181
21853WAT      O65800   8.681   1.217   9.272
21853WAT     H165801   8.613   1.279   9.308
21853WAT     H265802   8.771   1.238   9.311
21854WAT      O65803   3.924   5.388   8.854
21854WAT     H165804   3.969   5.377   8.765
21854WAT     H265805   3.994   5.396   8.925
21855WAT      O65806   7.546   8.242   4.369
21855WAT     H165807   7.635   8.261   4.412
21855WAT     H265808   7.504   8.329   4.340
21856WAT      O65809   0.252   0.478   8.536
21856WAT     H165810   0.158   0.449   8.518
21856WAT     H265811   0.254   0.576   8.555
21857WAT      O65812   3.679   6.843   3.341
21857WAT     H165813   3.636   6.933   3.350
21857WAT     H265814   3.615   6.773   3.373
21858WAT      O65815   9.629   0.358   9.391
21858WAT     H165816   9.672   0.269   9.410
21858WAT     H265817   9.690   0.431   9.419
21859WAT      O65818   2.118   1.047   4.030
21859WAT     H165819   2.186   0.984   4.068
21859WAT     H265820   2.091   1.113   4.099
21860WAT      O65821   2.510   9.366   8.499
21860WAT     H165822   2.560   9.285   8.469
21860WAT     H265823   2.539   9.391   8.591
21861WAT      O65824   5.312   3.697   1.499
21861WAT     H165825   5.218   3.674   1.524
21861WAT     H265826   5.335   3.787   1.535
21862WAT      O65827   5.990   1.712   8.447
21862WAT     H165828   5.998   1.613   8.439
21862WAT     H265829   6.070   1.750   8.492
21863WAT      O65830   7.573   6.708   5.687
21863WAT     H165831   7.598   6.632   5.748
21863WAT     H265832   7.585   6.679   5.592
21864WAT      O65833   8.095   0.748   1.418
21864WAT     H165834   8.135   0.829   1.460
21864WAT     H265835   8.117   0.668   1.473
21865WAT      O65836   3.377   6.831   2.336
21865WAT     H165837   3.448   6.764   2.316
21865WAT     H265838   3.407   6.890   2.411
21866WAT      O65839   9.500   8.527   5.939
21866WAT     H165840   9.450   8.487   6.016
21866WAT     H265841   9.438   8.540   5.862
21867WAT      O65842   7.315   5.557   0.135
21867WAT     H165843   7.255   5.477   0.130
21867WAT     H265844   7.410   5.528   0.139
21868WAT      O65845   6.009   0.543   1.342
21868WAT     H165846   6.056   0.610   1.284
21868WAT     H265847   5.988   0.585   1.431
21869WAT      O65848   8.560   4.261   0.601
21869WAT     H165849   8.530   4.288   0.692
21869WAT     H265850   8.657   4.239   0.602
21870WAT      O65851   5.505   4.741   5.407
21870WAT     H165852   5.506   4.716   5.504
21870WAT     H265853   5.467   4.833   5.398
21871WAT      O65854   7.979   2.663   9.451
21871WAT     H165855   7.932   2.751   9.456
21871WAT     H265856   8.032   2.659   9.366
21872WAT      O65857   2.125   1.176   2.206
21872WAT     H165858   2.127   1.240   2.283
21872WAT     H265859   2.083   1.219   2.127
21873WAT      O65860   0.104   5.161   8.910
21873WAT     H165861   0.053   5.129   8.990
21873WAT     H265862   0.126   5.258   8.920
21874WAT      O65863   7.433   8.205   2.828
21874WAT     H165864   7.388   8.171   2.745
21874WAT     H265865   7.387   8.288   2.859
21875WAT      O65866   8.188   8.256   6.245
21875WAT     H165867   8.198   8.241   6.147
21875WAT     H265868   8.268   8.220   6.293
21876WAT      O65869   7.852   1.474   4.425
21876WAT     H165870   7.785   1.532   4.471
21876WAT     H265871   7.877   1.514   4.337
21877WAT      O65872   7.620   5.300   8.334
21877WAT     H165873   7.696   5.246   8.370
21877WAT     H265874   7.649   5.395   8.325
21878WAT      O65875   5.969   8.890   3.201
21878WAT     H165876   5.914   8.844   3.270
21878WAT     H265877   6.064   8.862   3.209
21879WAT      O65878   2.775   5.934   0.032
21879WAT     H165879   2.696   5.992   0.015
21879WAT     H265880   2.794   5.878  -0.049
21880WAT      O65881   3.639   0.485   6.857
21880WAT     H165882   3.734   0.514   6.843
21880WAT     H265883   3.593   0.479   6.768
21881WAT      O65884   6.078   2.551   8.891
21881WAT     H165885   5.992   2.598   8.908
21881WAT     H265886   6.074   2.460   8.932
21882WAT      O65887   9.478   4.978   9.897
21882WAT     H165888   9.470   5.060   9.839
21882WAT     H265889   9.522   4.905   9.845
21883WAT      O65890   6.531   2.163   3.236
21883WAT     H165891   6.544   2.260   3.213
21883WAT     H265892   6.620   2.122   3.256
21884WAT      O65893   0.008   4.158   5.991
21884WAT     H165894   0.069   4.085   5.961
21884WAT     H265895   0.014   4.167   6.090
21885WAT      O65896   4.798   4.354   9.731
21885WAT     H165897   4.774   4.448   9.754
21885WAT     H265898   4.724   4.292   9.761
21886WAT      O65899   9.328   2.451   9.680
21886WAT     H165900   9.357   2.410   9.766
21886WAT     H265901   9.340   2.385   9.606
21887WAT      O65902   5.970   2.827   1.009
21887WAT     H165903   5.972   2.920   0.972
21887WAT     H265904   5.997   2.762   0.938
21888WAT      O65905   8.966   9.505   5.184
21888WAT     H165906   8.915   9.479   5.102
21888WAT     H265907   8.937   9.448   5.261
21889WAT      O65908   5.535   1.747   6.316
21889WAT     H165909   5.519   1.789   6.226
21889WAT     H265910   5.609   1.680   6.309
21890WAT      O65911   4.827   5.595   1.932
21890WAT     H165912   4.846   5.538   1.853
21890WAT     H265913   4.900   5.662   1.944
21891WAT      O65914   5.947   0.443   2.459
21891WAT     H165915   5.873   0.510   2.447
21891WAT     H265916   5.909   0.357   2.494
21892WAT      O65917   7.203   7.289   0.769
21892WAT     H165918   7.266   7.223   0.728
21892WAT     H265919   7.173   7.354   0.699
21893WAT      O65920   1.237   8.129   1.150
21893WAT     H165921   1.327   8.145   1.190
21893WAT     H265922   1.193   8.051   1.195
21894WAT      O65923   5.032   4.389   4.814
21894WAT     H165924   4.937   4.404   4.840
21894WAT     H265925   5.042   4.401   4.716
21895WAT      O65926   4.719   3.468   0.081
21895WAT     H165927   4.785   3.398   0.053
21895WAT     H265928   4.657   3.487   0.005
21896WAT      O65929   8.370   9.510   4.357
21896WAT     H165930   8.318   9.474   4.280
21896WAT     H265931   8.343   9.605   4.375
21897WAT      O65932   9.658   1.889   3.278
21897WAT     H165933   9.717   1.961   3.316
21897WAT     H265934   9.714   1.811   3.250
21898WAT      O65935   3.449   8.806   2.691
21898WAT     H165936   3.452   8.745   2.612
21898WAT     H265937   3.541   8.837   2.714
21899WAT      O65938   6.237   9.717   5.789
21899WAT     H165939   6.203   9.795   5.842
21899WAT     H265940   6.164   9.683   5.730
21900WAT      O65941   0.032   2.620   4.372
21900WAT     H165942  -0.014   2.535   4.397
21900WAT     H265943  -0.030   2.678   4.320
21901WAT      O65944   1.372   7.440   2.211
21901WAT     H165945   1.286   7.466   2.256
21901WAT     H265946   1.386   7.342   2.220
21902WAT      O65947   1.076   2.058   4.509
21902WAT     H165948   1.090   2.157   4.510
21902WAT     H265949   1.146   2.016   4.450
21903WAT      O65950   8.779   0.157   9.779
21903WAT     H165951   8.867   0.201   9.758
21903WAT     H265952   8.706   0.203   9.727
21904WAT      O65953   8.822   2.050   2.104
21904WAT     H165954   8.814   1.965   2.156
21904WAT     H265955   8.907   2.096   2.128
21905WAT      O65956   7.100   8.260   7.209
21905WAT     H165957   7.033   8.334   7.199
21905WAT     H265958   7.165   8.264   7.133
21906WAT      O65959   9.860   8.514   4.970
21906WAT     H165960   9.816   8.547   5.054
21906WAT     H265961   9.831   8.420   4.953
21907WAT      O65962   2.688   7.709   8.801
21907WAT     H165963   2.641   7.797   8.812
21907WAT     H265964   2.749   7.713   8.722
21908WAT      O65965   0.673   7.244   5.985
21908WAT     H165966   0.716   7.256   6.074
21908WAT     H265967   0.636   7.151   5.978
21909WAT      O65968   7.910   8.733   8.033
21909WAT     H165969   7.958   8.713   8.118
21909WAT     H265970   7.869   8.649   7.998
21910WAT      O65971   6.039   5.119   5.901
21910WAT     H165972   6.032   5.019   5.909
21910WAT     H265973   6.060   5.158   5.991
21911WAT      O65974   3.032   1.646   7.893
21911WAT     H165975   3.027   1.613   7.987
21911WAT     H265976   2.953   1.704   7.874
21912WAT      O65977   8.737   5.219   2.290
21912WAT     H165978   8.659   5.280   2.303
21912WAT     H265979   8.748   5.200   2.192
21913WAT      O65980   1.665   5.806   8.382
21913WAT     H165981   1.752   5.775   8.343
21913WAT     H265982   1.597   5.815   8.309
21914WAT      O65983   9.154   8.333   4.092
21914WAT     H165984   9.252   8.344   4.108
21914WAT     H265985   9.138   8.250   4.038
21915WAT      O65986   3.732   7.555   1.698
21915WAT     H165987   3.792   7.610   1.639
21915WAT     H265988   3.762   7.564   1.793
21916WAT      O65989   3.925   7.799   0.344
21916WAT     H165990   3.873   7.716   0.365
21916WAT     H265991   3.886   7.843   0.263
21917WAT      O65992   0.520   1.035   8.845
21917WAT     H165993   0.469   0.959   8.805
21917WAT     H265994   0.457   1.109   8.870
21918WAT      O65995   1.951   5.148   8.070
21918WAT     H165996   1.989   5.056   8.084
21918WAT     H265997   1.979   5.182   7.980
21919WAT      O65998   0.151   2.324   3.382
21919WAT     H165999   0.199   2.298   3.298
21919WAT     H266000   0.167   2.421   3.400
21920WAT      O66001   2.369   9.725   0.999
21920WAT     H166002   2.386   9.758   1.092
21920WAT     H266003   2.456   9.699   0.956
21921WAT      O66004   4.364   0.849   5.745
21921WAT     H166005   4.349   0.821   5.650
21921WAT     H266006   4.384   0.769   5.801
21922WAT      O66007   6.308   6.356   4.719
21922WAT     H166008   6.313   6.390   4.813
21922WAT     H266009   6.283   6.430   4.657
21923WAT      O66010   9.109   5.402   6.744
21923WAT     H166011   9.199   5.365   6.719
21923WAT     H266012   9.082   5.471   6.678
21924WAT      O66013   0.662   2.140   8.625
21924WAT     H166014   0.732   2.188   8.678
21924WAT     H266015   0.585   2.118   8.685
21925WAT      O66016   0.183   6.535   7.715
21925WAT     H166017   0.098   6.584   7.693
21925WAT     H266018   0.258   6.576   7.663
21926WAT      O66019   5.488   7.083   0.571
21926WAT     H166020   5.507   7.109   0.666
21926WAT     H266021   5.575   7.070   0.523
21927WAT      O66022   5.273   9.240   4.136
21927WAT     H166023   5.185   9.251   4.090
21927WAT     H266024   5.347   9.269   4.074
21928WAT      O66025   1.868   2.308   6.377
21928WAT     H166026   1.964   2.333   6.373
21928WAT     H266027   1.848   2.265   6.465
21929WAT      O66028   5.048   8.651   2.442
21929WAT     H166029   4.994   8.576   2.481
21929WAT     H266030   5.041   8.648   2.342
21930WAT      O66031   6.549   3.274   1.520
21930WAT     H166032   6.487   3.276   1.442
21930WAT     H266033   6.506   3.225   1.596
21931WAT      O66034   0.028   7.634   8.653
21931WAT     H166035  -0.040   7.708   8.656
21931WAT     H266036  -0.010   7.552   8.697
21932WAT      O66037   8.816   2.755   3.823
21932WAT     H166038   8.902   2.801   3.845
21932WAT     H266039   8.749   2.823   3.792
21933WAT      O66040   4.188   3.894   4.621
21933WAT     H166041   4.183   3.826   4.694
21933WAT     H266042   4.219   3.981   4.659
21934WAT      O66043   3.840   5.283   2.668
21934WAT     H166044   3.796   5.326   2.747
21934WAT     H266045   3.939   5.278   2.683
21935WAT      O66046   0.352   8.015   8.434
21935WAT     H166047   0.351   7.924   8.477
21935WAT     H266048   0.268   8.063   8.458
21936WAT      O66049   1.500   1.831   4.698
21936WAT     H166050   1.473   1.736   4.715
21936WAT     H266051   1.599   1.835   4.682
21937WAT      O66052   0.846   4.994   0.716
21937WAT     H166053   0.906   4.963   0.789
21937WAT     H266054   0.811   5.086   0.737
21938WAT      O66055   1.354   8.664   7.503
21938WAT     H166056   1.305   8.720   7.569
21938WAT     H266057   1.343   8.567   7.526
21939WAT      O66058   7.747   5.680   6.064
21939WAT     H166059   7.764   5.766   6.113
21939WAT     H266060   7.789   5.604   6.114
21940WAT      O66061   3.015   9.622   6.816
21940WAT     H166062   2.942   9.563   6.783
21940WAT     H266063   2.998   9.644   6.912
21941WAT      O66064   8.459   1.673   2.442
21941WAT     H166065   8.547   1.662   2.489
21941WAT     H266066   8.407   1.745   2.487
21942WAT      O66067   1.066   1.890   0.678
21942WAT     H166068   1.126   1.820   0.641
21942WAT     H266069   1.015   1.854   0.756
21943WAT      O66070   0.807   5.491   8.367
21943WAT     H166071   0.853   5.567   8.321
21943WAT     H266072   0.875   5.434   8.414
21944WAT      O66073   1.149   0.262   8.415
21944WAT     H166074   1.172   0.165   8.405
21944WAT     H266075   1.102   0.293   8.333
21945WAT      O66076   5.515   4.380   7.991
21945WAT     H166077   5.539   4.298   7.940
21945WAT     H266078   5.477   4.449   7.929
21946WAT      O66079   7.078   9.481   4.862
21946WAT     H166080   7.061   9.522   4.773
21946WAT     H266081   7.005   9.506   4.925
21947WAT      O66082   3.122   1.999   1.769
21947WAT     H166083   3.045   1.949   1.808
21947WAT     H266084   3.173   1.939   1.707
21948WAT      O66085   5.722   6.234   3.864
21948WAT     H166086   5.752   6.186   3.781
21948WAT     H266087   5.675   6.318   3.838
21949WAT      O66088   5.638   8.036   2.564
21949WAT     H166089   5.559   7.999   2.515
21949WAT     H266090   5.612   8.059   2.658
21950WAT      O66091   4.233   0.820   0.922
21950WAT     H166092   4.150   0.801   0.974
21950WAT     H266093   4.260   0.916   0.935
21951WAT      O66094   0.255   8.323   1.959
21951WAT     H166095   0.334   8.338   1.899
21951WAT     H266096   0.264   8.381   2.040
21952WAT      O66097   7.729   9.034   8.801
21952WAT     H166098   7.742   9.091   8.720
21952WAT     H266099   7.746   9.089   8.883
21953WAT      O66100   3.936   4.088   0.979
21953WAT     H166101   3.945   3.993   0.947
21953WAT     H266102   3.933   4.090   1.079
21954WAT      O66103   7.064   7.653   3.325
21954WAT     H166104   7.027   7.643   3.233
21954WAT     H266105   7.132   7.581   3.342
21955WAT      O66106   1.504   7.932   5.447
21955WAT     H166107   1.451   8.006   5.489
21955WAT     H266108   1.558   7.886   5.518
21956WAT      O66109   1.760   7.063   9.251
21956WAT     H166110   1.670   7.022   9.239
21956WAT     H266111   1.799   7.034   9.338
21957WAT      O66112   6.429   8.843   1.305
21957WAT     H166113   6.444   8.865   1.208
21957WAT     H266114   6.412   8.928   1.356
21958WAT      O66115   1.533   2.893   0.349
21958WAT     H166116   1.515   2.951   0.428
21958WAT     H266117   1.447   2.851   0.319
21959WAT      O66118   2.745   9.225   9.163
21959WAT     H166119   2.780   9.318   9.174
21959WAT     H266120   2.771   9.171   9.244
21960WAT      O66121   2.454   8.019   0.990
21960WAT     H166122   2.440   7.929   0.949
21960WAT     H266123   2.439   8.013   1.089
21961WAT      O66124   6.704   2.974   1.087
21961WAT     H166125   6.640   3.032   1.036
21961WAT     H266126   6.768   2.932   1.023
21962WAT      O66127   5.312   5.019   4.819
21962WAT     H166128   5.379   5.073   4.767
21962WAT     H266129   5.264   4.957   4.756
21963WAT      O66130   6.160   7.434   0.088
21963WAT     H166131   6.092   7.499   0.121
21963WAT     H266132   6.194   7.462  -0.002
21964WAT      O66133   3.489   1.285   8.986
21964WAT     H166134   3.566   1.238   8.944
21964WAT     H266135   3.473   1.373   8.940
21965WAT      O66136   9.192   6.030   1.984
21965WAT     H166137   9.136   6.111   1.963
21965WAT     H266138   9.217   5.985   1.898
21966WAT      O66139   4.948   6.304   8.348
21966WAT     H166140   4.952   6.343   8.256
21966WAT     H266141   5.040   6.296   8.385
21967WAT      O66142   2.016   9.317   7.624
21967WAT     H166143   2.042   9.227   7.588
21967WAT     H266144   1.975   9.305   7.715
21968WAT      O66145   4.739   5.187   0.259
21968WAT     H166146   4.749   5.122   0.334
21968WAT     H266147   4.659   5.245   0.276
21969WAT      O66148   3.179   0.792   1.300
21969WAT     H166149   3.105   0.775   1.365
21969WAT     H266150   3.145   0.777   1.207
21970WAT      O66151   0.235   5.719   9.857
21970WAT     H166152   0.168   5.676   9.796
21970WAT     H266153   0.315   5.660   9.866
21971WAT      O66154   6.951   8.596   8.442
21971WAT     H166155   6.952   8.624   8.346
21971WAT     H266156   6.941   8.496   8.448
21972WAT      O66157   2.298   9.493   2.474
21972WAT     H166158   2.232   9.535   2.536
21972WAT     H266159   2.358   9.563   2.437
21973WAT      O66160   3.304   6.268   1.111
21973WAT     H166161   3.316   6.214   1.027
21973WAT     H266162   3.234   6.226   1.168
21974WAT      O66163   1.125   0.708   7.628
21974WAT     H166164   1.175   0.624   7.608
21974WAT     H266165   1.062   0.728   7.553
21975WAT      O66166   6.509   5.852   5.895
21975WAT     H166167   6.588   5.796   5.871
21975WAT     H266168   6.506   5.866   5.994
21976WAT      O66169   6.650   6.420   1.705
21976WAT     H166170   6.579   6.372   1.653
21976WAT     H266171   6.676   6.365   1.784
21977WAT      O66172   1.380   3.046   1.864
21977WAT     H166173   1.470   3.008   1.844
21977WAT     H266174   1.329   3.058   1.779
21978WAT      O66175   4.464   2.441   9.330
21978WAT     H166176   4.383   2.430   9.387
21978WAT     H266177   4.442   2.503   9.254
21979WAT      O66178   8.615   7.106   0.055
21979WAT     H166179   8.697   7.049   0.064
21979WAT     H266180   8.564   7.106   0.141
21980WAT      O66181   8.611   2.182   6.533
21980WAT     H166182   8.684   2.209   6.471
21980WAT     H266183   8.630   2.090   6.569
21981WAT      O66184   2.561   5.685   2.983
21981WAT     H166185   2.502   5.759   2.950
21981WAT     H266186   2.596   5.633   2.905
21982WAT      O66187   3.874   0.197   9.753
21982WAT     H166188   3.829   0.122   9.801
21982WAT     H266189   3.806   0.265   9.727
21983WAT      O66190   4.659   4.761   9.165
21983WAT     H166191   4.727   4.731   9.232
21983WAT     H266192   4.568   4.731   9.194
21984WAT      O66193   8.559   1.299   4.434
21984WAT     H166194   8.531   1.203   4.429
21984WAT     H266195   8.623   1.311   4.510
21985WAT      O66196   1.386   5.163   9.263
21985WAT     H166197   1.438   5.247   9.243
21985WAT     H266198   1.293   5.187   9.290
21986WAT      O66199   0.109   7.731   5.744
21986WAT     H166200   0.201   7.707   5.713
21986WAT     H266201   0.064   7.787   5.675
21987WAT      O66202   5.961   1.294   3.501
21987WAT     H166203   5.978   1.393   3.504
21987WAT     H266204   5.923   1.265   3.589
21988WAT      O66205   9.239   1.050   5.151
21988WAT     H166206   9.265   1.108   5.228
21988WAT     H266207   9.321   1.022   5.101
21989WAT      O66208   8.663   4.947   2.273
21989WAT     H166209   8.689   5.043   2.281
21989WAT     H266210   8.696   4.897   2.353
21990WAT      O66211   4.231   6.251   1.418
21990WAT     H166212   4.246   6.287   1.511
21990WAT     H266213   4.147   6.289   1.381
21991WAT      O66214   9.600   4.597   4.675
21991WAT     H166215   9.651   4.674   4.712
21991WAT     H266216   9.551   4.552   4.750
21992WAT      O66217   6.858   1.901   7.105
21992WAT     H166218   6.794   1.851   7.046
21992WAT     H266219   6.915   1.961   7.049
21993WAT      O66220   9.146   1.501   9.809
21993WAT     H166221   9.094   1.538   9.886
21993WAT     H266222   9.091   1.508   9.726
21994WAT      O66223   8.825   1.416   3.560
21994WAT     H166224   8.871   1.366   3.486
21994WAT     H266225   8.883   1.417   3.641
21995WAT      O66226   7.722   4.376   8.996
21995WAT     H166227   7.765   4.408   8.911
21995WAT     H266228   7.747   4.280   9.011
21996WAT      O66229   5.473   5.255   0.709
21996WAT     H166230   5.408   5.238   0.636
21996WAT     H266231   5.560   5.212   0.687
21997WAT      O66232   7.714   8.735   9.423
21997WAT     H166233   7.740   8.770   9.513
21997WAT     H266234   7.747   8.797   9.352
21998WAT      O66235   0.957   1.449   0.046
21998WAT     H166236   1.018   1.404   0.111
21998WAT     H266237   1.010   1.484  -0.031
21999WAT      O66238   3.742   9.200   0.545
21999WAT     H166239   3.661   9.248   0.578
21999WAT     H266240   3.795   9.260   0.485
22000WAT      O66241   8.213   2.223   2.813
22000WAT     H166242   8.238   2.309   2.767
22000WAT     H266243   8.273   2.150   2.781
22001WAT      O66244   5.989   1.650   5.688
22001WAT     H166245   5.941   1.642   5.601
22001WAT     H266246   6.006   1.558   5.725
22002WAT      O66247   2.432   4.971   2.166
22002WAT     H166248   2.525   4.935   2.177
22002WAT     H266249   2.406   5.021   2.249
22003WAT      O66250   3.231   4.668   9.266
22003WAT     H166251   3.145   4.645   9.221
22003WAT     H266252   3.236   4.767   9.282
22004WAT      O66253   8.942   9.041   4.639
22004WAT     H166254   9.000   9.123   4.633
22004WAT     H266255   8.873   9.054   4.711
22005WAT      O66256   8.304   1.601   7.640
22005WAT     H166257   8.208   1.594   7.612
22005WAT     H266258   8.337   1.694   7.621
22006WAT      O66259   2.673   4.683   5.544
22006WAT     H166260   2.664   4.688   5.644
22006WAT     H266261   2.591   4.643   5.505
22007WAT      O66262   6.634   2.580   9.429
22007WAT     H166263   6.551   2.584   9.374
22007WAT     H266264   6.617   2.523   9.510
22008WAT      O66265   4.681   4.355   6.727
22008WAT     H166266   4.606   4.419   6.707
22008WAT     H266267   4.653   4.262   6.704
22009WAT      O66268   8.161   9.535   4.000
22009WAT     H166269   8.154   9.470   4.076
22009WAT     H266270   8.248   9.521   3.952
22010WAT      O66271   4.186   8.812   1.788
22010WAT     H166272   4.130   8.743   1.742
22010WAT     H266273   4.133   8.897   1.798
22011WAT      O66274   1.704   6.523   8.341
22011WAT     H166275   1.761   6.595   8.304
22011WAT     H266276   1.607   6.547   8.330
22012WAT      O66277   8.913   2.286   5.091
22012WAT     H166278   8.965   2.208   5.127
22012WAT     H266279   8.834   2.252   5.041
22013WAT      O66280   7.519   1.292   5.881
22013WAT     H166281   7.519   1.208   5.934
22013WAT     H266282   7.582   1.358   5.923
22014WAT      O66283   0.814   3.775   6.657
22014WAT     H166284   0.881   3.738   6.593
22014WAT     H266285   0.742   3.708   6.673
22015WAT      O66286   3.126   9.176   2.291
22015WAT     H166287   3.131   9.098   2.353
22015WAT     H266288   3.218   9.198   2.258
22016WAT      O66289   5.391   6.538   8.472
22016WAT     H166290   5.387   6.624   8.422
22016WAT     H266291   5.366   6.462   8.411
22017WAT      O66292   5.688   1.035   7.826
22017WAT     H166293   5.764   1.058   7.887
22017WAT     H266294   5.602   1.040   7.877
22018WAT      O66295   1.543   2.087   9.820
22018WAT     H166296   1.482   2.163   9.843
22018WAT     H266297   1.534   2.015   9.888
22019WAT      O66298   2.453   4.608   4.310
22019WAT     H166299   2.412   4.672   4.245
22019WAT     H266300   2.544   4.639   4.335
22020WAT      O66301   2.942   2.371   2.408
22020WAT     H166302   3.037   2.388   2.384
22020WAT     H266303   2.887   2.452   2.386
22021WAT      O66304   4.113   6.816   7.838
22021WAT     H166305   4.145   6.738   7.893
22021WAT     H266306   4.141   6.803   7.743
22022WAT      O66307   0.100   5.031   9.277
22022WAT     H166308   0.083   4.933   9.271
22022WAT     H266309   0.199   5.048   9.275
22023WAT      O66310   3.604   4.799   9.597
22023WAT     H166311   3.517   4.842   9.622
22023WAT     H266312   3.595   4.699   9.605
22024WAT      O66313   0.390   0.452   9.633
22024WAT     H166314   0.413   0.493   9.544
22024WAT     H266315   0.372   0.354   9.620
22025WAT      O66316   2.364   3.121   9.783
22025WAT     H166317   2.369   3.132   9.684
22025WAT     H266318   2.413   3.197   9.827
22026WAT      O66319   4.874   5.850   0.079
22026WAT     H166320   4.803   5.802   0.131
22026WAT     H266321   4.958   5.856   0.134
22027WAT      O66322   8.105   0.240   1.790
22027WAT     H166323   8.085   0.281   1.879
22027WAT     H266324   8.203   0.222   1.782
22028WAT      O66325   2.988   8.886   8.377
22028WAT     H166326   3.062   8.824   8.350
22028WAT     H266327   2.934   8.910   8.296
22029WAT      O66328   1.179   2.083   8.186
22029WAT     H166329   1.120   2.156   8.152
22029WAT     H266330   1.149   1.996   8.146
22030WAT      O66331   1.142   5.622   1.833
22030WAT     H166332   1.104   5.574   1.912
22030WAT     H266333   1.074   5.687   1.798
22031WAT      O66334   3.419   7.908   9.425
22031WAT     H166335   3.413   7.949   9.334
22031WAT     H266336   3.450   7.977   9.491
22032WAT      O66337   7.102   6.200   3.450
22032WAT     H166338   7.143   6.289   3.433
22032WAT     H266339   7.120   6.172   3.545
22033WAT      O66340   6.356   3.470   2.945
22033WAT     H166341   6.433   3.420   2.985
22033WAT     H266342   6.376   3.491   2.849
22034WAT      O66343   1.272   3.430   1.080
22034WAT     H166344   1.247   3.371   1.157
22034WAT     H266345   1.295   3.521   1.115
22035WAT      O66346   6.042   4.984   3.016
22035WAT     H166347   6.070   5.064   3.068
22035WAT     H266348   5.988   4.923   3.074
22036WAT      O66349   6.579   8.163   2.243
22036WAT     H166350   6.570   8.134   2.147
22036WAT     H266351   6.545   8.091   2.303
22037WAT      O66352   4.611   1.782   4.201
22037WAT     H166353   4.625   1.830   4.114
22037WAT     H266354   4.689   1.799   4.262
22038WAT      O66355   9.575   3.041   7.013
22038WAT     H166356   9.495   3.040   6.953
22038WAT     H266357   9.599   3.136   7.035
22039WAT      O66358   9.795   3.871   5.799
22039WAT     H166359   9.711   3.821   5.779
22039WAT     H266360   9.830   3.913   5.715
22040WAT      O66361   0.661   5.122   9.845
22040WAT     H166362   0.583   5.184   9.855
22040WAT     H266363   0.662   5.057   9.921
22041WAT      O66364   8.095   1.044   7.090
22041WAT     H166365   8.056   1.014   7.178
22041WAT     H266366   8.179   0.993   7.072
22042WAT      O66367   6.883   5.179   4.173
22042WAT     H166368   6.965   5.169   4.229
22042WAT     H266369   6.826   5.097   4.182
22043WAT      O66370   6.537   0.811   3.701
22043WAT     H166371   6.610   0.744   3.715
22043WAT     H266372   6.569   0.881   3.637
22044WAT      O66373   7.102   2.859   7.690
22044WAT     H166374   7.015   2.908   7.694
22044WAT     H266375   7.100   2.781   7.754
22045WAT      O66376   5.605   5.961   9.034
22045WAT     H166377   5.547   6.039   9.056
22045WAT     H266378   5.701   5.985   9.051
22046WAT      O66379   3.782   9.174   8.566
22046WAT     H166380   3.780   9.188   8.664
22046WAT     H266381   3.729   9.245   8.520
22047WAT      O66382   2.147   7.656   5.686
22047WAT     H166383   2.235   7.642   5.641
22047WAT     H266384   2.141   7.599   5.767
22048WAT      O66385   0.035   5.580   8.492
22048WAT     H166386   0.036   5.582   8.392
22048WAT     H266387   0.111   5.635   8.527
22049WAT      O66388   6.937   7.857   5.715
22049WAT     H166389   7.000   7.839   5.791
22049WAT     H266390   6.854   7.802   5.727
22050WAT      O66391   4.987   0.563   5.516
22050WAT     H166392   5.045   0.489   5.551
22050WAT     H266393   5.004   0.575   5.418
22051WAT      O66394   5.498   0.203   2.234
22051WAT     H166395   5.525   0.120   2.184
22051WAT     H266396   5.420   0.182   2.292
22052WAT      O66397   8.904   0.153   3.144
22052WAT     H166398   8.958   0.121   3.066
22052WAT     H266399   8.810   0.173   3.114
22053WAT      O66400   8.118   5.106   6.449
22053WAT     H166401   8.152   5.066   6.364
22053WAT     H266402   8.188   5.165   6.488
22054WAT      O66403   5.530   3.695   3.417
22054WAT     H166404   5.483   3.691   3.329
22054WAT     H266405   5.627   3.678   3.404
22055WAT      O66406   6.442   3.137   1.745
22055WAT     H166407   6.413   3.058   1.691
22055WAT     H266408   6.366   3.169   1.802
22056WAT      O66409   2.773   6.417   4.534
22056WAT     H166410   2.714   6.350   4.489
22056WAT     H266411   2.720   6.497   4.559
22057WAT      O66412   0.650   8.250   9.875
22057WAT     H166413   0.677   8.172   9.932
22057WAT     H266414   0.706   8.329   9.898
22058WAT      O66415   4.258   5.932   5.109
22058WAT     H166416   4.356   5.940   5.091
22058WAT     H266417   4.231   5.998   5.179
22059WAT      O66418   8.517   8.800   8.738
22059WAT     H166419   8.616   8.806   8.730
22059WAT     H266420   8.492   8.716   8.788
22060WAT      O66421   6.412   3.625   3.672
22060WAT     H166422   6.458   3.650   3.758
22060WAT     H266423   6.317   3.600   3.692
22061WAT      O66424   9.875   3.207   5.209
22061WAT     H166425   9.782   3.214   5.245
22061WAT     H266426   9.894   3.112   5.183
22062WAT      O66427   5.463   1.619   9.627
22062WAT     H166428   5.501   1.562   9.554
22062WAT     H266429   5.500   1.590   9.715
22063WAT      O66430   3.038   4.620   5.172
22063WAT     H166431   3.000   4.710   5.192
22063WAT     H266432   3.120   4.630   5.116
22064WAT      O66433   0.028   1.602   4.811
22064WAT     H166434   0.068   1.658   4.884
22064WAT     H266435   0.052   1.642   4.722
22065WAT      O66436   8.471   9.394   9.147
22065WAT     H166437   8.567   9.376   9.124
22065WAT     H266438   8.413   9.326   9.102
22066WAT      O66439   7.950   9.778   6.396
22066WAT     H166440   7.947   9.686   6.435
22066WAT     H266441   7.891   9.782   6.316
22067WAT      O66442   1.938   5.858   2.116
22067WAT     H166443   1.970   5.843   2.209
22067WAT     H266444   1.875   5.936   2.114
22068WAT      O66445   6.546   9.352   7.595
22068WAT     H166446   6.633   9.401   7.592
22068WAT     H266447   6.547   9.287   7.671
22069WAT      O66448   7.097   4.472   5.260
22069WAT     H166449   6.999   4.461   5.276
22069WAT     H266450   7.111   4.541   5.188
22070WAT      O66451   4.501   6.356   3.712
22070WAT     H166452   4.425   6.401   3.759
22070WAT     H266453   4.492   6.257   3.720
22071WAT      O66454   6.007   5.819   6.632
22071WAT     H166455   5.929   5.828   6.570
22071WAT     H266456   6.091   5.829   6.581
22072WAT      O66457   6.130   7.061   0.912
22072WAT     H166458   6.063   7.004   0.960
22072WAT     H266459   6.174   7.007   0.841
22073WAT      O66460   8.124   7.310   2.975
22073WAT     H166461   8.128   7.215   3.006
22073WAT     H266462   8.152   7.315   2.880
22074WAT      O66463   7.459   7.246   6.511
22074WAT     H166464   7.552   7.211   6.518
22074WAT     H266465   7.462   7.344   6.490
22075WAT      O66466   4.346   8.017   4.037
22075WAT     H166467   4.384   7.926   4.053
22075WAT     H266468   4.270   8.010   3.973
22076WAT      O66469   9.030   4.013   9.527
22076WAT     H166470   9.018   4.104   9.568
22076WAT     H266471   9.038   3.945   9.600
22077WAT      O66472   8.798   9.084   9.890
22077WAT     H166473   8.789   8.985   9.883
22077WAT     H266474   8.722   9.121   9.944
22078WAT      O66475   4.669   7.516   1.692
22078WAT     H166476   4.693   7.589   1.628
22078WAT     H266477   4.596   7.460   1.653
22079WAT      O66478   4.505   3.470   2.610
22079WAT     H166479   4.593   3.423   2.608
22079WAT     H266480   4.434   3.406   2.639
22080WAT      O66481   0.598   8.316   5.573
22080WAT     H166482   0.528   8.356   5.633
22080WAT     H266483   0.615   8.221   5.600
22081WAT      O66484   5.332   8.450   2.182
22081WAT     H166485   5.380   8.479   2.099
22081WAT     H266486   5.351   8.353   2.198
22082WAT      O66487   4.077   0.924   6.354
22082WAT     H166488   4.092   0.860   6.279
22082WAT     H266489   4.028   0.879   6.428
22083WAT      O66490   0.155   9.773   2.965
22083WAT     H166491   0.194   9.682   2.947
22083WAT     H266492   0.058   9.764   2.983
22084WAT      O66493   6.459   6.093   2.171
22084WAT     H166494   6.485   6.133   2.083
22084WAT     H266495   6.525   6.121   2.241
22085WAT      O66496   1.160   8.374   8.226
22085WAT     H166497   1.233   8.321   8.269
22085WAT     H266498   1.173   8.373   8.127
22086WAT      O66499   3.763   2.119   1.610
22086WAT     H166500   3.798   2.122   1.517
22086WAT     H266501   3.703   2.198   1.626
22087WAT      O66502   4.479   3.857   7.005
22087WAT     H166503   4.389   3.892   7.034
22087WAT     H266504   4.541   3.857   7.084
22088WAT      O66505   3.141   4.766   8.027
22088WAT     H166506   3.080   4.689   8.048
22088WAT     H266507   3.186   4.749   7.939
22089WAT      O66508   5.390   0.062   8.787
22089WAT     H166509   5.388   0.008   8.703
22089WAT     H266510   5.483   0.065   8.823
22090WAT      O66511   2.193   7.276   0.576
22090WAT     H166512   2.106   7.323   0.557
22090WAT     H266513   2.255   7.288   0.498
22091WAT      O66514   8.038   0.182   5.914
22091WAT     H166515   8.006   0.110   5.976
22091WAT     H266516   7.960   0.229   5.874
22092WAT      O66517   3.905   8.033   0.788
22092WAT     H166518   3.977   7.985   0.738
22092WAT     H266519   3.911   8.131   0.772
22093WAT      O66520   6.553   3.386   0.626
22093WAT     H166521   6.506   3.406   0.540
22093WAT     H266522   6.535   3.458   0.692
22094WAT      O66523   0.889   6.384   9.164
22094WAT     H166524   0.965   6.427   9.212
22094WAT     H266525   0.894   6.407   9.067
22095WAT      O66526   6.357   2.883   0.092
22095WAT     H166527   6.266   2.924   0.099
22095WAT     H266528   6.425   2.948   0.126
22096WAT      O66529   0.905   2.056   9.729
22096WAT     H166530   1.004   2.063   9.717
22096WAT     H266531   0.880   1.961   9.743
22097WAT      O66532   6.968   2.103   5.199
22097WAT     H166533   7.046   2.151   5.238
22097WAT     H266534   6.910   2.068   5.272
22098WAT      O66535   5.842   9.581   9.621
22098WAT     H166536   5.834   9.595   9.522
22098WAT     H266537   5.816   9.665   9.669
22099WAT      O66538   4.695   7.810   3.486
22099WAT     H166539   4.668   7.733   3.429
22099WAT     H266540   4.791   7.801   3.513
22100WAT      O66541   4.200   0.472   0.058
22100WAT     H166542   4.234   0.473   0.152
22100WAT     H266543   4.170   0.379   0.034
22101WAT      O66544   8.906   8.954   5.924
22101WAT     H166545   8.962   8.941   6.006
22101WAT     H266546   8.845   9.033   5.938
22102WAT      O66547   3.238   1.027   7.269
22102WAT     H166548   3.285   1.115   7.271
22102WAT     H266549   3.262   0.979   7.185
22103WAT      O66550   8.740   9.398   9.106
22103WAT     H166551   8.789   9.455   9.172
22103WAT     H266552   8.748   9.302   9.132
22104WAT      O66553   0.323   0.152   3.069
22104WAT     H166554   0.298   0.064   3.028
22104WAT     H266555   0.242   0.198   3.103
22105WAT      O66556   6.298   0.759   2.851
22105WAT     H166557   6.373   0.721   2.905
22105WAT     H266558   6.327   0.845   2.809
22106WAT      O66559   1.290   0.359   3.949
22106WAT     H166560   1.366   0.421   3.971
22106WAT     H266561   1.313   0.306   3.868
22107WAT      O66562   6.637   6.905   9.419
22107WAT     H166563   6.667   6.994   9.455
22107WAT     H266564   6.682   6.887   9.332
22108WAT      O66565   4.729   3.083   6.102
22108WAT     H166566   4.648   3.088   6.043
22108WAT     H266567   4.708   3.122   6.192
22109WAT      O66568   1.046   2.633   7.842
22109WAT     H166569   1.080   2.681   7.761
22109WAT     H266570   0.949   2.612   7.830
22110WAT      O66571   7.939   3.551   4.952
22110WAT     H166572   7.999   3.594   4.885
22110WAT     H266573   7.872   3.618   4.984
22111WAT      O66574   1.418   9.129   9.418
22111WAT     H166575   1.337   9.101   9.365
22111WAT     H266576   1.403   9.220   9.456
22112WAT      O66577   9.820   7.220   0.082
22112WAT     H166578   9.723   7.218   0.107
22112WAT     H266579   9.876   7.227   0.164
22113WAT      O66580   4.830   8.373   6.858
22113WAT     H166581   4.787   8.462   6.867
22113WAT     H266582   4.798   8.328   6.775
22114WAT      O66583   5.850   2.864   1.236
22114WAT     H166584   5.887   2.831   1.149
22114WAT     H266585   5.925   2.895   1.294
22115WAT      O66586   6.667   5.733   7.913
22115WAT     H166587   6.738   5.672   7.877
22115WAT     H266588   6.606   5.761   7.839
22116WAT      O66589   6.981   4.106   4.541
22116WAT     H166590   6.950   4.196   4.569
22116WAT     H266591   7.055   4.075   4.600
22117WAT      O66592   7.481   3.521   2.863
22117WAT     H166593   7.397   3.547   2.815
22117WAT     H266594   7.498   3.585   2.938
22118WAT      O66595   3.168   5.452   9.286
22118WAT     H166596   3.087   5.399   9.313
22118WAT     H266597   3.237   5.390   9.248
22119WAT      O66598   0.323   7.533   0.620
22119WAT     H166599   0.367   7.582   0.545
22119WAT     H266600   0.384   7.460   0.652
22120WAT      O66601   7.505   3.470   3.916
22120WAT     H166602   7.592   3.459   3.964
22120WAT     H266603   7.463   3.380   3.900
22121WAT      O66604   3.954   4.426   3.929
22121WAT     H166605   4.018   4.353   3.951
22121WAT     H266606   3.895   4.443   4.009
22122WAT      O66607   6.768   8.127   0.956
22122WAT     H166608   6.765   8.030   0.980
22122WAT     H266609   6.775   8.182   1.040
22123WAT      O66610   7.855   0.597   7.666
22123WAT     H166611   7.954   0.593   7.671
22123WAT     H266612   7.827   0.644   7.582
22124WAT      O66613   5.403   4.473   5.953
22124WAT     H166614   5.385   4.444   6.047
22124WAT     H266615   5.499   4.455   5.930
22125WAT      O66616   5.077   5.384   2.076
22125WAT     H166617   5.122   5.397   2.165
22125WAT     H266618   4.991   5.334   2.090
22126WAT      O66619   0.213   7.617   9.706
22126WAT     H166620   0.187   7.537   9.761
22126WAT     H266621   0.229   7.695   9.766
22127WAT      O66622   5.878   2.076   8.761
22127WAT     H166623   5.930   2.026   8.831
22127WAT     H266624   5.809   2.132   8.805
22128WAT      O66625   9.650   2.076   5.500
22128WAT     H166626   9.590   2.077   5.420
22128WAT     H266627   9.646   1.986   5.544
22129WAT      O66628   2.729   0.630   9.757
22129WAT     H166629   2.700   0.543   9.717
22129WAT     H266630   2.733   0.700   9.685
22130WAT      O66631   0.374   9.243   9.604
22130WAT     H166632   0.417   9.154   9.621
22130WAT     H266633   0.376   9.297   9.689
22131WAT      O66634   5.110   0.876   5.219
22131WAT     H166635   5.090   0.861   5.316
22131WAT     H266636   5.075   0.966   5.192
22132WAT      O66637   2.168   2.194   6.982
22132WAT     H166638   2.220   2.279   6.986
22132WAT     H266639   2.134   2.180   6.889
22133WAT      O66640   8.770   3.703   3.024
22133WAT     H166641   8.823   3.787   3.010
22133WAT     H266642   8.673   3.723   3.015
22134WAT      O66643   5.772   6.180   1.564
22134WAT     H166644   5.832   6.191   1.485
22134WAT     H266645   5.680   6.209   1.541
22135WAT      O66646   1.884   4.416   8.154
22135WAT     H166647   1.896   4.514   8.138
22135WAT     H266648   1.823   4.378   8.084
22136WAT      O66649   3.672   0.981   4.048
22136WAT     H166650   3.656   1.042   3.970
22136WAT     H266651   3.653   1.029   4.133
22137WAT      O66652   1.708   4.926   6.294
22137WAT     H166653   1.689   4.977   6.378
22137WAT     H266654   1.701   4.828   6.313
22138WAT      O66655   7.492   6.620   7.128
22138WAT     H166656   7.453   6.706   7.161
22138WAT     H266657   7.592   6.622   7.140
22139WAT      O66658   0.098   7.029   4.920
22139WAT     H166659   0.029   7.093   4.885
22139WAT     H266660   0.116   7.049   5.016
22140WAT      O66661   6.633   5.646   3.139
22140WAT     H166662   6.714   5.633   3.195
22140WAT     H266663   6.569   5.571   3.155
22141WAT      O66664   2.070   4.070   5.798
22141WAT     H166665   2.024   3.985   5.775
22141WAT     H266666   2.085   4.074   5.897
22142WAT      O66667   8.791   7.902   7.334
22142WAT     H166668   8.836   7.983   7.370
22142WAT     H266669   8.770   7.915   7.237
22143WAT      O66670   3.261   8.441   1.949
22143WAT     H166671   3.233   8.352   1.984
22143WAT     H266672   3.217   8.514   2.001
22144WAT      O66673   6.440   7.987   2.390
22144WAT     H166674   6.384   7.915   2.350
22144WAT     H266675   6.467   7.961   2.483
22145WAT      O66676   9.551   0.520   1.039
22145WAT     H166677   9.505   0.463   1.108
22145WAT     H266678   9.650   0.508   1.047
22146WAT      O66679   4.533   7.969   8.417
22146WAT     H166680   4.612   7.932   8.467
22146WAT     H266681   4.508   7.906   8.344
22147WAT      O66682   5.692   8.469   9.025
22147WAT     H166683   5.636   8.552   9.028
22147WAT     H266684   5.783   8.490   9.060
22148WAT      O66685   5.084   0.847   9.232
22148WAT     H166686   5.086   0.933   9.181
22148WAT     H266687   5.012   0.851   9.301
22149WAT      O66688   1.283   9.123   3.712
22149WAT     H166689   1.376   9.156   3.729
22149WAT     H266690   1.246   9.169   3.631
22150WAT      O66691   5.579   8.935   5.270
22150WAT     H166692   5.669   8.956   5.308
22150WAT     H266693   5.570   8.836   5.259
22151WAT      O66694   4.368   2.101   2.878
22151WAT     H166695   4.396   2.185   2.925
22151WAT     H266696   4.273   2.110   2.849
22152WAT      O66697   6.301   5.290   9.463
22152WAT     H166698   6.356   5.277   9.380
22152WAT     H266699   6.210   5.324   9.437
22153WAT      O66700   6.859   9.059   5.826
22153WAT     H166701   6.805   8.978   5.805
22153WAT     H266702   6.956   9.040   5.810
22154WAT      O66703   5.394   1.510   1.678
22154WAT     H166704   5.321   1.569   1.712
22154WAT     H266705   5.466   1.504   1.746
22155WAT      O66706   9.589   7.513   1.342
22155WAT     H166707   9.655   7.479   1.275
22155WAT     H266708   9.614   7.479   1.433
22156WAT      O66709   7.774   4.254   0.837
22156WAT     H166710   7.728   4.297   0.760
22156WAT     H266711   7.827   4.175   0.805
22157WAT      O66712   0.035   0.635   0.492
22157WAT     H166713  -0.014   0.657   0.408
22157WAT     H266714   0.127   0.676   0.489
22158WAT      O66715   8.429   2.356   7.626
22158WAT     H166716   8.432   2.322   7.532
22158WAT     H266717   8.452   2.453   7.628
22159WAT      O66718   6.812   7.326   0.487
22159WAT     H166719   6.900   7.348   0.529
22159WAT     H266720   6.787   7.398   0.422
22160WAT      O66721   5.924   8.472   8.506
22160WAT     H166722   5.918   8.489   8.407
22160WAT     H266723   5.976   8.545   8.549
22161WAT      O66724   7.329   4.760   0.544
22161WAT     H166725   7.346   4.665   0.517
22161WAT     H266726   7.324   4.766   0.643
22162WAT      O66727   7.389   5.252   0.500
22162WAT     H166728   7.390   5.332   0.561
22162WAT     H266729   7.296   5.218   0.492
22163WAT      O66730   0.786   6.995   3.518
22163WAT     H166731   0.698   7.003   3.471
22163WAT     H266732   0.842   6.926   3.472
22164WAT      O66733   5.883   2.264   7.193
22164WAT     H166734   5.926   2.251   7.104
22164WAT     H266735   5.942   2.322   7.250
22165WAT      O66736   3.920   8.997   1.692
22165WAT     H166737   3.916   8.961   1.785
22165WAT     H266738   3.997   9.061   1.685
22166WAT      O66739   9.240   4.271   8.593
22166WAT     H166740   9.170   4.201   8.580
22166WAT     H266741   9.331   4.229   8.590
22167WAT      O66742   3.467   3.264   7.647
22167WAT     H166743   3.387   3.245   7.704
22167WAT     H266744   3.490   3.182   7.594
22168WAT      O66745   9.570   1.410   8.832
22168WAT     H166746   9.577   1.441   8.737
22168WAT     H266747   9.557   1.311   8.834
22169WAT      O66748   6.956   6.802   3.205
22169WAT     H166749   6.916   6.893   3.212
22169WAT     H266750   6.901   6.737   3.258
22170WAT      O66751   6.004   7.374   2.551
22170WAT     H166752   6.080   7.426   2.514
22170WAT     H266753   6.029   7.277   2.558
22171WAT      O66754   3.917   2.264   0.631
22171WAT     H166755   3.945   2.359   0.646
22171WAT     H266756   3.820   2.262   0.606
22172WAT      O66757   8.953   1.218   3.363
22172WAT     H166758   9.039   1.188   3.404
22172WAT     H266759   8.879   1.156   3.391
22173WAT      O66760   6.970   6.190   0.990
22173WAT     H166761   7.000   6.249   0.916
22173WAT     H266762   6.872   6.173   0.981
22174WAT      O66763   4.500   6.586   0.533
22174WAT     H166764   4.458   6.568   0.622
22174WAT     H266765   4.590   6.627   0.547
22175WAT      O66766   7.488   4.324   4.342
22175WAT     H166767   7.393   4.296   4.351
22175WAT     H266768   7.536   4.307   4.428
22176WAT      O66769   3.253   2.662   6.339
22176WAT     H166770   3.284   2.708   6.422
22176WAT     H266771   3.199   2.582   6.364
22177WAT      O66772   9.482   2.460   5.428
22177WAT     H166773   9.520   2.548   5.402
22177WAT     H266774   9.384   2.458   5.408
22178WAT      O66775   2.915   9.697   9.086
22178WAT     H166776   2.943   9.734   8.998
22178WAT     H266777   2.967   9.739   9.159
22179WAT      O66778   5.234   9.663   0.093
22179WAT     H166779   5.252   9.758   0.117
22179WAT     H266780   5.225   9.655  -0.007
22180WAT      O66781   7.579   2.793   5.632
22180WAT     H166782   7.510   2.744   5.579
22180WAT     H266783   7.544   2.883   5.659
22181WAT      O66784   4.845   7.149   0.635
22181WAT     H166785   4.869   7.215   0.564
22181WAT     H266786   4.821   7.197   0.719
22182WAT      O66787   9.728   9.799   2.993
22182WAT     H166788   9.762   9.876   2.939
22182WAT     H266789   9.631   9.813   3.014
22183WAT      O66790   3.647   2.059   8.621
22183WAT     H166791   3.705   1.980   8.603
22183WAT     H266792   3.656   2.124   8.546
22184WAT      O66793   9.305   3.528   3.155
22184WAT     H166794   9.356   3.487   3.080
22184WAT     H266795   9.275   3.456   3.218
22185WAT      O66796   0.337   9.107   2.945
22185WAT     H166797   0.367   9.014   2.926
22185WAT     H266798   0.414   9.162   2.977
22186WAT      O66799   1.150   4.741   7.884
22186WAT     H166800   1.248   4.750   7.904
22186WAT     H266801   1.138   4.715   7.789
22187WAT      O66802   5.115   2.711   4.183
22187WAT     H166803   5.173   2.787   4.153
22187WAT     H266804   5.085   2.659   4.103
22188WAT      O66805   4.336   6.706   3.273
22188WAT     H166806   4.287   6.655   3.202
22188WAT     H266807   4.426   6.733   3.239
22189WAT      O66808   3.730   7.319   5.818
22189WAT     H166809   3.796   7.295   5.747
22189WAT     H266810   3.657   7.251   5.821
22190WAT      O66811   8.781   9.751   1.184
22190WAT     H166812   8.826   9.836   1.211
22190WAT     H266813   8.813   9.724   1.094
22191WAT      O66814   6.429   6.890   2.302
22191WAT     H166815   6.404   6.872   2.206
22191WAT     H266816   6.524   6.920   2.306
22192WAT      O66817   8.798   0.620   4.535
22192WAT     H166818   8.747   0.651   4.455
22192WAT     H266819   8.813   0.697   4.597
22193WAT      O66820   8.945   8.904   1.916
22193WAT     H166821   8.952   8.869   1.823
22193WAT     H266822   8.849   8.921   1.939
22194WAT      O66823   2.437   6.969   5.037
22194WAT     H166824   2.415   7.029   4.960
22194WAT     H266825   2.443   7.022   5.121
22195WAT      O66826   1.840   6.355   5.339
22195WAT     H166827   1.881   6.289   5.276
22195WAT     H266828   1.800   6.307   5.417
22196WAT      O66829   9.659   7.131   4.217
22196WAT     H166830   9.720   7.064   4.176
22196WAT     H266831   9.707   7.217   4.230
22197WAT      O66832   6.186   6.152   0.363
22197WAT     H166833   6.250   6.225   0.390
22197WAT     H266834   6.100   6.193   0.334
22198WAT      O66835   1.302   9.780   2.286
22198WAT     H166836   1.370   9.742   2.349
22198WAT     H266837   1.242   9.707   2.253
22199WAT      O66838   4.709   2.725   1.253
22199WAT     H166839   4.763   2.646   1.282
22199WAT     H266840   4.770   2.795   1.216
22200WAT      O66841   2.691   1.168   0.019
22200WAT     H166842   2.760   1.111  -0.026
22200WAT     H266843   2.686   1.144   0.116
22201WAT      O66844   0.743   6.242   2.814
22201WAT     H166845   0.662   6.290   2.848
22201WAT     H266846   0.756   6.157   2.865
22202WAT      O66847   5.829   6.530   1.072
22202WAT     H166848   5.751   6.501   1.017
22202WAT     H266849   5.813   6.505   1.168
22203WAT      O66850   4.733   3.225   8.913
22203WAT     H166851   4.663   3.256   8.848
22203WAT     H266852   4.811   3.287   8.910
22204WAT      O66853   3.533   6.446   6.770
22204WAT     H166854   3.494   6.364   6.727
22204WAT     H266855   3.520   6.440   6.869
22205WAT      O66856   7.319   0.712   7.815
22205WAT     H166857   7.402   0.692   7.867
22205WAT     H266858   7.337   0.700   7.717
22206WAT      O66859   9.211   6.753   6.583
22206WAT     H166860   9.244   6.847   6.591
22206WAT     H266861   9.194   6.732   6.487
22207WAT      O66862   2.377   4.007   1.174
22207WAT     H166863   2.437   3.974   1.247
22207WAT     H266864   2.425   4.078   1.122
22208WAT      O66865   5.057   8.895   2.764
22208WAT     H166866   5.140   8.904   2.710
22208WAT     H266867   5.060   8.810   2.817
22209WAT      O66868   6.145   7.576   3.573
22209WAT     H166869   6.056   7.564   3.617
22209WAT     H266870   6.133   7.616   3.482
22210WAT      O66871   8.091   3.412   1.063
22210WAT     H166872   8.032   3.392   1.141
22210WAT     H266873   8.170   3.350   1.064
22211WAT      O66874   0.397   1.277   5.540
22211WAT     H166875   0.417   1.187   5.501
22211WAT     H266876   0.432   1.348   5.479
22212WAT      O66877   1.112   3.872   4.276
22212WAT     H166878   1.112   3.803   4.348
22212WAT     H266879   1.063   3.837   4.196
22213WAT      O66880   4.869   1.214   0.506
22213WAT     H166881   4.826   1.200   0.417
22213WAT     H266882   4.883   1.312   0.520
22214WAT      O66883   3.616   2.086   5.734
22214WAT     H166884   3.575   2.173   5.706
22214WAT     H266885   3.643   2.091   5.830
22215WAT      O66886   9.642   3.507   6.326
22215WAT     H166887   9.683   3.514   6.417
22215WAT     H266888   9.705   3.542   6.258
22216WAT      O66889   1.933   5.247   5.519
22216WAT     H166890   1.922   5.268   5.422
22216WAT     H266891   1.856   5.193   5.551
22217WAT      O66892   5.316   8.989   8.529
22217WAT     H166893   5.381   9.009   8.602
22217WAT     H266894   5.224   8.979   8.567
22218WAT      O66895   2.109   4.139   6.087
22218WAT     H166896   2.018   4.112   6.119
22218WAT     H266897   2.144   4.214   6.143
22219WAT      O66898   1.307   7.861   3.070
22219WAT     H166899   1.314   7.930   3.141
22219WAT     H266900   1.342   7.898   2.984
22220WAT      O66901   8.133   2.777   8.979
22220WAT     H166902   8.230   2.778   8.953
22220WAT     H266903   8.080   2.740   8.903
22221WAT      O66904   2.930   8.325   4.725
22221WAT     H166905   2.963   8.231   4.737
22221WAT     H266906   2.913   8.365   4.815
22222WAT      O66907   3.690   4.398   3.040
22222WAT     H166908   3.689   4.304   3.076
22222WAT     H266909   3.734   4.399   2.950
22223WAT      O66910   7.985   3.292   4.279
22223WAT     H166911   8.064   3.336   4.236
22223WAT     H266912   7.912   3.360   4.293
22224WAT      O66913   5.631   5.305   1.426
22224WAT     H166914   5.575   5.249   1.487
22224WAT     H266915   5.712   5.254   1.399
22225WAT      O66916   4.483   4.084   7.743
22225WAT     H166917   4.416   4.010   7.735
22225WAT     H266918   4.540   4.085   7.662
22226WAT      O66919   2.206   6.060   7.116
22226WAT     H166920   2.219   6.157   7.095
22226WAT     H266921   2.109   6.037   7.104
22227WAT      O66922   3.623   2.519   8.011
22227WAT     H166923   3.594   2.483   8.100
22227WAT     H266924   3.680   2.452   7.965
22228WAT      O66925   0.635   1.493   7.447
22228WAT     H166926   0.622   1.532   7.539
22228WAT     H266927   0.552   1.442   7.421
22229WAT      O66928   6.677   3.036   7.548
22229WAT     H166929   6.749   3.067   7.485
22229WAT     H266930   6.588   3.071   7.517
22230WAT      O66931   8.610   4.795   5.919
22230WAT     H166932   8.528   4.790   5.976
22230WAT     H266933   8.645   4.888   5.919
22231WAT      O66934   6.181   1.678   3.305
22231WAT     H166935   6.181   1.702   3.208
22231WAT     H266936   6.259   1.618   3.325
22232WAT      O66937   5.122   8.291   9.053
22232WAT     H166938   5.095   8.212   9.107
22232WAT     H266939   5.220   8.309   9.067
22233WAT      O66940   1.402   4.824   7.950
22233WAT     H166941   1.448   4.903   7.911
22233WAT     H266942   1.469   4.753   7.971
22234WAT      O66943   9.586   5.923   5.611
22234WAT     H166944   9.564   5.922   5.708
22234WAT     H266945   9.538   5.999   5.567
22235WAT      O66946   9.600   2.662   6.049
22235WAT     H166947   9.571   2.692   6.140
22235WAT     H266948   9.608   2.562   6.048
22236WAT      O66949   8.986   2.143   2.612
22236WAT     H166950   9.067   2.089   2.590
22236WAT     H266951   9.014   2.235   2.641
22237WAT      O66952   5.562   4.134   1.410
22237WAT     H166953   5.661   4.150   1.408
22237WAT     H266954   5.518   4.207   1.462
22238WAT      O66955   5.452   7.153   4.243
22238WAT     H166956   5.485   7.095   4.169
22238WAT     H266957   5.414   7.238   4.204
22239WAT      O66958   5.158   6.532   0.399
22239WAT     H166959   5.219   6.506   0.324
22239WAT     H266960   5.134   6.450   0.451
22240WAT      O66961   6.895   1.185   8.618
22240WAT     H166962   6.953   1.105   8.629
22240WAT     H266963   6.808   1.170   8.665
22241WAT      O66964   2.193   8.038   3.600
22241WAT     H166965   2.219   7.968   3.534
22241WAT     H266966   2.259   8.113   3.597
22242WAT      O66967   9.323   8.443   9.187
22242WAT     H166968   9.224   8.432   9.192
22242WAT     H266969   9.365   8.355   9.164
22243WAT      O66970   4.427   8.198   9.624
22243WAT     H166971   4.367   8.126   9.658
22243WAT     H266972   4.462   8.251   9.701
22244WAT      O66973   9.104   3.838   8.980
22244WAT     H166974   9.197   3.801   8.974
22244WAT     H266975   9.089   3.875   9.072
22245WAT      O66976   7.644   7.200   3.656
22245WAT     H166977   7.621   7.218   3.752
22245WAT     H266978   7.592   7.121   3.624
22246WAT      O66979   0.616   7.393   6.413
22246WAT     H166980   0.706   7.374   6.451
22246WAT     H266981   0.602   7.492   6.408
22247WAT      O66982   1.720   5.944   8.620
22247WAT     H166983   1.799   5.994   8.587
22247WAT     H266984   1.696   5.872   8.555
22248WAT      O66985   7.499   4.199   5.753
22248WAT     H166986   7.504   4.280   5.812
22248WAT     H266987   7.507   4.117   5.808
22249WAT      O66988   0.424   4.562   6.917
22249WAT     H166989   0.492   4.601   6.979
22249WAT     H266990   0.338   4.612   6.926
22250WAT      O66991   7.554   6.142   1.740
22250WAT     H166992   7.616   6.168   1.666
22250WAT     H266993   7.482   6.083   1.703
22251WAT      O66994   1.215   2.234   4.748
22251WAT     H166995   1.261   2.167   4.690
22251WAT     H266996   1.219   2.204   4.843
22252WAT      O66997   7.110   9.418   5.506
22252WAT     H166998   7.120   9.328   5.464
22252WAT     H266999   7.186   9.476   5.478
22253WAT      O67000   2.961   2.127   7.385
22253WAT     H167001   2.936   2.031   7.371
22253WAT     H267002   2.950   2.150   7.482
22254WAT      O67003   4.472   6.022   0.836
22254WAT     H167004   4.374   6.043   0.833
22254WAT     H267005   4.486   5.930   0.872
22255WAT      O67006   7.504   2.690   0.914
22255WAT     H167007   7.535   2.773   0.961
22255WAT     H267008   7.558   2.678   0.831
22256WAT      O67009   0.859   7.174   6.229
22256WAT     H167010   0.794   7.118   6.280
22256WAT     H267011   0.950   7.168   6.272
22257WAT      O67012   4.504   3.081   3.263
22257WAT     H167013   4.558   3.005   3.300
22257WAT     H267014   4.546   3.168   3.289
22258WAT      O67015   2.422   5.206   5.644
22258WAT     H167016   2.390   5.214   5.738
22258WAT     H267017   2.390   5.120   5.604
22259WAT      O67018   4.912   6.062   5.055
22259WAT     H167019   4.925   6.006   5.137
22259WAT     H267020   4.866   6.147   5.080
22260WAT      O67021   1.419   3.324   3.645
22260WAT     H167022   1.348   3.269   3.601
22260WAT     H267023   1.426   3.298   3.741
22261WAT      O67024   7.109   4.699   5.812
22261WAT     H167025   7.077   4.606   5.833
22261WAT     H267026   7.072   4.728   5.724
22262WAT      O67027   6.616   6.303   0.553
22262WAT     H167028   6.707   6.313   0.593
22262WAT     H267029   6.623   6.249   0.469
22263WAT      O67030   5.555   1.660   1.533
22263WAT     H167031   5.648   1.645   1.564
22263WAT     H267032   5.493   1.600   1.583
22264WAT      O67033   4.507   0.796   2.437
22264WAT     H167034   4.500   0.892   2.465
22264WAT     H267035   4.443   0.779   2.362
22265WAT      O67036   7.535   6.175   7.341
22265WAT     H167037   7.491   6.143   7.426
22265WAT     H267038   7.470   6.167   7.265
22266WAT      O67039   6.475   7.201   5.344
22266WAT     H167040   6.458   7.103   5.332
22266WAT     H267041   6.564   7.225   5.306
22267WAT      O67042   7.365   9.489   5.384
22267WAT     H167043   7.414   9.462   5.301
22267WAT     H267044   7.418   9.557   5.434
22268WAT      O67045   1.267   7.175   7.702
22268WAT     H167046   1.240   7.210   7.612
22268WAT     H267047   1.355   7.214   7.727
22269WAT      O67048   1.233   1.049   9.822
22269WAT     H167049   1.236   1.027   9.725
22269WAT     H267050   1.153   1.006   9.864
22270WAT      O67051   3.160   5.359   2.131
22270WAT     H167052   3.083   5.417   2.159
22270WAT     H267053   3.229   5.360   2.203
22271WAT      O67054   7.744   8.399   0.674
22271WAT     H167055   7.711   8.382   0.767
22271WAT     H267056   7.842   8.378   0.670
22272WAT      O67057   8.828   4.150   8.573
22272WAT     H167058   8.757   4.207   8.531
22272WAT     H267059   8.821   4.157   8.673
22273WAT      O67060   1.922   5.172   4.890
22273WAT     H167061   1.874   5.208   4.810
22273WAT     H267062   1.908   5.234   4.967
22274WAT      O67063   8.211   7.118   9.320
22274WAT     H167064   8.114   7.121   9.296
22274WAT     H267065   8.223   7.064   9.404
22275WAT      O67066   0.232   9.650   4.804
22275WAT     H167067   0.261   9.586   4.875
22275WAT     H267068   0.263   9.618   4.715
22276WAT      O67069   3.334   6.631   0.609
22276WAT     H167070   3.401   6.577   0.558
22276WAT     H267071   3.354   6.627   0.707
22277WAT      O67072   9.787   7.283   6.486
22277WAT     H167073   9.738   7.342   6.421
22277WAT     H267074   9.803   7.334   6.571
22278WAT      O67075   2.669   3.840   4.213
22278WAT     H167076   2.649   3.909   4.143
22278WAT     H267077   2.759   3.857   4.251
22279WAT      O67078   5.891   8.849   7.439
22279WAT     H167079   5.951   8.928   7.449
22279WAT     H267080   5.854   8.824   7.528
22280WAT      O67081   8.729   7.110   6.919
22280WAT     H167082   8.673   7.170   6.862
22280WAT     H267083   8.754   7.028   6.867
22281WAT      O67084   1.596   5.612   4.174
22281WAT     H167085   1.543   5.623   4.258
22281WAT     H267086   1.692   5.595   4.198
22282WAT      O67087   5.523   6.293   7.155
22282WAT     H167088   5.559   6.329   7.241
22282WAT     H267089   5.464   6.215   7.173
22283WAT      O67090   7.799   7.383   1.277
22283WAT     H167091   7.850   7.456   1.231
22283WAT     H267092   7.728   7.349   1.215
22284WAT      O67093   3.663   8.122   7.738
22284WAT     H167094   3.754   8.091   7.711
22284WAT     H267095   3.607   8.136   7.657
22285WAT      O67096   0.174   3.500   4.606
22285WAT     H167097   0.109   3.436   4.647
22285WAT     H267098   0.246   3.449   4.558
22286WAT      O67099   9.219   5.960   5.399
22286WAT     H167100   9.120   5.975   5.395
22286WAT     H267101   9.239   5.891   5.468
22287WAT      O67102   3.136   6.937   0.826
22287WAT     H167103   3.223   6.933   0.876
22287WAT     H267104   3.079   6.859   0.851
22288WAT      O67105   4.970   3.962   7.485
22288WAT     H167106   4.891   4.003   7.532
22288WAT     H267107   4.993   3.876   7.529
22289WAT      O67108   6.124   9.102   5.009
22289WAT     H167109   6.155   9.192   4.978
22289WAT     H267110   6.026   9.105   5.031
22290WAT      O67111   2.652   5.409   0.447
22290WAT     H167112   2.576   5.361   0.492
22290WAT     H267113   2.670   5.495   0.496
22291WAT      O67114   0.135   6.996   2.602
22291WAT     H167115   0.099   7.087   2.579
22291WAT     H267116   0.079   6.926   2.559
22292WAT      O67117   1.688   4.551   9.207
22292WAT     H167118   1.776   4.534   9.163
22292WAT     H267119   1.657   4.469   9.254
22293WAT      O67120   4.518   3.292   7.220
22293WAT     H167121   4.518   3.234   7.139
22293WAT     H267122   4.453   3.367   7.206
22294WAT      O67123   1.637   0.689   9.658
22294WAT     H167124   1.591   0.774   9.631
22294WAT     H267125   1.662   0.638   9.576
22295WAT      O67126   9.699   3.466   0.725
22295WAT     H167127   9.621   3.503   0.675
22295WAT     H267128   9.743   3.395   0.671
22296WAT      O67129   7.365   0.758   9.138
22296WAT     H167130   7.424   0.756   9.058
22296WAT     H267131   7.314   0.672   9.145
22297WAT      O67132   7.293   4.244   4.792
22297WAT     H167133   7.348   4.241   4.876
22297WAT     H267134   7.275   4.338   4.767
22298WAT      O67135   0.593   9.795   3.098
22298WAT     H167136   0.668   9.859   3.085
22298WAT     H267137   0.555   9.770   3.009
22299WAT      O67138   6.514   6.382   5.916
22299WAT     H167139   6.541   6.478   5.912
22299WAT     H267140   6.475   6.361   6.005
22300WAT      O67141   2.069   8.762   6.879
22300WAT     H167142   2.105   8.757   6.972
22300WAT     H267143   2.027   8.851   6.864
22301WAT      O67144   7.428   3.744   1.780
22301WAT     H167145   7.456   3.787   1.694
22301WAT     H267146   7.388   3.814   1.840
22302WAT      O67147   6.975   2.615   2.928
22302WAT     H167148   7.066   2.631   2.967
22302WAT     H267149   6.964   2.671   2.846
22303WAT      O67150   3.087   3.265   8.117
22303WAT     H167151   3.152   3.252   8.193
22303WAT     H267152   3.137   3.267   8.031
22304WAT      O67153   2.818   6.733   3.336
22304WAT     H167154   2.833   6.760   3.431
22304WAT     H267155   2.878   6.786   3.277
22305WAT      O67156   5.400   1.339   5.187
22305WAT     H167157   5.351   1.252   5.188
22305WAT     H267158   5.451   1.347   5.101
22306WAT      O67159   3.677   5.441   8.799
22306WAT     H167160   3.611   5.436   8.873
22306WAT     H267161   3.769   5.424   8.835
22307WAT      O67162   9.015   3.384   2.698
22307WAT     H167163   9.061   3.294   2.700
22307WAT     H267164   9.002   3.412   2.603
22308WAT      O67165   0.332   6.493   2.724
22308WAT     H167166   0.402   6.468   2.792
22308WAT     H267167   0.315   6.415   2.664
22309WAT      O67168   9.422   4.646   6.699
22309WAT     H167169   9.343   4.686   6.746
22309WAT     H267170   9.447   4.560   6.744
22310WAT      O67171   8.568   4.430   5.346
22310WAT     H167172   8.611   4.407   5.433
22310WAT     H267173   8.479   4.385   5.341
22311WAT      O67174   5.194   6.680   6.755
22311WAT     H167175   5.291   6.673   6.730
22311WAT     H267176   5.179   6.764   6.808
22312WAT      O67177   5.494   8.187   1.746
22312WAT     H167178   5.507   8.286   1.748
22312WAT     H267179   5.416   8.162   1.803
22313WAT      O67180   0.296   8.724   0.533
22313WAT     H167181   0.215   8.665   0.542
22313WAT     H267182   0.267   8.820   0.528
22314WAT      O67183   1.217   8.216   7.201
22314WAT     H167184   1.266   8.192   7.284
22314WAT     H267185   1.122   8.185   7.207
22315WAT      O67186   7.322   2.131   9.577
22315WAT     H167187   7.240   2.131   9.520
22315WAT     H267188   7.295   2.130   9.674
22316WAT      O67189   3.799   2.884   4.857
22316WAT     H167190   3.850   2.928   4.930
22316WAT     H267191   3.862   2.850   4.788
22317WAT      O67192   3.222   3.398   8.584
22317WAT     H167193   3.207   3.371   8.679
22317WAT     H267194   3.207   3.496   8.575
22318WAT      O67195   5.146   3.732   5.228
22318WAT     H167196   5.128   3.804   5.295
22318WAT     H267197   5.099   3.754   5.142
22319WAT      O67198   5.120   9.314   2.301
22319WAT     H167199   5.110   9.249   2.376
22319WAT     H267200   5.106   9.267   2.214
22320WAT      O67201   9.401   7.339   3.710
22320WAT     H167202   9.403   7.428   3.665
22320WAT     H267203   9.372   7.269   3.643
22321WAT      O67204   8.372   8.109   0.422
22321WAT     H167205   8.423   8.025   0.443
22321WAT     H267206   8.422   8.188   0.458
22322WAT      O67207   0.304   3.820   3.417
22322WAT     H167208   0.271   3.849   3.506
22322WAT     H267209   0.232   3.768   3.370
22323WAT      O67210   3.039   5.059   0.202
22323WAT     H167211   3.042   4.975   0.256
22323WAT     H267212   2.945   5.085   0.184
22324WAT      O67213   2.177   2.303   3.938
22324WAT     H167214   2.172   2.203   3.938
22324WAT     H267215   2.226   2.334   3.857
22325WAT      O67216   4.425   6.091   3.682
22325WAT     H167217   4.460   6.057   3.770
22325WAT     H267218   4.325   6.091   3.684
22326WAT      O67219   5.146   6.417   0.903
22326WAT     H167220   5.050   6.390   0.913
22326WAT     H267221   5.205   6.337   0.914
22327WAT      O67222   0.209   0.929   1.108
22327WAT     H167223   0.282   0.911   1.042
22327WAT     H267224   0.142   0.991   1.067
22328WAT      O67225   6.199   3.426   5.193
22328WAT     H167226   6.195   3.357   5.120
22328WAT     H267227   6.136   3.401   5.266
22329WAT      O67228   3.708   1.260   5.965
22329WAT     H167229   3.653   1.208   5.901
22329WAT     H267230   3.753   1.197   6.029
22330WAT      O67231   8.220   0.280   2.441
22330WAT     H167232   8.239   0.345   2.367
22330WAT     H267233   8.261   0.192   2.419
22331WAT      O67234   9.515   4.626   1.605
22331WAT     H167235   9.435   4.661   1.557
22331WAT     H267236   9.508   4.650   1.702
22332WAT      O67237   6.073   4.724   5.357
22332WAT     H167238   6.007   4.704   5.285
22332WAT     H267239   6.033   4.790   5.421
22333WAT      O67240   2.778   2.705   3.254
22333WAT     H167241   2.861   2.702   3.309
22333WAT     H267242   2.761   2.615   3.214
22334WAT      O67243   5.767   2.551   4.768
22334WAT     H167244   5.703   2.628   4.770
22334WAT     H267245   5.860   2.585   4.783
22335WAT      O67246   2.960   0.738   6.301
22335WAT     H167247   3.041   0.753   6.357
22335WAT     H267248   2.966   0.793   6.218
22336WAT      O67249   5.896   4.074   3.772
22336WAT     H167250   5.893   4.150   3.707
22336WAT     H267251   5.816   4.016   3.760
22337WAT      O67252   4.933   6.552   5.285
22337WAT     H167253   4.925   6.635   5.341
22337WAT     H267254   5.028   6.520   5.287
22338WAT      O67255   0.496   5.602   9.235
22338WAT     H167256   0.415   5.567   9.188
22338WAT     H267257   0.540   5.527   9.285
22339WAT      O67258   7.020   0.651   8.458
22339WAT     H167259   7.069   0.679   8.376
22339WAT     H267260   7.039   0.555   8.478
22340WAT      O67261   1.638   9.507   6.302
22340WAT     H167262   1.548   9.530   6.265
22340WAT     H267263   1.630   9.424   6.358
22341WAT      O67264   0.969   7.655   6.495
22341WAT     H167265   0.912   7.607   6.428
22341WAT     H267266   0.920   7.736   6.528
22342WAT      O67267   5.339   4.580   1.200
22342WAT     H167268   5.254   4.591   1.252
22342WAT     H267269   5.356   4.663   1.147
22343WAT      O67270   7.581   6.716   7.765
22343WAT     H167271   7.549   6.690   7.673
22343WAT     H267272   7.511   6.770   7.810
22344WAT      O67273   7.095   3.583   3.488
22344WAT     H167274   7.176   3.535   3.520
22344WAT     H267275   7.103   3.680   3.511
22345WAT      O67276   5.539   3.868   6.111
22345WAT     H167277   5.536   3.967   6.125
22345WAT     H267278   5.462   3.840   6.054
22346WAT      O67279   2.373   1.688   1.871
22346WAT     H167280   2.314   1.636   1.933
22346WAT     H267281   2.406   1.628   1.798
22347WAT      O67282   4.410   7.294   8.241
22347WAT     H167283   4.457   7.284   8.329
22347WAT     H267284   4.478   7.298   8.167
22348WAT      O67285   4.862   8.224   6.308
22348WAT     H167286   4.920   8.185   6.237
22348WAT     H267287   4.802   8.152   6.345
22349WAT      O67288   1.175   7.094   8.990
22349WAT     H167289   1.249   7.028   9.006
22349WAT     H267290   1.197   7.150   8.911
22350WAT      O67291   9.840   8.818   3.014
22350WAT     H167292   9.875   8.861   2.931
22350WAT     H267293   9.833   8.886   3.087
22351WAT      O67294   5.306   2.672   0.236
22351WAT     H167295   5.213   2.669   0.199
22351WAT     H267296   5.307   2.634   0.329
22352WAT      O67297   2.926   8.988   4.600
22352WAT     H167298   2.934   8.889   4.591
22352WAT     H267299   2.985   9.033   4.532
22353WAT      O67300   2.917   2.140   5.552
22353WAT     H167301   2.913   2.160   5.650
22353WAT     H267302   2.983   2.200   5.508
22354WAT      O67303   8.773   2.035   7.037
22354WAT     H167304   8.791   1.945   7.000
22354WAT     H267305   8.832   2.103   6.992
22355WAT      O67306   0.634   5.977   5.838
22355WAT     H167307   0.625   5.878   5.828
22355WAT     H267308   0.676   6.015   5.756
22356WAT      O67309   0.518   7.006   6.014
22356WAT     H167310   0.461   7.037   5.938
22356WAT     H267311   0.468   7.016   6.100
22357WAT      O67312   3.290   0.969   1.725
22357WAT     H167313   3.379   1.001   1.693
22357WAT     H267314   3.277   0.874   1.696
22358WAT      O67315   2.591   9.585   8.008
22358WAT     H167316   2.657   9.529   7.959
22358WAT     H267317   2.603   9.572   8.107
22359WAT      O67318   6.660   4.397   3.712
22359WAT     H167319   6.722   4.384   3.789
22359WAT     H267320   6.570   4.362   3.735
22360WAT      O67321   4.691   0.789   7.635
22360WAT     H167322   4.646   0.877   7.619
22360WAT     H267323   4.627   0.726   7.678
22361WAT      O67324   9.636   0.190   8.302
22361WAT     H167325   9.595   0.116   8.357
22361WAT     H267326   9.736   0.183   8.308
22362WAT      O67327   7.775   7.857   2.584
22362WAT     H167328   7.854   7.795   2.587
22362WAT     H267329   7.696   7.809   2.546
22363WAT      O67330   3.262   3.073   7.776
22363WAT     H167331   3.248   3.149   7.840
22363WAT     H267332   3.186   3.070   7.711
22364WAT      O67333   2.145   7.483   8.108
22364WAT     H167334   2.082   7.548   8.064
22364WAT     H267335   2.093   7.424   8.170
22365WAT      O67336   4.868   2.365   9.465
22365WAT     H167337   4.829   2.274   9.479
22365WAT     H267338   4.795   2.429   9.442
22366WAT      O67339   2.341   6.358   1.145
22366WAT     H167340   2.438   6.338   1.155
22366WAT     H267341   2.290   6.273   1.130
22367WAT      O67342   1.049   6.368   1.917
22367WAT     H167343   1.088   6.405   1.833
22367WAT     H267344   0.954   6.340   1.901
22368WAT      O67345   7.772   3.471   3.748
22368WAT     H167346   7.697   3.418   3.709
22368WAT     H267347   7.802   3.430   3.834
22369WAT      O67348   4.543   2.714   8.813
22369WAT     H167349   4.497   2.797   8.844
22369WAT     H267350   4.487   2.668   8.744
22370WAT      O67351   9.090   8.961   0.703
22370WAT     H167352   9.002   8.913   0.695
22370WAT     H267353   9.075   9.051   0.743
22371WAT      O67354   1.419   4.182   7.472
22371WAT     H167355   1.387   4.274   7.452
22371WAT     H267356   1.497   4.186   7.535
22372WAT      O67357   1.790   8.260   2.098
22372WAT     H167358   1.705   8.234   2.053
22372WAT     H267359   1.867   8.213   2.055
22373WAT      O67360   9.493   9.394   5.971
22373WAT     H167361   9.568   9.362   5.913
22373WAT     H267362   9.512   9.486   6.003
22374WAT      O67363   3.822   9.449   9.789
22374WAT     H167364   3.811   9.367   9.846
22374WAT     H267365   3.732   9.481   9.760
22375WAT      O67366   7.528   1.498   3.912
22375WAT     H167367   7.510   1.545   3.999
22375WAT     H267368   7.486   1.407   3.915
22376WAT      O67369   1.684   0.945   2.962
22376WAT     H167370   1.752   1.017   2.948
22376WAT     H267371   1.730   0.857   2.972
22377WAT      O67372   1.845   4.002   3.595
22377WAT     H167373   1.786   4.059   3.538
22377WAT     H267374   1.860   3.914   3.550
22378WAT      O67375   6.700   7.640   0.433
22378WAT     H167376   6.627   7.625   0.499
22378WAT     H267377   6.766   7.705   0.470
22379WAT      O67378   3.253   7.913   0.866
22379WAT     H167379   3.167   7.913   0.814
22379WAT     H267380   3.295   8.003   0.861
22380WAT      O67381   5.921   3.081   5.530
22380WAT     H167382   5.854   3.017   5.492
22380WAT     H267383   6.010   3.067   5.486
22381WAT      O67384   5.891   3.951   0.845
22381WAT     H167385   5.985   3.917   0.848
22381WAT     H267386   5.892   4.051   0.835
22382WAT      O67387   6.355   8.561   5.388
22382WAT     H167388   6.432   8.507   5.352
22382WAT     H267389   6.276   8.502   5.399
22383WAT      O67390   3.066   2.729   5.425
22383WAT     H167391   3.126   2.789   5.371
22383WAT     H267392   2.980   2.715   5.376
22384WAT      O67393   6.083   5.163   6.903
22384WAT     H167394   6.091   5.206   6.813
22384WAT     H267395   6.016   5.212   6.958
22385WAT      O67396   1.847   7.344   9.233
22385WAT     H167397   1.791   7.412   9.186
22385WAT     H267398   1.807   7.254   9.220
22386WAT      O67399   4.081   3.039   7.110
22386WAT     H167400   4.105   3.134   7.129
22386WAT     H267401   4.163   2.989   7.081
22387WAT      O67402   7.998   5.603   3.727
22387WAT     H167403   8.041   5.578   3.814
22387WAT     H267404   7.908   5.559   3.721
22388WAT      O67405   4.185   9.394   9.874
22388WAT     H167406   4.102   9.422   9.923
22388WAT     H267407   4.259   9.458   9.895
22389WAT      O67408   6.814   1.846   3.040
22389WAT     H167409   6.883   1.918   3.025
22389WAT     H267410   6.833   1.769   2.979
22390WAT      O67411   0.651   9.739   4.222
22390WAT     H167412   0.689   9.673   4.286
22390WAT     H267413   0.669   9.832   4.254
22391WAT      O67414   7.292   9.366   0.772
22391WAT     H167415   7.218   9.300   0.786
22391WAT     H267416   7.372   9.339   0.827
22392WAT      O67417   1.864   5.812   3.143
22392WAT     H167418   1.885   5.714   3.137
22392WAT     H267419   1.909   5.851   3.224
22393WAT      O67420   2.777   6.751   1.106
22393WAT     H167421   2.740   6.678   1.049
22393WAT     H267422   2.875   6.738   1.120
22394WAT      O67423   1.799   8.572   4.697
22394WAT     H167424   1.771   8.496   4.638
22394WAT     H267425   1.772   8.554   4.791
22395WAT      O67426   0.597   3.177   9.655
22395WAT     H167427   0.664   3.136   9.716
22395WAT     H267428   0.523   3.217   9.708
22396WAT      O67429   2.439   4.766   8.685
22396WAT     H167430   2.371   4.838   8.685
22396WAT     H267431   2.409   4.690   8.627
22397WAT      O67432   3.929   6.589   6.516
22397WAT     H167433   3.874   6.672   6.500
22397WAT     H267434   3.956   6.586   6.612
22398WAT      O67435   1.757   5.049   8.757
22398WAT     H167436   1.828   5.013   8.696
22398WAT     H267437   1.794   5.056   8.850
22399WAT      O67438   8.258   8.271   1.683
22399WAT     H167439   8.280   8.314   1.770
22399WAT     H267440   8.175   8.215   1.693
22400WAT      O67441   0.041   8.067   0.337
22400WAT     H167442   0.025   8.058   0.238
22400WAT     H267443   0.100   8.145   0.354
22401WAT      O67444   0.257   1.709   6.831
22401WAT     H167445   0.228   1.614   6.825
22401WAT     H267446   0.355   1.715   6.812
22402WAT      O67447   3.894   6.426   3.106
22402WAT     H167448   3.939   6.395   3.023
22402WAT     H267449   3.909   6.359   3.179
22403WAT      O67450   3.321   3.531   4.776
22403WAT     H167451   3.246   3.551   4.713
22403WAT     H267452   3.287   3.474   4.851
22404WAT      O67453   1.897   2.955   5.703
22404WAT     H167454   1.833   2.920   5.635
22404WAT     H267455   1.852   3.024   5.760
22405WAT      O67456   8.314   7.540   6.632
22405WAT     H167457   8.246   7.607   6.662
22405WAT     H267458   8.277   7.448   6.645
22406WAT      O67459   8.640   7.510   2.527
22406WAT     H167460   8.693   7.436   2.568
22406WAT     H267461   8.560   7.472   2.481
22407WAT      O67462   2.280   4.225   3.443
22407WAT     H167463   2.285   4.233   3.344
22407WAT     H267464   2.309   4.312   3.485
22408WAT      O67465   0.843   2.937   9.027
22408WAT     H167466   0.762   2.995   9.040
22408WAT     H267467   0.818   2.841   9.037
22409WAT      O67468   0.224   9.688   7.508
22409WAT     H167469   0.304   9.707   7.450
22409WAT     H267470   0.197   9.593   7.497
22410WAT      O67471   1.864   4.648   5.252
22410WAT     H167472   1.917   4.605   5.326
22410WAT     H267473   1.842   4.742   5.278
22411WAT      O67474   0.549   5.438   0.581
22411WAT     H167475   0.536   5.420   0.483
22411WAT     H267476   0.535   5.353   0.632
22412WAT      O67477   0.645   1.166   6.752
22412WAT     H167478   0.644   1.126   6.660
22412WAT     H267479   0.692   1.254   6.749
22413WAT      O67480   6.036   8.895   0.584
22413WAT     H167481   5.980   8.955   0.641
22413WAT     H267482   6.081   8.949   0.513
22414WAT      O67483   3.922   7.281   5.617
22414WAT     H167484   3.919   7.318   5.524
22414WAT     H267485   3.923   7.181   5.613
22415WAT      O67486   3.695   5.092   3.559
22415WAT     H167487   3.664   5.015   3.615
22415WAT     H267488   3.623   5.161   3.554
22416WAT      O67489   7.666   1.754   8.220
22416WAT     H167490   7.682   1.655   8.216
22416WAT     H267491   7.628   1.785   8.133
22417WAT      O67492   0.318   1.135   7.711
22417WAT     H167493   0.368   1.197   7.772
22417WAT     H267494   0.221   1.160   7.710
22418WAT      O67495   9.377   6.895   9.361
22418WAT     H167496   9.318   6.891   9.280
22418WAT     H267497   9.460   6.842   9.344
22419WAT      O67498   3.552   1.381   7.014
22419WAT     H167499   3.465   1.345   6.981
22419WAT     H267500   3.627   1.328   6.975
22420WAT      O67501   0.040   9.734   1.096
22420WAT     H167502  -0.002   9.662   1.151
22420WAT     H267503  -0.023   9.811   1.088
22421WAT      O67504   3.088   8.656   2.071
22421WAT     H167505   3.112   8.696   1.983
22421WAT     H267506   3.066   8.728   2.136
22422WAT      O67507   2.750   6.127   0.757
22422WAT     H167508   2.829   6.153   0.812
22422WAT     H267509   2.683   6.080   0.814
22423WAT      O67510   7.346   5.750   8.813
22423WAT     H167511   7.397   5.675   8.771
22423WAT     H267512   7.248   5.735   8.801
22424WAT      O67513   1.427   8.596   7.929
22424WAT     H167514   1.328   8.589   7.939
22424WAT     H267515   1.454   8.692   7.936
22425WAT      O67516   3.914   9.703   7.551
22425WAT     H167517   3.941   9.798   7.537
22425WAT     H267518   3.854   9.696   7.630
22426WAT      O67519   7.352   6.432   2.217
22426WAT     H167520   7.386   6.415   2.309
22426WAT     H267521   7.391   6.517   2.181
22427WAT      O67522   0.649   8.509   3.548
22427WAT     H167523   0.647   8.551   3.639
22427WAT     H267524   0.565   8.532   3.499
22428WAT      O67525   2.792   3.870   8.084
22428WAT     H167526   2.864   3.845   8.019
22428WAT     H267527   2.703   3.857   8.041
22429WAT      O67528   3.559   8.152   2.055
22429WAT     H167529   3.546   8.245   2.022
22429WAT     H267530   3.476   8.098   2.035
22430WAT      O67531   4.717   3.357   9.553
22430WAT     H167532   4.678   3.417   9.483
22430WAT     H267533   4.816   3.368   9.555
22431WAT      O67534   4.233   6.398   1.934
22431WAT     H167535   4.189   6.353   2.012
22431WAT     H267536   4.268   6.487   1.962
22432WAT      O67537   7.358   0.972   3.164
22432WAT     H167538   7.392   0.956   3.071
22432WAT     H267539   7.404   1.052   3.203
22433WAT      O67540   5.167   8.347   3.338
22433WAT     H167541   5.204   8.280   3.403
22433WAT     H267542   5.218   8.433   3.347
22434WAT      O67543   1.090   1.603   4.281
22434WAT     H167544   1.144   1.590   4.198
22434WAT     H267545   1.002   1.555   4.271
22435WAT      O67546   2.212   5.220   4.990
22435WAT     H167547   2.275   5.264   4.927
22435WAT     H267548   2.202   5.275   5.072
22436WAT      O67549   6.676   0.547   2.614
22436WAT     H167550   6.620   0.626   2.588
22436WAT     H267551   6.661   0.473   2.549
22437WAT      O67552   3.361   8.263   9.770
22437WAT     H167553   3.311   8.269   9.856
22437WAT     H267554   3.361   8.352   9.725
22438WAT      O67555   6.423   9.799   1.190
22438WAT     H167556   6.337   9.766   1.229
22438WAT     H267557   6.411   9.814   1.092
22439WAT      O67558   1.056   4.919   7.507
22439WAT     H167559   1.015   4.981   7.574
22439WAT     H267560   1.001   4.918   7.424
22440WAT      O67561   1.468   1.535   2.772
22440WAT     H167562   1.528   1.518   2.694
22440WAT     H267563   1.493   1.472   2.847
22441WAT      O67564   1.405   2.348   7.024
22441WAT     H167565   1.341   2.354   6.947
22441WAT     H267566   1.465   2.428   7.023
22442WAT      O67567   0.159   7.314   8.510
22442WAT     H167568   0.209   7.252   8.450
22442WAT     H267569   0.205   7.319   8.599
22443WAT      O67570   1.713   3.448   5.315
22443WAT     H167571   1.662   3.370   5.280
22443WAT     H267572   1.767   3.420   5.395
22444WAT      O67573   0.849   2.732   8.464
22444WAT     H167574   0.803   2.820   8.449
22444WAT     H267575   0.942   2.737   8.428
22445WAT      O67576   4.432   4.995   4.094
22445WAT     H167577   4.517   4.980   4.044
22445WAT     H267578   4.373   4.914   4.086
22446WAT      O67579   1.229   8.906   9.893
22446WAT     H167580   1.297   8.865   9.955
22446WAT     H267581   1.230   8.858   9.806
22447WAT      O67582   8.488   8.081   3.290
22447WAT     H167583   8.408   8.022   3.280
22447WAT     H267584   8.461   8.167   3.334
22448WAT      O67585   1.608   0.157   9.854
22448WAT     H167586   1.697   0.191   9.883
22448WAT     H267587   1.547   0.234   9.836
22449WAT      O67588   9.212   2.877   5.590
22449WAT     H167589   9.302   2.835   5.600
22449WAT     H267590   9.192   2.892   5.493
22450WAT      O67591   2.892   1.610   2.897
22450WAT     H167592   2.981   1.645   2.925
22450WAT     H267593   2.901   1.553   2.816
22451WAT      O67594   9.586   4.861   5.025
22451WAT     H167595   9.654   4.935   5.020
22451WAT     H267596   9.494   4.901   5.031
22452WAT      O67597   6.539   5.269   3.390
22452WAT     H167598   6.623   5.239   3.344
22452WAT     H267599   6.472   5.195   3.390
22453WAT      O67600   1.820   8.155   4.522
22453WAT     H167601   1.750   8.083   4.524
22453WAT     H267602   1.880   8.141   4.443
22454WAT      O67603   0.742   1.442   6.713
22454WAT     H167604   0.784   1.526   6.679
22454WAT     H267605   0.791   1.411   6.795
22455WAT      O67606   9.457   2.516   2.266
22455WAT     H167607   9.434   2.441   2.328
22455WAT     H267608   9.374   2.552   2.224
22456WAT      O67609   8.063   8.905   6.002
22456WAT     H167610   8.034   8.994   6.037
22456WAT     H267611   7.999   8.835   6.032
22457WAT      O67612   5.623   1.445   6.934
22457WAT     H167613   5.598   1.380   6.863
22457WAT     H267614   5.687   1.402   6.998
22458WAT      O67615   3.901   7.668   8.009
22458WAT     H167616   3.834   7.646   8.079
22458WAT     H267617   3.855   7.706   7.929
22459WAT      O67618   2.327   4.140   1.917
22459WAT     H167619   2.417   4.104   1.941
22459WAT     H267620   2.302   4.109   1.825
22460WAT      O67621   9.171   3.542   8.827
22460WAT     H167622   9.122   3.477   8.884
22460WAT     H267623   9.107   3.610   8.791
22461WAT      O67624   7.036   3.201   0.564
22461WAT     H167625   6.997   3.284   0.525
22461WAT     H267626   7.065   3.140   0.490
22462WAT      O67627   4.268   5.091   9.599
22462WAT     H167628   4.266   5.068   9.502
22462WAT     H267629   4.231   5.183   9.613
22463WAT      O67630   9.046   4.334   6.694
22463WAT     H167631   9.108   4.376   6.627
22463WAT     H267632   8.983   4.272   6.648
22464WAT      O67633   1.990   8.689   5.508
22464WAT     H167634   1.955   8.669   5.417
22464WAT     H267635   2.043   8.774   5.506
22465WAT      O67636   3.053   7.320   4.810
22465WAT     H167637   3.022   7.326   4.905
22465WAT     H267638   3.141   7.367   4.801
22466WAT      O67639   8.529   8.393   8.049
22466WAT     H167640   8.454   8.437   8.098
22466WAT     H267641   8.500   8.302   8.018
22467WAT      O67642   1.002   0.049   1.163
22467WAT     H167643   0.949   0.130   1.190
22467WAT     H267644   0.940  -0.023   1.133
22468WAT      O67645   6.408   4.941   3.160
22468WAT     H167646   6.460   4.873   3.212
22468WAT     H267647   6.353   4.895   3.091
22469WAT      O67648   8.711   4.355   7.242
22469WAT     H167649   8.757   4.329   7.157
22469WAT     H267650   8.750   4.301   7.318
22470WAT      O67651   7.617   8.486   9.389
22470WAT     H167652   7.690   8.440   9.338
22470WAT     H267653   7.650   8.574   9.423
22471WAT      O67654   4.383   3.516   0.072
22471WAT     H167655   4.409   3.597   0.124
22471WAT     H267656   4.447   3.503  -0.004
22472WAT      O67657   1.311   5.289   3.582
22472WAT     H167658   1.308   5.384   3.614
22472WAT     H267659   1.221   5.263   3.548
22473WAT      O67660   0.243   0.065   3.456
22473WAT     H167661   0.162   0.008   3.445
22473WAT     H267662   0.316   0.031   3.397
22474WAT      O67663   3.964   1.412   1.712
22474WAT     H167664   3.877   1.448   1.744
22474WAT     H267665   3.990   1.332   1.767
22475WAT      O67666   1.022   4.556   9.344
22475WAT     H167667   0.944   4.543   9.283
22475WAT     H267668   1.102   4.583   9.290
22476WAT      O67669   8.621   7.844   1.420
22476WAT     H167670   8.678   7.921   1.449
22476WAT     H267671   8.525   7.871   1.424
22477WAT      O67672   2.396   7.522   7.263
22477WAT     H167673   2.494   7.516   7.246
22477WAT     H267674   2.379   7.560   7.354
22478WAT      O67675   9.843   6.640   8.694
22478WAT     H167676   9.893   6.636   8.780
22478WAT     H267677   9.777   6.565   8.690
22479WAT      O67678   3.355   8.463   0.986
22479WAT     H167679   3.453   8.473   1.001
22479WAT     H267680   3.327   8.522   0.910
22480WAT      O67681   3.484   8.468   9.197
22480WAT     H167682   3.580   8.478   9.171
22480WAT     H267683   3.432   8.548   9.167
22481WAT      O67684   7.216   6.257   9.629
22481WAT     H167685   7.133   6.228   9.582
22481WAT     H267686   7.283   6.289   9.563
22482WAT      O67687   7.209   7.273   5.391
22482WAT     H167688   7.245   7.361   5.360
22482WAT     H267689   7.111   7.283   5.412
22483WAT      O67690   0.604   0.187   6.684
22483WAT     H167691   0.563   0.105   6.724
22483WAT     H267692   0.532   0.256   6.669
22484WAT      O67693   7.694   7.597   3.973
22484WAT     H167694   7.794   7.600   3.981
22484WAT     H267695   7.668   7.599   3.876
22485WAT      O67696   1.519   0.955   9.633
22485WAT     H167697   1.439   0.964   9.573
22485WAT     H267698   1.506   1.011   9.715
22486WAT      O67699   3.991   3.423   4.521
22486WAT     H167700   3.995   3.405   4.620
22486WAT     H267701   4.004   3.337   4.471
22487WAT      O67702   3.567   1.712   0.414
22487WAT     H167703   3.497   1.680   0.350
22487WAT     H267704   3.556   1.664   0.501
22488WAT      O67705   4.928   7.929   5.683
22488WAT     H167706   4.898   7.834   5.679
22488WAT     H267707   4.906   7.975   5.597
22489WAT      O67708   9.416   1.587   7.056
22489WAT     H167709   9.365   1.503   7.041
22489WAT     H267710   9.511   1.565   7.080
22490WAT      O67711   9.551   2.033   7.840
22490WAT     H167712   9.477   2.038   7.907
22490WAT     H267713   9.546   2.113   7.779
22491WAT      O67714   5.950   2.457   5.960
22491WAT     H167715   5.961   2.372   6.011
22491WAT     H267716   5.912   2.436   5.869
22492WAT      O67717   4.178   5.039   4.261
22492WAT     H167718   4.211   5.112   4.322
22492WAT     H267719   4.253   4.974   4.244
22493WAT      O67720   0.079   4.998   7.408
22493WAT     H167721   0.080   4.904   7.374
22493WAT     H267722   0.002   5.048   7.369
22494WAT      O67723   0.090   7.310   3.234
22494WAT     H167724   0.004   7.313   3.285
22494WAT     H267725   0.166   7.301   3.298
22495WAT      O67726   3.512   4.258   7.712
22495WAT     H167727   3.610   4.277   7.719
22495WAT     H267728   3.472   4.315   7.640
22496WAT      O67729   8.682   0.652   9.409
22496WAT     H167730   8.754   0.721   9.399
22496WAT     H267731   8.664   0.637   9.507
22497WAT      O67732   8.363   6.634   4.179
22497WAT     H167733   8.444   6.626   4.122
22497WAT     H267734   8.311   6.715   4.151
22498WAT      O67735   8.298   0.019   1.343
22498WAT     H167736   8.383   0.012   1.290
22498WAT     H267737   8.272   0.115   1.350
22499WAT      O67738   4.964   7.070   3.470
22499WAT     H167739   4.914   7.073   3.383
22499WAT     H267740   4.901   7.087   3.545
22500WAT      O67741   9.462   0.648   3.677
22500WAT     H167742   9.393   0.680   3.741
22500WAT     H267743   9.456   0.701   3.592
22501WAT      O67744   9.638   7.418   9.109
22501WAT     H167745   9.564   7.385   9.167
22501WAT     H267746   9.622   7.390   9.015
22502WAT      O67747   2.156   5.261   4.548
22502WAT     H167748   2.138   5.254   4.450
22502WAT     H267749   2.074   5.295   4.594
22503WAT      O67750   5.811   6.366   4.839
22503WAT     H167751   5.871   6.443   4.819
22503WAT     H267752   5.718   6.399   4.854
22504WAT      O67753   5.142   7.096   7.785
22504WAT     H167754   5.150   7.158   7.707
22504WAT     H267755   5.169   7.143   7.868
22505WAT      O67756   6.576   3.987   2.667
22505WAT     H167757   6.487   3.941   2.673
22505WAT     H267758   6.596   4.008   2.571
22506WAT      O67759   9.455   6.078   2.629
22506WAT     H167760   9.450   6.022   2.546
22506WAT     H267761   9.390   6.154   2.621
22507WAT      O67762   4.875   5.617   4.170
22507WAT     H167763   4.798   5.600   4.108
22507WAT     H267764   4.902   5.714   4.164
22508WAT      O67765   7.248   2.782   2.667
22508WAT     H167766   7.266   2.805   2.571
22508WAT     H267767   7.323   2.814   2.724
22509WAT      O67768   8.815   6.775   9.784
22509WAT     H167769   8.893   6.718   9.758
22509WAT     H267770   8.848   6.858   9.829
22510WAT      O67771   0.760   4.185   3.229
22510WAT     H167772   0.758   4.119   3.304
22510WAT     H267773   0.666   4.205   3.201
22511WAT      O67774   4.088   6.476   4.479
22511WAT     H167775   4.140   6.414   4.539
22511WAT     H267776   4.112   6.570   4.501
22512WAT      O67777   1.943   5.700   8.742
22512WAT     H167778   1.940   5.723   8.645
22512WAT     H267779   2.037   5.703   8.775
22513WAT      O67780   4.680   0.503   2.939
22513WAT     H167781   4.657   0.577   3.002
22513WAT     H267782   4.672   0.537   2.845
22514WAT      O67783   0.499   6.543   7.149
22514WAT     H167784   0.575   6.596   7.187
22514WAT     H267785   0.527   6.501   7.063
22515WAT      O67786   7.453   8.661   8.671
22515WAT     H167787   7.459   8.611   8.758
22515WAT     H267788   7.504   8.611   8.601
22516WAT      O67789   6.050   1.407   7.915
22516WAT     H167790   6.092   1.498   7.911
22516WAT     H267791   6.110   1.345   7.966
22517WAT      O67792   3.368   8.813   7.767
22517WAT     H167793   3.315   8.878   7.714
22517WAT     H267794   3.388   8.852   7.858
22518WAT      O67795   0.693   2.251   0.500
22518WAT     H167796   0.765   2.278   0.436
22518WAT     H267797   0.622   2.320   0.501
22519WAT      O67798   8.709   5.351   4.770
22519WAT     H167799   8.691   5.446   4.745
22519WAT     H267800   8.623   5.299   4.771
22520WAT      O67801   6.273   8.274   2.669
22520WAT     H167802   6.227   8.224   2.742
22520WAT     H267803   6.243   8.370   2.670
22521WAT      O67804   0.281   3.911   9.173
22521WAT     H167805   0.349   3.939   9.240
22521WAT     H267806   0.271   3.811   9.175
22522WAT      O67807   0.938   1.858   0.096
22522WAT     H167808   0.928   1.833  -0.001
22522WAT     H267809   0.891   1.945   0.112
22523WAT      O67810   1.444   5.580   3.652
22523WAT     H167811   1.463   5.532   3.738
22523WAT     H267812   1.458   5.678   3.666
22524WAT      O67813   3.926   4.437   8.184
22524WAT     H167814   3.943   4.475   8.093
22524WAT     H267815   3.991   4.364   8.203
22525WAT      O67816   4.148   2.647   1.731
22525WAT     H167817   4.070   2.709   1.731
22525WAT     H267818   4.119   2.557   1.761
22526WAT      O67819   5.299   5.402   3.874
22526WAT     H167820   5.270   5.465   3.802
22526WAT     H267821   5.251   5.423   3.959
22527WAT      O67822   5.524   4.169   8.209
22527WAT     H167823   5.598   4.121   8.162
22527WAT     H267824   5.553   4.263   8.230
22528WAT      O67825   7.476   2.873   2.364
22528WAT     H167826   7.552   2.827   2.411
22528WAT     H267827   7.508   2.960   2.326
22529WAT      O67828   5.662   6.427   2.142
22529WAT     H167829   5.619   6.478   2.216
22529WAT     H267830   5.631   6.332   2.145
22530WAT      O67831   4.271   8.090   2.506
22530WAT     H167832   4.172   8.095   2.524
22530WAT     H267833   4.290   8.012   2.446
22531WAT      O67834   4.442   1.611   5.104
22531WAT     H167835   4.360   1.572   5.061
22531WAT     H267836   4.494   1.538   5.148
22532WAT      O67837   6.399   4.593   3.545
22532WAT     H167838   6.304   4.624   3.553
22532WAT     H267839   6.418   4.525   3.616
22533WAT      O67840   7.388   6.133   6.550
22533WAT     H167841   7.466   6.195   6.554
22533WAT     H267842   7.417   6.046   6.510
22534WAT      O67843   1.480   6.617   4.003
22534WAT     H167844   1.487   6.518   3.996
22534WAT     H267845   1.445   6.654   3.917
22535WAT      O67846   0.508   5.865   4.155
22535WAT     H167847   0.596   5.827   4.127
22535WAT     H267848   0.508   5.964   4.142
22536WAT      O67849   9.838   1.751   6.206
22536WAT     H167850   9.866   1.708   6.292
22536WAT     H267851   9.913   1.747   6.140
22537WAT      O67852   1.108   7.899   1.500
22537WAT     H167853   1.045   7.957   1.551
22537WAT     H267854   1.091   7.909   1.402
22538WAT      O67855   9.580   9.211   7.574
22538WAT     H167856   9.605   9.150   7.499
22538WAT     H267857   9.624   9.300   7.561
22539WAT      O67858   4.065   0.316   7.811
22539WAT     H167859   4.108   0.367   7.886
22539WAT     H267860   4.080   0.218   7.824
22540WAT      O67861   4.070   8.148   6.902
22540WAT     H167862   4.016   8.221   6.944
22540WAT     H267863   4.043   8.138   6.806
22541WAT      O67864   1.961   4.915   5.858
22541WAT     H167865   1.902   4.960   5.791
22541WAT     H267866   2.047   4.964   5.865
22542WAT      O67867   4.866   4.757   2.584
22542WAT     H167868   4.867   4.839   2.527
22542WAT     H267869   4.883   4.782   2.680
22543WAT      O67870   1.403   1.976   0.617
22543WAT     H167871   1.379   1.945   0.525
22543WAT     H267872   1.341   2.049   0.645
22544WAT      O67873   7.706   0.266   6.490
22544WAT     H167874   7.797   0.246   6.453
22544WAT     H267875   7.649   0.185   6.484
22545WAT      O67876   7.917   8.981   4.144
22545WAT     H167877   7.996   8.941   4.099
22545WAT     H267878   7.842   8.915   4.147
22546WAT      O67879   3.036   5.072   8.559
22546WAT     H167880   3.087   5.126   8.493
22546WAT     H267881   2.939   5.073   8.535
22547WAT      O67882   6.888   5.892   8.047
22547WAT     H167883   6.866   5.903   8.143
22547WAT     H267884   6.819   5.833   8.003
22548WAT      O67885   8.086   0.385   4.901
22548WAT     H167886   8.036   0.348   4.822
22548WAT     H267887   8.021   0.417   4.969
22549WAT      O67888   4.020   2.525   2.798
22549WAT     H167889   4.107   2.574   2.806
22549WAT     H267890   3.951   2.586   2.757
22550WAT      O67891   0.549   9.536   0.450
22550WAT     H167892   0.600   9.452   0.465
22550WAT     H267893   0.464   9.516   0.400
22551WAT      O67894   2.015   1.304   4.127
22551WAT     H167895   1.987   1.316   4.032
22551WAT     H267896   1.938   1.274   4.182
22552WAT      O67897   4.084   1.165   1.770
22552WAT     H167898   4.067   1.211   1.857
22552WAT     H267899   4.181   1.147   1.760
22553WAT      O67900   4.613   6.855   2.132
22553WAT     H167901   4.519   6.836   2.160
22553WAT     H267902   4.672   6.859   2.212
22554WAT      O67903   9.597   1.416   8.539
22554WAT     H167904   9.609   1.513   8.516
22554WAT     H267905   9.662   1.361   8.486
22555WAT      O67906   9.429   4.856   4.279
22555WAT     H167907   9.331   4.863   4.299
22555WAT     H267908   9.443   4.800   4.197
22556WAT      O67909   9.644   1.709   4.371
22556WAT     H167910   9.649   1.786   4.308
22556WAT     H267911   9.731   1.660   4.371
22557WAT      O67912   7.225   8.544   9.369
22557WAT     H167913   7.148   8.598   9.334
22557WAT     H267914   7.197   8.496   9.452
22558WAT      O67915   9.279   0.067   8.215
22558WAT     H167916   9.295   0.097   8.309
22558WAT     H267917   9.300  -0.030   8.206
22559WAT      O67918   9.392   1.941   7.230
22559WAT     H167919   9.401   1.916   7.326
22559WAT     H267920   9.483   1.947   7.188
22560WAT      O67921   0.179   9.520   1.443
22560WAT     H167922   0.270   9.524   1.403
22560WAT     H267923   0.179   9.566   1.532
22561WAT      O67924   5.121   4.458   8.784
22561WAT     H167925   5.145   4.467   8.687
22561WAT     H267926   5.022   4.468   8.795
22562WAT      O67927   0.003   9.805   4.770
22562WAT     H167928  -0.019   9.829   4.675
22562WAT     H267929   0.093   9.762   4.773
22563WAT      O67930   8.910   6.306   6.030
22563WAT     H167931   8.923   6.297   5.932
22563WAT     H267932   8.961   6.234   6.077
22564WAT      O67933   6.697   5.909   0.726
22564WAT     H167934   6.783   5.950   0.756
22564WAT     H267935   6.708   5.809   0.720
22565WAT      O67936   7.080   7.361   2.128
22565WAT     H167937   7.144   7.349   2.052
22565WAT     H267938   7.028   7.277   2.141
22566WAT      O67939   1.512   9.635   2.456
22566WAT     H167940   1.594   9.666   2.505
22566WAT     H267941   1.499   9.537   2.471
22567WAT      O67942   1.936   0.242   1.178
22567WAT     H167943   1.847   0.201   1.198
22567WAT     H267944   1.931   0.341   1.189
22568WAT      O67945   8.289   8.381   7.060
22568WAT     H167946   8.363   8.444   7.081
22568WAT     H267947   8.261   8.393   6.964
22569WAT      O67948   6.300   8.828   7.185
22569WAT     H167949   6.314   8.739   7.229
22569WAT     H267950   6.210   8.863   7.210
22570WAT      O67951   5.513   6.838   4.965
22570WAT     H167952   5.586   6.783   5.005
22570WAT     H267953   5.429   6.826   5.018
22571WAT      O67954   3.151   9.512   1.768
22571WAT     H167955   3.242   9.518   1.807
22571WAT     H267956   3.152   9.545   1.674
22572WAT      O67957   0.456   0.615   1.132
22572WAT     H167958   0.528   0.684   1.136
22572WAT     H267959   0.427   0.603   1.037
22573WAT      O67960   4.684   9.503   7.516
22573WAT     H167961   4.744   9.483   7.439
22573WAT     H267962   4.638   9.419   7.546
22574WAT      O67963   8.586   7.252   0.590
22574WAT     H167964   8.510   7.314   0.604
22574WAT     H267965   8.602   7.198   0.673
22575WAT      O67966   6.836   6.563   8.810
22575WAT     H167967   6.854   6.645   8.756
22575WAT     H267968   6.887   6.486   8.772
22576WAT      O67969   4.063   7.209   2.758
22576WAT     H167970   4.150   7.233   2.802
22576WAT     H267971   3.988   7.231   2.820
22577WAT      O67972   4.327   1.678   3.682
22577WAT     H167973   4.295   1.618   3.756
22577WAT     H267974   4.265   1.670   3.604
22578WAT      O67975   1.375   7.072   1.913
22578WAT     H167976   1.387   6.974   1.899
22578WAT     H267977   1.427   7.122   1.845
22579WAT      O67978   9.066   7.024   4.675
22579WAT     H167979   9.076   7.101   4.612
22579WAT     H267980   9.157   6.991   4.700
22580WAT      O67981   3.250   3.244   0.371
22580WAT     H167982   3.209   3.167   0.321
22580WAT     H267983   3.329   3.278   0.320
22581WAT      O67984   9.100   1.524   6.234
22581WAT     H167985   9.019   1.580   6.219
22581WAT     H267986   9.181   1.573   6.201
22582WAT      O67987   2.215   8.939   7.470
22582WAT     H167988   2.124   8.944   7.513
22582WAT     H267989   2.277   8.887   7.529
22583WAT      O67990   2.610   1.334   7.981
22583WAT     H167991   2.514   1.321   7.957
22583WAT     H267992   2.667   1.272   7.926
22584WAT      O67993   0.229   8.590   6.181
22584WAT     H167994   0.212   8.530   6.259
22584WAT     H267995   0.142   8.614   6.138
22585WAT      O67996   7.351   6.291   0.453
22585WAT     H167997   7.355   6.240   0.367
22585WAT     H267998   7.376   6.231   0.528
22586WAT      O67999   3.908   5.717   7.811
22586WAT     H168000   3.836   5.742   7.746
22586WAT     H268001   3.967   5.796   7.828
22587WAT      O68002   7.876   1.141   1.881
22587WAT     H168003   7.795   1.199   1.885
22587WAT     H268004   7.880   1.095   1.793
22588WAT      O68005   6.482   8.407   1.082
22588WAT     H168006   6.508   8.465   1.005
22588WAT     H268007   6.487   8.459   1.167
22589WAT      O68008   5.065   0.439   0.928
22589WAT     H168009   5.058   0.484   0.839
22589WAT     H268010   4.996   0.368   0.935
22590WAT      O68011   7.663   5.501   2.306
22590WAT     H168012   7.652   5.556   2.223
22590WAT     H268013   7.573   5.476   2.341
22591WAT      O68014   2.794   3.966   2.224
22591WAT     H168015   2.854   3.887   2.216
22591WAT     H268016   2.698   3.937   2.214
22592WAT      O68017   4.444   3.114   4.388
22592WAT     H168018   4.367   3.063   4.348
22592WAT     H268019   4.496   3.053   4.448
22593WAT      O68020   3.971   9.338   7.966
22593WAT     H168021   4.052   9.370   8.016
22593WAT     H268022   3.995   9.258   7.912
22594WAT      O68023   8.725   3.584   2.327
22594WAT     H168024   8.747   3.508   2.266
22594WAT     H268025   8.625   3.589   2.338
22595WAT      O68026   8.514   6.839   3.655
22595WAT     H168027   8.549   6.754   3.617
22595WAT     H268028   8.418   6.827   3.682
22596WAT      O68029   5.389   1.891   6.492
22596WAT     H168030   5.308   1.902   6.434
22596WAT     H268031   5.456   1.835   6.444
22597WAT      O68032   5.857   8.590   6.135
22597WAT     H168033   5.769   8.638   6.140
22597WAT     H268034   5.856   8.511   6.196
22598WAT      O68035   2.276   5.816   8.570
22598WAT     H168036   2.249   5.875   8.494
22598WAT     H268037   2.375   5.805   8.570
22599WAT      O68038   9.844   3.826   9.861
22599WAT     H168039   9.921   3.890   9.860
22599WAT     H268040   9.876   3.735   9.833
22600WAT      O68041   1.524   4.660   4.907
22600WAT     H168042   1.610   4.608   4.902
22600WAT     H268043   1.542   4.756   4.888
22601WAT      O68044   1.481   4.000   0.376
22601WAT     H168045   1.504   3.905   0.353
22601WAT     H268046   1.432   4.041   0.300
22602WAT      O68047   7.755   4.913   7.191
22602WAT     H168048   7.733   5.001   7.150
22602WAT     H268049   7.728   4.914   7.287
22603WAT      O68050   7.766   2.722   0.068
22603WAT     H168051   7.742   2.662   0.143
22603WAT     H268052   7.706   2.802   0.069
22604WAT      O68053   5.942   3.336   9.440
22604WAT     H168054   5.859   3.281   9.452
22604WAT     H268055   5.989   3.345   9.528
22605WAT      O68056   5.583   1.630   6.595
22605WAT     H168057   5.570   1.670   6.504
22605WAT     H268058   5.503   1.575   6.619
22606WAT      O68059   0.188   7.188   5.881
22606WAT     H168060   0.131   7.186   5.964
22606WAT     H268061   0.182   7.278   5.838
22607WAT      O68062   0.399   4.766   1.294
22607WAT     H168063   0.486   4.754   1.246
22607WAT     H268064   0.327   4.785   1.228
22608WAT      O68065   2.682   8.839   3.060
22608WAT     H168066   2.644   8.922   3.020
22608WAT     H268067   2.612   8.790   3.111
22609WAT      O68068   8.215   2.243   9.370
22609WAT     H168069   8.230   2.276   9.463
22609WAT     H268070   8.136   2.181   9.370
22610WAT      O68071   5.850   9.167   7.421
22610WAT     H168072   5.945   9.156   7.394
22610WAT     H268073   5.805   9.233   7.360
22611WAT      O68074   8.253   1.328   1.361
22611WAT     H168075   8.259   1.304   1.458
22611WAT     H268076   8.229   1.424   1.352
22612WAT      O68077   4.022   8.382   5.720
22612WAT     H168078   4.038   8.338   5.809
22612WAT     H268079   3.964   8.462   5.732
22613WAT      O68080   1.490   5.319   1.962
22613WAT     H168081   1.444   5.386   2.021
22613WAT     H268082   1.589   5.334   1.966
22614WAT      O68083   4.087   5.291   3.719
22614WAT     H168084   4.064   5.251   3.808
22614WAT     H268085   4.187   5.292   3.708
22615WAT      O68086   5.153   6.902   2.762
22615WAT     H168087   5.189   6.897   2.669
22615WAT     H268088   5.054   6.885   2.760
22616WAT      O68089   3.972   4.038   9.109
22616WAT     H168090   3.908   4.036   9.032
22616WAT     H268091   4.057   4.080   9.080
22617WAT      O68092   7.418   1.392   5.612
22617WAT     H168093   7.357   1.375   5.689
22617WAT     H268094   7.512   1.399   5.646
22618WAT      O68095   0.376   6.326   2.478
22618WAT     H168096   0.367   6.263   2.401
22618WAT     H268097   0.472   6.345   2.495
22619WAT      O68098   0.767   5.784   7.136
22619WAT     H168099   0.698   5.808   7.203
22619WAT     H268100   0.858   5.803   7.173
22620WAT      O68101   6.399   6.588   3.968
22620WAT     H168102   6.402   6.688   3.974
22620WAT     H268103   6.360   6.561   3.880
22621WAT      O68104   2.604   5.565   2.727
22621WAT     H168105   2.530   5.547   2.661
22621WAT     H268106   2.680   5.610   2.680
22622WAT      O68107   7.055   1.378   8.737
22622WAT     H168108   7.001   1.336   8.664
22622WAT     H268109   7.028   1.339   8.825
22623WAT      O68110   0.920   8.173   8.210
22623WAT     H168111   1.005   8.220   8.188
22623WAT     H268112   0.939   8.076   8.228
22624WAT      O68113   7.283   6.483   7.471
22624WAT     H168114   7.374   6.444   7.457
22624WAT     H268115   7.286   6.582   7.458
22625WAT      O68116   5.998   2.033   0.650
22625WAT     H168117   5.986   1.955   0.712
22625WAT     H268118   6.063   2.008   0.578
22626WAT      O68119   9.673   1.019   4.234
22626WAT     H168120   9.741   1.032   4.305
22626WAT     H268121   9.585   0.994   4.275
22627WAT      O68122   8.858   2.910   9.266
22627WAT     H168123   8.905   2.882   9.183
22627WAT     H268124   8.773   2.857   9.275
22628WAT      O68125   6.328   0.144   4.871
22628WAT     H168126   6.257   0.214   4.861
22628WAT     H268127   6.377   0.135   4.785
22629WAT      O68128   6.013   4.279   6.453
22629WAT     H168129   5.992   4.231   6.538
22629WAT     H268130   5.939   4.266   6.388
22630WAT      O68131   6.786   7.702   1.424
22630WAT     H168132   6.723   7.629   1.395
22630WAT     H268133   6.837   7.734   1.345
22631WAT      O68134   7.314   6.245   6.116
22631WAT     H168135   7.341   6.341   6.130
22631WAT     H268136   7.214   6.240   6.106
22632WAT      O68137   8.899   4.386   5.435
22632WAT     H168138   8.873   4.472   5.391
22632WAT     H268139   8.827   4.359   5.500
22633WAT      O68140   1.164   6.848   1.477
22633WAT     H168141   1.234   6.869   1.409
22633WAT     H268142   1.088   6.799   1.433
22634WAT      O68143   7.220   3.887   5.108
22634WAT     H168144   7.300   3.849   5.060
22634WAT     H268145   7.251   3.931   5.193
22635WAT      O68146   1.077   7.930   7.410
22635WAT     H168147   1.111   7.913   7.318
22635WAT     H268148   0.986   7.889   7.420
22636WAT      O68149   9.173   6.152   1.401
22636WAT     H168150   9.196   6.141   1.305
22636WAT     H268151   9.076   6.131   1.415
22637WAT      O68152   3.301   9.602   7.480
22637WAT     H168153   3.331   9.616   7.574
22637WAT     H268154   3.285   9.690   7.436
22638WAT      O68155   7.383   8.285   8.178
22638WAT     H168156   7.442   8.352   8.223
22638WAT     H268157   7.292   8.286   8.221
22639WAT      O68158   1.177   5.837   9.366
22639WAT     H168159   1.206   5.855   9.460
22639WAT     H268160   1.238   5.885   9.303
22640WAT      O68161   6.400   2.539   4.278
22640WAT     H168162   6.449   2.614   4.234
22640WAT     H268163   6.307   2.569   4.300
22641WAT      O68164   7.693   6.536   9.023
22641WAT     H168165   7.634   6.594   8.967
22641WAT     H268166   7.640   6.461   9.061
22642WAT      O68167   9.651   8.751   4.274
22642WAT     H168168   9.685   8.744   4.180
22642WAT     H268169   9.594   8.832   4.283
22643WAT      O68170   2.170   8.070   9.856
22643WAT     H168171   2.166   7.981   9.809
22643WAT     H268172   2.172   8.056   9.955
22644WAT      O68173   0.736   5.494   1.645
22644WAT     H168174   0.679   5.519   1.567
22644WAT     H268175   0.679   5.451   1.715
22645WAT      O68176   5.088   6.215   7.710
22645WAT     H168177   5.037   6.234   7.626
22645WAT     H268178   5.029   6.226   7.789
22646WAT      O68179   7.480   8.151   3.357
22646WAT     H168180   7.484   8.237   3.305
22646WAT     H268181   7.411   8.159   3.429
22647WAT      O68182   9.321   3.860   7.355
22647WAT     H168183   9.392   3.920   7.392
22647WAT     H268184   9.262   3.828   7.430
22648WAT      O68185   6.910   4.194   2.070
22648WAT     H168186   6.944   4.249   2.146
22648WAT     H268187   6.813   4.214   2.056
22649WAT      O68188   8.253   2.152   2.028
22649WAT     H168189   8.329   2.162   2.091
22649WAT     H268190   8.216   2.059   2.033
22650WAT      O68191   5.105   6.018   4.878
22650WAT     H168192   5.043   6.012   4.956
22650WAT     H268193   5.179   6.083   4.899
22651WAT      O68194   2.654   4.012   8.973
22651WAT     H168195   2.595   3.996   8.894
22651WAT     H268196   2.750   4.006   8.944
22652WAT      O68197   2.954   0.562   9.874
22652WAT     H168198   2.973   0.634   9.941
22652WAT     H268199   2.866   0.579   9.831
22653WAT      O68200   1.935   0.536   2.525
22653WAT     H168201   1.997   0.509   2.451
22653WAT     H268202   1.865   0.465   2.537
22654WAT      O68203   5.431   7.615   3.536
22654WAT     H168204   5.372   7.564   3.599
22654WAT     H268205   5.377   7.687   3.492
22655WAT      O68206   0.176   8.579   2.223
22655WAT     H168207   0.266   8.535   2.223
22655WAT     H268208   0.158   8.618   2.314
22656WAT      O68209   0.426   0.561   0.600
22656WAT     H168210   0.362   0.637   0.583
22656WAT     H268211   0.396   0.481   0.548
22657WAT      O68212   5.694   6.767   5.983
22657WAT     H168213   5.698   6.798   6.078
22657WAT     H268214   5.680   6.845   5.923
22658WAT      O68215   8.150   1.190   8.791
22658WAT     H168216   8.101   1.123   8.846
22658WAT     H268217   8.183   1.264   8.851
22659WAT      O68218   0.289   2.822   8.640
22659WAT     H168219   0.282   2.840   8.541
22659WAT     H268220   0.308   2.908   8.688
22660WAT      O68221   9.533   6.802   5.859
22660WAT     H168222   9.566   6.793   5.765
22660WAT     H268223   9.552   6.718   5.909
22661WAT      O68224   5.154   6.122   0.403
22661WAT     H168225   5.152   6.203   0.462
22661WAT     H268226   5.091   6.053   0.439
22662WAT      O68227   1.672   8.819   3.771
22662WAT     H168228   1.760   8.867   3.767
22662WAT     H268229   1.685   8.723   3.747
22663WAT      O68230   1.614   3.501   2.931
22663WAT     H168231   1.678   3.491   3.007
22663WAT     H268232   1.665   3.515   2.846
22664WAT      O68233   9.767   9.528   3.549
22664WAT     H168234   9.827   9.449   3.561
22664WAT     H268235   9.743   9.565   3.639
22665WAT      O68236   1.508   8.873   7.797
22665WAT     H168237   1.572   8.800   7.773
22665WAT     H268238   1.443   8.887   7.722
22666WAT      O68239   3.192   4.052   1.442
22666WAT     H168240   3.193   4.037   1.541
22666WAT     H268241   3.114   4.109   1.417
22667WAT      O68242   3.790   5.609   0.595
22667WAT     H168243   3.851   5.545   0.548
22667WAT     H268244   3.790   5.697   0.548
22668WAT      O68245   4.298   6.402   9.153
22668WAT     H168246   4.362   6.345   9.204
22668WAT     H268247   4.209   6.402   9.200
22669WAT      O68248   7.609   2.106   9.183
22669WAT     H168249   7.683   2.052   9.143
22669WAT     H268250   7.534   2.113   9.117
22670WAT      O68251   9.873   6.160   0.842
22670WAT     H168252   9.837   6.126   0.929
22670WAT     H268253   9.972   6.169   0.849
22671WAT      O68254   5.273   1.926   0.238
22671WAT     H168255   5.178   1.893   0.239
22671WAT     H268256   5.293   1.972   0.324
22672WAT      O68257   6.830   3.343   0.144
22672WAT     H168258   6.906   3.375   0.087
22672WAT     H268259   6.756   3.409   0.141
22673WAT      O68260   4.305   5.297   1.325
22673WAT     H168261   4.279   5.275   1.231
22673WAT     H268262   4.324   5.213   1.375
22674WAT      O68263   3.586   3.029   0.084
22674WAT     H168264   3.680   2.998   0.096
22674WAT     H268265   3.527   2.987   0.153
22675WAT      O68266   3.287   1.294   6.890
22675WAT     H168267   3.198   1.248   6.889
22675WAT     H268268   3.275   1.390   6.864
22676WAT      O68269   8.518   3.402   1.028
22676WAT     H168270   8.543   3.415   1.124
22676WAT     H268271   8.601   3.391   0.974
22677WAT      O68272   4.708   2.152   8.486
22677WAT     H168273   4.793   2.135   8.436
22677WAT     H268274   4.633   2.162   8.420
22678WAT      O68275   6.024   3.557   8.484
22678WAT     H168276   6.043   3.514   8.395
22678WAT     H268277   6.023   3.486   8.555
22679WAT      O68278   1.301   9.086   1.929
22679WAT     H168279   1.209   9.116   1.905
22679WAT     H268280   1.365   9.162   1.916
22680WAT      O68281   6.879   7.098   0.371
22680WAT     H168282   6.859   7.184   0.418
22680WAT     H268283   6.955   7.053   0.417
22681WAT      O68284   4.409   5.723   2.147
22681WAT     H168285   4.473   5.658   2.105
22681WAT     H268286   4.328   5.732   2.090
22682WAT      O68287   9.181   2.777   0.303
22682WAT     H168288   9.166   2.867   0.343
22682WAT     H268289   9.170   2.707   0.374
22683WAT      O68290   0.683   8.228   6.988
22683WAT     H168291   0.639   8.146   7.025
22683WAT     H268292   0.733   8.275   7.061
22684WAT      O68293   4.172   1.958   3.447
22684WAT     H168294   4.088   1.955   3.392
22684WAT     H268295   4.220   1.871   3.439
22685WAT      O68296   7.413   0.560   6.875
22685WAT     H168297   7.426   0.633   6.809
22685WAT     H268298   7.385   0.599   6.963
22686WAT      O68299   4.212   1.605   2.539
22686WAT     H168300   4.237   1.603   2.636
22686WAT     H268301   4.182   1.697   2.515
22687WAT      O68302   1.148   9.229   9.154
22687WAT     H168303   1.071   9.201   9.096
22687WAT     H268304   1.173   9.154   9.215
22688WAT      O68305   2.103   4.651   0.809
22688WAT     H168306   2.046   4.572   0.831
22688WAT     H268307   2.093   4.721   0.879
22689WAT      O68308   6.469   9.565   0.923
22689WAT     H168309   6.389   9.559   0.982
22689WAT     H268310   6.510   9.475   0.912
22690WAT      O68311   5.165   7.568   8.251
22690WAT     H168312   5.120   7.624   8.320
22690WAT     H268313   5.110   7.486   8.234
22691WAT      O68314   8.829   7.393   0.564
22691WAT     H168315   8.810   7.482   0.524
22691WAT     H268316   8.744   7.340   0.569
22692WAT      O68317   8.956   5.923   9.732
22692WAT     H168318   8.982   6.020   9.734
22692WAT     H268319   8.939   5.892   9.826
22693WAT      O68320   5.748   8.262   6.989
22693WAT     H168321   5.675   8.301   6.933
22693WAT     H268322   5.825   8.237   6.930
22694WAT      O68323   5.444   9.333   3.724
22694WAT     H168324   5.384   9.254   3.713
22694WAT     H268325   5.481   9.359   3.634
22695WAT      O68326   3.240   2.611   7.068
22695WAT     H168327   3.162   2.647   7.017
22695WAT     H268328   3.234   2.641   7.163
22696WAT      O68329   0.592   1.668   3.051
22696WAT     H168330   0.588   1.616   2.965
22696WAT     H268331   0.520   1.636   3.112
22697WAT      O68332   9.609   0.279   7.519
22697WAT     H168333   9.649   0.191   7.493
22697WAT     H268334   9.668   0.353   7.485
22698WAT      O68335   9.026   5.014   3.102
22698WAT     H168336   8.984   4.956   3.032
22698WAT     H268337   9.042   5.105   3.064
22699WAT      O68338   7.955   9.776   8.910
22699WAT     H168339   8.011   9.694   8.894
22699WAT     H268340   7.864   9.748   8.940
22700WAT      O68341   2.116   4.393   1.178
22700WAT     H168342   2.079   4.300   1.179
22700WAT     H268343   2.044   4.457   1.151
22701WAT      O68344   6.872   9.341   7.325
22701WAT     H168345   6.869   9.296   7.236
22701WAT     H268346   6.890   9.439   7.312
22702WAT      O68347   1.001   1.347   9.613
22702WAT     H168348   1.022   1.411   9.687
22702WAT     H268349   0.944   1.392   9.544
22703WAT      O68350   0.512   2.699   9.139
22703WAT     H168351   0.444   2.642   9.094
22703WAT     H268352   0.596   2.701   9.084
22704WAT      O68353   3.740   4.310   1.126
22704WAT     H168354   3.783   4.243   1.187
22704WAT     H268355   3.807   4.380   1.100
22705WAT      O68356   2.900   2.260   6.794
22705WAT     H168357   2.816   2.313   6.777
22705WAT     H268358   2.980   2.315   6.770
22706WAT      O68359   3.975   2.426   5.837
22706WAT     H168360   3.907   2.393   5.771
22706WAT     H268361   3.930   2.452   5.922
22707WAT      O68362   4.363   0.705   6.416
22707WAT     H168363   4.456   0.708   6.381
22707WAT     H268364   4.333   0.798   6.438
22708WAT      O68365   3.055   7.652   3.683
22708WAT     H168366   2.996   7.695   3.752
22708WAT     H268367   3.083   7.720   3.615
22709WAT      O68368   7.020   6.320   7.762
22709WAT     H168369   7.019   6.353   7.668
22709WAT     H268370   7.089   6.249   7.773
22710WAT      O68371   0.357   9.216   4.595
22710WAT     H168372   0.394   9.124   4.612
22710WAT     H268373   0.334   9.224   4.498
22711WAT      O68374   3.033   4.471   8.804
22711WAT     H168375   2.953   4.413   8.793
22711WAT     H268376   3.023   4.553   8.748
22712WAT      O68377   5.936   6.779   1.871
22712WAT     H168378   5.874   6.702   1.882
22712WAT     H268379   6.019   6.764   1.924
22713WAT      O68380   2.026   8.293   2.354
22713WAT     H168381   2.112   8.270   2.400
22713WAT     H268382   1.961   8.329   2.421
22714WAT      O68383   9.219   0.433   6.437
22714WAT     H168384   9.286   0.506   6.451
22714WAT     H268385   9.263   0.354   6.396
22715WAT      O68386   6.353   3.432   9.102
22715WAT     H168387   6.350   3.425   9.002
22715WAT     H268388   6.360   3.528   9.129
22716WAT      O68389   1.751   8.844   8.642
22716WAT     H168390   1.725   8.845   8.546
22716WAT     H268391   1.825   8.779   8.657
22717WAT      O68392   5.942   1.863   0.883
22717WAT     H168393   5.893   1.786   0.842
22717WAT     H268394   5.879   1.915   0.941
22718WAT      O68395   3.426   2.239   8.028
22718WAT     H168396   3.482   2.159   8.008
22718WAT     H268397   3.340   2.234   7.977
22719WAT      O68398   4.009   4.790   9.406
22719WAT     H168399   4.045   4.877   9.372
22719WAT     H268400   3.966   4.804   9.496
22720WAT      O68401   1.451   1.489   6.899
22720WAT     H168402   1.534   1.457   6.852
22720WAT     H268403   1.376   1.426   6.881
22721WAT      O68404   0.044   2.462   8.025
22721WAT     H168405   0.142   2.447   8.019
22721WAT     H268406   0.000   2.382   8.067
22722WAT      O68407   3.226   9.691   3.187
22722WAT     H168408   3.179   9.615   3.142
22722WAT     H268409   3.323   9.690   3.163
22723WAT      O68410   9.762   0.637   8.711
22723WAT     H168411   9.673   0.595   8.729
22723WAT     H268412   9.759   0.685   8.623
22724WAT      O68413   7.882   0.170   5.253
22724WAT     H168414   7.791   0.140   5.225
22724WAT     H268415   7.951   0.119   5.203
22725WAT      O68416   6.968   4.749   4.535
22725WAT     H168417   6.974   4.714   4.628
22725WAT     H268418   6.876   4.733   4.499
22726WAT      O68419   5.881   4.232   6.941
22726WAT     H168420   5.786   4.259   6.929
22726WAT     H268421   5.890   4.175   7.023
22727WAT      O68422   5.388   4.413   6.204
22727WAT     H168423   5.294   4.441   6.223
22727WAT     H268424   5.450   4.464   6.264
22728WAT      O68425   6.900   2.958   6.418
22728WAT     H168426   6.929   3.026   6.486
22728WAT     H268427   6.800   2.954   6.417
22729WAT      O68428   2.053   8.920   1.595
22729WAT     H168429   1.973   8.979   1.593
22729WAT     H268430   2.023   8.825   1.604
22730WAT      O68431   6.873   3.252   8.974
22730WAT     H168432   6.795   3.236   8.914
22730WAT     H268433   6.909   3.164   9.007
22731WAT      O68434   2.039   7.943   3.839
22731WAT     H168435   2.116   7.958   3.776
22731WAT     H268436   2.001   7.852   3.822
22732WAT      O68437   0.841   5.677   5.934
22732WAT     H168438   0.831   5.770   5.970
22732WAT     H268439   0.910   5.628   5.987
22733WAT      O68440   1.811   2.361   4.382
22733WAT     H168441   1.727   2.308   4.393
22733WAT     H268442   1.871   2.346   4.461
22734WAT      O68443   1.682   3.484   0.585
22734WAT     H168444   1.704   3.548   0.511
22734WAT     H268445   1.764   3.467   0.640
22735WAT      O68446   6.629   6.281   1.022
22735WAT     H168447   6.614   6.371   0.983
22735WAT     H268448   6.653   6.290   1.119
22736WAT      O68449   0.912   5.833   3.625
22736WAT     H168450   0.822   5.799   3.654
22736WAT     H268451   0.906   5.863   3.529
22737WAT      O68452   8.677   5.378   7.955
22737WAT     H168453   8.609   5.436   8.000
22737WAT     H268454   8.659   5.282   7.975
22738WAT      O68455   2.121   2.295   8.117
22738WAT     H168456   2.060   2.367   8.149
22738WAT     H268457   2.067   2.220   8.078
22739WAT      O68458   6.322   1.037   0.839
22739WAT     H168459   6.404   0.985   0.815
22739WAT     H268460   6.274   1.065   0.756
22740WAT      O68461   6.349   3.415   0.380
22740WAT     H168462   6.305   3.478   0.445
22740WAT     H268463   6.378   3.466   0.299
22741WAT      O68464   4.905   8.370   7.861
22741WAT     H168465   4.892   8.351   7.959
22741WAT     H268466   4.816   8.378   7.816
22742WAT      O68467   9.066   2.269   1.200
22742WAT     H168468   8.967   2.259   1.195
22742WAT     H268469   9.110   2.186   1.167
22743WAT      O68470   1.619   4.462   7.676
22743WAT     H168471   1.708   4.494   7.710
22743WAT     H268472   1.579   4.533   7.617
22744WAT      O68473   6.424   2.852   5.103
22744WAT     H168474   6.505   2.798   5.080
22744WAT     H268475   6.448   2.922   5.170
22745WAT      O68476   6.275   3.113   3.228
22745WAT     H168477   6.334   3.097   3.149
22745WAT     H268478   6.186   3.146   3.197
22746WAT      O68479   0.141   3.770   2.105
22746WAT     H168480   0.128   3.866   2.132
22746WAT     H268481   0.091   3.711   2.168
22747WAT      O68482   4.714   2.215   4.535
22747WAT     H168483   4.660   2.283   4.485
22747WAT     H268484   4.657   2.176   4.609
22748WAT      O68485   3.788   8.387   8.883
22748WAT     H168486   3.850   8.318   8.921
22748WAT     H268487   3.839   8.471   8.866
22749WAT      O68488   7.310   1.110   0.234
22749WAT     H168489   7.402   1.149   0.227
22749WAT     H268490   7.254   1.169   0.292
22750WAT      O68491   4.183   7.788   3.128
22750WAT     H168492   4.220   7.767   3.219
22750WAT     H268493   4.217   7.878   3.099
22751WAT      O68494   6.132   5.155   2.211
22751WAT     H168495   6.118   5.057   2.198
22751WAT     H268496   6.170   5.195   2.128
22752WAT      O68497   7.699   1.337   4.605
22752WAT     H168498   7.749   1.377   4.529
22752WAT     H268499   7.757   1.269   4.651
22753WAT      O68500   2.865   4.105   2.684
22753WAT     H168501   2.877   4.086   2.586
22753WAT     H268502   2.938   4.165   2.715
22754WAT      O68503   5.862   0.659   7.579
22754WAT     H168504   5.873   0.750   7.619
22754WAT     H268505   5.949   0.629   7.541
22755WAT      O68506   9.735   1.212   2.277
22755WAT     H168507   9.800   1.136   2.284
22755WAT     H268508   9.671   1.194   2.203
22756WAT      O68509   6.940   9.533   2.982
22756WAT     H168510   6.990   9.446   2.973
22756WAT     H268511   6.963   9.575   3.070
22757WAT      O68512   2.910   9.084   9.364
22757WAT     H168513   2.910   8.990   9.333
22757WAT     H268514   3.004   9.111   9.387
22758WAT      O68515   9.060   9.077   3.161
22758WAT     H168516   8.985   9.138   3.133
22758WAT     H268517   9.038   8.983   3.134
22759WAT      O68518   2.547   1.317   0.319
22759WAT     H168519   2.598   1.296   0.403
22759WAT     H268520   2.478   1.246   0.304
22760WAT      O68521   6.798   6.621   3.357
22760WAT     H168522   6.727   6.607   3.288
22760WAT     H268523   6.806   6.540   3.415
22761WAT      O68524   2.804   1.318   1.356
22761WAT     H168525   2.777   1.249   1.289
22761WAT     H268526   2.889   1.289   1.401
22762WAT      O68527   3.497   3.726   4.831
22762WAT     H168528   3.430   3.656   4.806
22762WAT     H268529   3.580   3.681   4.865
22763WAT      O68530   2.149   5.964   5.330
22763WAT     H168531   2.203   5.944   5.248
22763WAT     H268532   2.200   6.025   5.390
22764WAT      O68533   0.027   2.554   3.671
22764WAT     H168534  -0.023   2.501   3.602
22764WAT     H268535   0.039   2.499   3.754
22765WAT      O68536   5.388   8.941   0.808
22765WAT     H168537   5.333   8.881   0.751
22765WAT     H268538   5.398   9.030   0.763
22766WAT      O68539   4.787   2.481   7.234
22766WAT     H168540   4.870   2.482   7.290
22766WAT     H268541   4.716   2.536   7.278
22767WAT      O68542   3.776   8.288   9.204
22767WAT     H168543   3.716   8.241   9.138
22767WAT     H268544   3.789   8.383   9.176
22768WAT      O68545   5.816   1.624   6.791
22768WAT     H168546   5.737   1.608   6.732
22768WAT     H268547   5.792   1.600   6.885
22769WAT      O68548   8.277   2.779   9.417
22769WAT     H168549   8.227   2.756   9.334
22769WAT     H268550   8.366   2.732   9.416
22770WAT      O68551   7.133   0.457   4.488
22770WAT     H168552   7.156   0.506   4.404
22770WAT     H268553   7.177   0.366   4.486
22771WAT      O68554   2.398   0.524   3.561
22771WAT     H168555   2.471   0.591   3.572
22771WAT     H268556   2.317   0.555   3.609
22772WAT      O68557   0.180   4.122   1.787
22772WAT     H168558   0.241   4.076   1.852
22772WAT     H268559   0.099   4.065   1.772
22773WAT      O68560   3.748   0.593   7.129
22773WAT     H168561   3.712   0.536   7.056
22773WAT     H268562   3.681   0.665   7.151
22774WAT      O68563   5.894   7.560   1.149
22774WAT     H168564   5.838   7.489   1.106
22774WAT     H268565   5.895   7.641   1.090
22775WAT      O68566   4.598   1.250   2.882
22775WAT     H168567   4.681   1.204   2.850
22775WAT     H268568   4.563   1.204   2.963
22776WAT      O68569   6.233   9.845   9.120
22776WAT     H168570   6.191   9.840   9.029
22776WAT     H268571   6.310   9.782   9.125
22777WAT      O68572   2.984   4.061   5.813
22777WAT     H168573   3.055   3.996   5.787
22777WAT     H268574   2.895   4.027   5.783
22778WAT      O68575   2.250   4.289   1.606
22778WAT     H168576   2.236   4.336   1.693
22778WAT     H268577   2.274   4.193   1.623
22779WAT      O68578   1.719   2.823   5.564
22779WAT     H168579   1.754   2.733   5.538
22779WAT     H268580   1.697   2.876   5.482
22780WAT      O68581   5.571   1.558   0.001
22780WAT     H168582   5.649   1.505  -0.033
22780WAT     H268583   5.527   1.509   0.076
22781WAT      O68584   8.416   1.098   7.350
22781WAT     H168585   8.367   1.028   7.403
22781WAT     H268586   8.418   1.184   7.401
22782WAT      O68587   5.397   0.792   8.923
22782WAT     H168588   5.395   0.692   8.916
22782WAT     H268589   5.309   0.830   8.895
22783WAT      O68590   1.633   5.431   9.805
22783WAT     H168591   1.562   5.371   9.767
22783WAT     H268592   1.687   5.469   9.730
22784WAT      O68593   8.719   1.062   3.450
22784WAT     H168594   8.707   1.117   3.533
22784WAT     H268595   8.654   0.986   3.451
22785WAT      O68596   1.548   8.132   6.509
22785WAT     H168597   1.472   8.073   6.536
22785WAT     H268598   1.616   8.077   6.459
22786WAT      O68599   8.153   6.749   9.353
22786WAT     H168600   8.168   6.775   9.448
22786WAT     H268601   8.237   6.761   9.301
22787WAT      O68602   4.127   6.559   4.157
22787WAT     H168603   4.104   6.492   4.087
22787WAT     H268604   4.044   6.602   4.192
22788WAT      O68605   8.146   8.060   1.421
22788WAT     H168606   8.225   7.999   1.426
22788WAT     H268607   8.172   8.144   1.375
22789WAT      O68608   5.983   9.659   0.259
22789WAT     H168609   5.989   9.742   0.203
22789WAT     H268610   6.068   9.646   0.309
22790WAT      O68611   3.450   6.693   6.687
22790WAT     H168612   3.472   6.601   6.721
22790WAT     H268613   3.530   6.731   6.640
22791WAT      O68614   5.593   4.035   4.075
22791WAT     H168615   5.604   3.937   4.090
22791WAT     H268616   5.499   4.062   4.097
22792WAT      O68617   3.483   5.745   3.292
22792WAT     H168618   3.440   5.712   3.208
22792WAT     H268619   3.581   5.726   3.290
22793WAT      O68620   5.191   1.550   7.067
22793WAT     H168621   5.209   1.630   7.009
22793WAT     H268622   5.094   1.526   7.062
22794WAT      O68623   4.522   3.292   4.220
22794WAT     H168624   4.494   3.384   4.247
22794WAT     H268625   4.493   3.227   4.290
22795WAT      O68626   9.289   5.893   7.983
22795WAT     H168627   9.246   5.887   8.073
22795WAT     H268628   9.246   5.966   7.930
22796WAT      O68629   3.061   3.047   3.925
22796WAT     H168630   3.041   2.953   3.955
22796WAT     H268631   3.070   3.105   4.006
22797WAT      O68632   2.852   4.044   7.741
22797WAT     H168633   2.949   4.055   7.721
22797WAT     H268634   2.830   3.946   7.749
22798WAT      O68635   9.625   5.679   7.934
22798WAT     H168636   9.563   5.650   7.862
22798WAT     H268637   9.720   5.666   7.903
22799WAT      O68638   4.969   1.900   4.115
22799WAT     H168639   5.008   1.952   4.039
22799WAT     H268640   4.915   1.961   4.172
22800WAT      O68641   7.110   6.021   0.225
22800WAT     H168642   7.122   6.090   0.154
22800WAT     H268643   7.024   5.972   0.210
22801WAT      O68644   6.989   8.764   5.453
22801WAT     H168645   7.048   8.745   5.374
22801WAT     H268646   6.974   8.863   5.459
22802WAT      O68647   9.832   0.550   2.389
22802WAT     H168648   9.911   0.611   2.383
22802WAT     H268649   9.751   0.598   2.355
22803WAT      O68650   9.406   4.925   1.319
22803WAT     H168651   9.477   4.942   1.250
22803WAT     H268652   9.436   4.964   1.407
22804WAT      O68653   1.439   3.054   7.262
22804WAT     H168654   1.449   3.107   7.178
22804WAT     H268655   1.405   2.962   7.239
22805WAT      O68656   9.057   5.667   8.574
22805WAT     H168657   9.128   5.738   8.577
22805WAT     H268658   8.990   5.691   8.503
22806WAT      O68659   2.356   2.941   3.272
22806WAT     H168660   2.439   2.891   3.294
22806WAT     H268661   2.377   3.039   3.269
22807WAT      O68662   6.738   8.154   3.275
22807WAT     H168663   6.726   8.239   3.224
22807WAT     H268664   6.835   8.132   3.280
22808WAT      O68665   7.019   1.694   8.255
22808WAT     H168666   7.037   1.706   8.158
22808WAT     H268667   6.947   1.626   8.268
22809WAT      O68668   8.604   2.162   9.586
22809WAT     H168669   8.667   2.099   9.632
22809WAT     H268670   8.579   2.124   9.496
22810WAT      O68671   8.478   2.747   6.396
22810WAT     H168672   8.428   2.681   6.452
22810WAT     H268673   8.519   2.817   6.455
22811WAT      O68674   2.945   4.491   4.584
22811WAT     H168675   2.888   4.470   4.664
22811WAT     H268676   3.028   4.537   4.614
22812WAT      O68677   9.196   1.863   0.176
22812WAT     H168678   9.209   1.796   0.248
22812WAT     H268679   9.141   1.939   0.210
22813WAT      O68680   6.639   0.032   2.797
22813WAT     H168681   6.569  -0.024   2.753
22813WAT     H268682   6.670  -0.012   2.881
22814WAT      O68683   1.819   1.478   4.272
22814WAT     H168684   1.740   1.534   4.249
22814WAT     H268685   1.903   1.531   4.259
22815WAT      O68686   1.525   6.330   1.817
22815WAT     H168687   1.519   6.389   1.897
22815WAT     H268688   1.433   6.297   1.794
22816WAT      O68689   4.043   5.891   6.237
22816WAT     H168690   4.012   5.948   6.161
22816WAT     H268691   4.141   5.905   6.252
22817WAT      O68692   3.763   1.659   5.167
22817WAT     H168693   3.748   1.561   5.178
22817WAT     H268694   3.851   1.675   5.122
22818WAT      O68695   4.280   8.802   2.739
22818WAT     H168696   4.182   8.792   2.757
22818WAT     H268697   4.329   8.723   2.775
22819WAT      O68698   4.804   5.918   5.563
22819WAT     H168699   4.864   5.990   5.527
22819WAT     H268700   4.710   5.935   5.534
22820WAT      O68701   3.035   3.163   2.960
22820WAT     H168702   3.074   3.236   3.016
22820WAT     H268703   3.055   3.181   2.864
22821WAT      O68704   6.042   2.600   3.680
22821WAT     H168705   6.118   2.664   3.669
22821WAT     H268706   5.962   2.649   3.714
22822WAT      O68707   0.200   8.155   3.641
22822WAT     H168708   0.189   8.089   3.716
22822WAT     H268709   0.222   8.106   3.557
22823WAT      O68710   0.382   8.430   6.035
22823WAT     H168711   0.348   8.477   6.117
22823WAT     H268712   0.305   8.404   5.977
22824WAT      O68713   0.366   7.071   6.274
22824WAT     H168714   0.303   6.994   6.271
22824WAT     H268715   0.351   7.123   6.358
22825WAT      O68716   9.280   5.947   3.495
22825WAT     H168717   9.331   6.024   3.455
22825WAT     H268718   9.192   5.938   3.449
22826WAT      O68719   2.890   3.526   7.115
22826WAT     H168720   2.801   3.497   7.150
22826WAT     H268721   2.962   3.475   7.162
22827WAT      O68722   7.242   7.146   8.422
22827WAT     H168723   7.204   7.125   8.332
22827WAT     H268724   7.338   7.118   8.425
22828WAT      O68725   6.580   6.333   2.495
22828WAT     H168726   6.596   6.237   2.517
22828WAT     H268727   6.491   6.362   2.531
22829WAT      O68728   6.888   2.128   0.666
22829WAT     H168729   6.837   2.090   0.589
22829WAT     H268730   6.860   2.223   0.682
22830WAT      O68731   7.021   8.828   0.547
22830WAT     H168732   7.036   8.852   0.643
22830WAT     H268733   7.045   8.732   0.532
22831WAT      O68734   3.918   2.968   6.287
22831WAT     H168735   3.833   2.971   6.235
22831WAT     H268736   3.955   3.060   6.298
22832WAT      O68737   1.472   3.739   0.328
22832WAT     H168738   1.506   3.674   0.260
22832WAT     H268739   1.484   3.701   0.419
22833WAT      O68740   6.193   9.199   3.504
22833WAT     H168741   6.275   9.211   3.561
22833WAT     H268742   6.221   9.160   3.416
22834WAT      O68743   4.685   5.760   6.692
22834WAT     H168744   4.720   5.677   6.649
22834WAT     H268745   4.758   5.828   6.699
22835WAT      O68746   4.516   6.979   0.284
22835WAT     H168747   4.503   7.065   0.333
22835WAT     H268748   4.429   6.951   0.243
22836WAT      O68749   1.980   7.668   8.355
22836WAT     H168750   1.891   7.624   8.345
22836WAT     H268751   2.043   7.607   8.404
22837WAT      O68752   2.116   5.483   6.619
22837WAT     H168753   2.148   5.533   6.539
22837WAT     H268754   2.126   5.540   6.700
22838WAT      O68755   1.117   6.792   8.043
22838WAT     H168756   1.213   6.778   8.069
22838WAT     H268757   1.110   6.872   7.984
22839WAT      O68758   4.016   8.975   8.650
22839WAT     H168759   3.963   9.051   8.612
22839WAT     H268760   4.020   8.901   8.583
22840WAT      O68761   0.023   3.292   4.725
22840WAT     H168762   0.029   3.225   4.651
22840WAT     H268763   0.099   3.277   4.789
22841WAT      O68764   9.364   1.299   7.134
22841WAT     H168765   9.341   1.212   7.178
22841WAT     H268766   9.422   1.283   7.055
22842WAT      O68767   5.513   7.331   0.110
22842WAT     H168768   5.495   7.402   0.178
22842WAT     H268769   5.609   7.305   0.114
22843WAT      O68770   9.147   1.959   9.064
22843WAT     H168771   9.210   1.962   8.987
22843WAT     H268772   9.182   1.896   9.134
22844WAT      O68773   3.615   8.162   5.866
22844WAT     H168774   3.606   8.230   5.938
22844WAT     H268775   3.706   8.121   5.868
22845WAT      O68776   4.552   7.915   7.807
22845WAT     H168777   4.458   7.948   7.800
22845WAT     H268778   4.611   7.990   7.836
22846WAT      O68779   2.602   8.849   9.591
22846WAT     H168780   2.595   8.811   9.683
22846WAT     H268781   2.666   8.794   9.537
22847WAT      O68782   4.333   5.480   5.410
22847WAT     H168783   4.388   5.563   5.416
22847WAT     H268784   4.283   5.478   5.323
22848WAT      O68785   2.871   7.690   0.777
22848WAT     H168786   2.807   7.767   0.784
22848WAT     H268787   2.825   7.605   0.803
22849WAT      O68788   7.554   0.330   0.180
22849WAT     H168789   7.619   0.316   0.255
22849WAT     H268790   7.561   0.425   0.148
22850WAT      O68791   3.831   9.228   6.549
22850WAT     H168792   3.784   9.168   6.614
22850WAT     H268793   3.863   9.310   6.597
22851WAT      O68794   4.759   6.088   7.458
22851WAT     H168795   4.810   6.049   7.535
22851WAT     H268796   4.689   6.024   7.428
22852WAT      O68797   6.592   0.641   3.391
22852WAT     H168798   6.686   0.673   3.385
22852WAT     H268799   6.589   0.554   3.439
22853WAT      O68800   5.866   2.572   5.259
22853WAT     H168801   5.864   2.615   5.349
22853WAT     H268802   5.854   2.473   5.268
22854WAT      O68803   7.899   7.940   3.838
22854WAT     H168804   7.911   7.859   3.781
22854WAT     H268805   7.975   8.003   3.823
22855WAT      O68806   6.465   5.986   4.094
22855WAT     H168807   6.511   6.002   4.007
22855WAT     H268808   6.378   6.034   4.095
22856WAT      O68809   4.891   5.150   5.297
22856WAT     H168810   4.987   5.120   5.296
22856WAT     H268811   4.844   5.114   5.216
22857WAT      O68812   6.109   1.734   7.162
22857WAT     H168813   6.123   1.833   7.173
22857WAT     H268814   6.022   1.717   7.116
22858WAT      O68815   0.230   3.929   7.146
22858WAT     H168816   0.304   3.995   7.157
22858WAT     H268817   0.218   3.878   7.231
22859WAT      O68818   3.533   9.343   9.144
22859WAT     H168819   3.493   9.300   9.225
22859WAT     H268820   3.507   9.290   9.063
22860WAT      O68821   9.014   0.278   9.680
22860WAT     H168822   9.040   0.184   9.659
22860WAT     H268823   9.045   0.338   9.606
22861WAT      O68824   9.553   0.029   5.882
22861WAT     H168825   9.561   0.128   5.889
22861WAT     H268826   9.632  -0.007   5.833
22862WAT      O68827   7.532   1.838   5.800
22862WAT     H168828   7.512   1.781   5.879
22862WAT     H268829   7.448   1.852   5.747
22863WAT      O68830   3.583   1.648   4.746
22863WAT     H168831   3.607   1.673   4.653
22863WAT     H268832   3.504   1.701   4.776
22864WAT      O68833   2.940   8.924   0.711
22864WAT     H168834   2.984   8.974   0.786
22864WAT     H268835   2.872   8.983   0.667
22865WAT      O68836   3.277   0.976   5.652
22865WAT     H168837   3.316   0.885   5.635
22865WAT     H268838   3.303   1.038   5.577
22866WAT      O68839   9.195   6.593   8.557
22866WAT     H168840   9.147   6.675   8.591
22866WAT     H268841   9.131   6.516   8.554
22867WAT      O68842   5.021   8.711   4.702
22867WAT     H168843   5.052   8.764   4.623
22867WAT     H268844   5.093   8.648   4.730
22868WAT      O68845   0.313   5.916   9.045
22868WAT     H168846   0.265   5.875   9.123
22868WAT     H268847   0.251   5.923   8.967
22869WAT      O68848   3.855   1.613   0.590
22869WAT     H168849   3.770   1.607   0.642
22869WAT     H268850   3.929   1.647   0.649
22870WAT      O68851   9.048   7.563   8.399
22870WAT     H168852   8.989   7.605   8.330
22870WAT     H268853   9.114   7.631   8.432
22871WAT      O68854   1.284   1.656   6.082
22871WAT     H168855   1.250   1.726   6.019
22871WAT     H268856   1.213   1.633   6.149
22872WAT      O68857   9.416   0.794   7.446
22872WAT     H168858   9.488   0.832   7.504
22872WAT     H268859   9.409   0.848   7.362
22873WAT      O68860   9.010   2.223   8.472
22873WAT     H168861   9.070   2.283   8.419
22873WAT     H268862   9.055   2.201   8.559
22874WAT      O68863   2.745   4.090   9.834
22874WAT     H168864   2.747   4.149   9.915
22874WAT     H268865   2.651   4.063   9.814
22875WAT      O68866   4.747   6.087   3.261
22875WAT     H168867   4.758   6.068   3.358
22875WAT     H268868   4.652   6.072   3.235
22876WAT      O68869   2.722   1.952   0.341
22876WAT     H168870   2.704   2.014   0.417
22876WAT     H268871   2.793   1.886   0.367
22877WAT      O68872   5.449   1.017   1.456
22877WAT     H168873   5.392   1.034   1.536
22877WAT     H268874   5.522   0.952   1.479
22878WAT      O68875   4.908   0.630   4.113
22878WAT     H168876   4.976   0.679   4.059
22878WAT     H268877   4.872   0.690   4.184
22879WAT      O68878   6.872   2.683   5.894
22879WAT     H168879   6.777   2.714   5.888
22879WAT     H268880   6.907   2.701   5.986
22880WAT      O68881   9.804   5.904   9.441
22880WAT     H168882   9.766   5.987   9.401
22880WAT     H268883   9.766   5.823   9.395
22881WAT      O68884   2.593   8.295   0.090
22881WAT     H168885   2.619   8.290   0.186
22881WAT     H268886   2.613   8.208   0.045
22882WAT      O68887   0.963   9.308   5.732
22882WAT     H168888   0.898   9.378   5.760
22882WAT     H268889   0.920   9.247   5.665
22883WAT      O68890   2.924   7.104   0.139
22883WAT     H168891   2.860   7.143   0.206
22883WAT     H268892   3.005   7.071   0.187
22884WAT      O68893   8.465   2.584   9.285
22884WAT     H168894   8.467   2.574   9.186
22884WAT     H268895   8.476   2.494   9.328
22885WAT      O68896   0.748   3.595   8.912
22885WAT     H168897   0.740   3.623   9.008
22885WAT     H268898   0.671   3.536   8.887
22886WAT      O68899   1.882   4.778   1.666
22886WAT     H168900   1.874   4.877   1.663
22886WAT     H268901   1.807   4.736   1.614
22887WAT      O68902   1.376   1.389   4.529
22887WAT     H168903   1.353   1.351   4.440
22887WAT     H268904   1.469   1.424   4.528
22888WAT      O68905   5.190   2.775   7.795
22888WAT     H168906   5.194   2.854   7.857
22888WAT     H268907   5.282   2.753   7.763
22889WAT      O68908   6.503   4.524   4.067
22889WAT     H168909   6.601   4.545   4.066
22889WAT     H268910   6.457   4.575   3.994
22890WAT      O68911   8.115   5.323   5.771
22890WAT     H168912   8.096   5.246   5.710
22890WAT     H268913   8.040   5.333   5.837
22891WAT      O68914   5.695   9.528   9.094
22891WAT     H168915   5.633   9.588   9.043
22891WAT     H268916   5.643   9.455   9.138
22892WAT      O68917   4.961   0.912   7.259
22892WAT     H168918   4.957   0.915   7.159
22892WAT     H268919   4.879   0.867   7.295
22893WAT      O68920   4.110   7.615   6.382
22893WAT     H168921   4.163   7.577   6.306
22893WAT     H268922   4.033   7.555   6.401
22894WAT      O68923   6.349   6.539   2.079
22894WAT     H168924   6.351   6.462   2.015
22894WAT     H268925   6.434   6.590   2.073
22895WAT      O68926   3.896   9.489   5.583
22895WAT     H168927   3.835   9.542   5.642
22895WAT     H268928   3.966   9.548   5.543
22896WAT      O68929   6.144   2.792   9.058
22896WAT     H168930   6.203   2.852   9.005
22896WAT     H268931   6.160   2.697   9.031
22897WAT      O68932   6.230   3.580   7.843
22897WAT     H168933   6.243   3.483   7.867
22897WAT     H268934   6.234   3.591   7.744
22898WAT      O68935   6.716   7.647   4.471
22898WAT     H168936   6.659   7.709   4.417
22898WAT     H268937   6.695   7.552   4.446
22899WAT      O68938   3.163   7.247   1.469
22899WAT     H168939   3.148   7.169   1.530
22899WAT     H268940   3.082   7.306   1.470
22900WAT      O68941   5.366   0.663   1.941
22900WAT     H168942   5.432   0.637   1.871
22900WAT     H268943   5.278   0.618   1.923
22901WAT      O68944   0.645   0.366   1.803
22901WAT     H168945   0.713   0.292   1.806
22901WAT     H268946   0.680   0.442   1.748
22902WAT      O68947   4.292   8.140   2.065
22902WAT     H168948   4.371   8.096   2.021
22902WAT     H268949   4.260   8.216   2.008
22903WAT      O68950   9.835   7.974   5.206
22903WAT     H168951   9.847   8.014   5.297
22903WAT     H268952   9.890   8.025   5.140
22904WAT      O68953   4.200   3.074   4.205
22904WAT     H168954   4.160   2.983   4.199
22904WAT     H268955   4.229   3.104   4.114
22905WAT      O68956   1.139   0.165   2.807
22905WAT     H168957   1.172   0.256   2.831
22905WAT     H268958   1.145   0.152   2.708
22906WAT      O68959   1.031   5.842   4.103
22906WAT     H168960   1.060   5.895   4.183
22906WAT     H268961   1.031   5.745   4.125
22907WAT      O68962   2.925   3.866   5.477
22907WAT     H168963   2.970   3.806   5.543
22907WAT     H268964   2.943   3.831   5.384
22908WAT      O68965   2.260   8.222   0.586
22908WAT     H168966   2.332   8.154   0.600
22908WAT     H268967   2.302   8.310   0.565
22909WAT      O68968   6.358   8.805   7.726
22909WAT     H168969   6.386   8.890   7.681
22909WAT     H268970   6.349   8.733   7.657
22910WAT      O68971   2.241   5.595   0.587
22910WAT     H168972   2.188   5.665   0.635
22910WAT     H268973   2.248   5.619   0.490
22911WAT      O68974   8.877   1.746   6.071
22911WAT     H168975   8.952   1.808   6.095
22911WAT     H268976   8.899   1.699   5.985
22912WAT      O68977   1.720   8.282   8.613
22912WAT     H168978   1.705   8.355   8.680
22912WAT     H268979   1.634   8.264   8.564
22913WAT      O68980   6.414   9.253   5.798
22913WAT     H168981   6.416   9.345   5.761
22913WAT     H268982   6.332   9.206   5.766
22914WAT      O68983   6.881   2.977   2.031
22914WAT     H168984   6.799   2.955   1.978
22914WAT     H268985   6.943   3.033   1.976
22915WAT      O68986   8.694   7.134   4.597
22915WAT     H168987   8.713   7.068   4.670
22915WAT     H268988   8.647   7.213   4.635
22916WAT      O68989   3.929   8.292   4.973
22916WAT     H168990   3.932   8.376   4.918
22916WAT     H268991   4.004   8.292   5.039
22917WAT      O68992   8.621   9.781   2.118
22917WAT     H168993   8.551   9.735   2.064
22917WAT     H268994   8.711   9.746   2.092
22918WAT      O68995   3.926   5.440   6.462
22918WAT     H168996   3.867   5.359   6.454
22918WAT     H268997   3.982   5.432   6.545
22919WAT      O68998   7.933   7.596   1.462
22919WAT     H168999   7.845   7.590   1.416
22919WAT     H269000   7.935   7.677   1.521
22920WAT      O69001   0.469   8.463   1.522
22920WAT     H169002   0.452   8.412   1.606
22920WAT     H269003   0.567   8.481   1.512
22921WAT      O69004   7.243   3.435   9.011
22921WAT     H169005   7.276   3.373   9.083
22921WAT     H269006   7.300   3.423   8.929
22922WAT      O69007   0.848   4.389   6.591
22922WAT     H169008   0.759   4.355   6.560
22922WAT     H269009   0.845   4.405   6.690
22923WAT      O69010   2.361   3.723   5.217
22923WAT     H169011   2.365   3.789   5.143
22923WAT     H269012   2.408   3.761   5.298
22924WAT      O69013   6.187   7.720   4.494
22924WAT     H169014   6.109   7.742   4.436
22924WAT     H269015   6.215   7.801   4.545
22925WAT      O69016   2.187   1.752   7.727
22925WAT     H169017   2.227   1.840   7.754
22925WAT     H269018   2.088   1.756   7.736
22926WAT      O69019   5.496   8.689   6.570
22926WAT     H169020   5.435   8.639   6.631
22926WAT     H269021   5.443   8.721   6.490
22927WAT      O69022   2.849   2.145   3.430
22927WAT     H169023   2.916   2.071   3.434
22927WAT     H269024   2.769   2.121   3.485
22928WAT      O69025   1.264   1.051   6.774
22928WAT     H169026   1.250   0.955   6.750
22928WAT     H269027   1.362   1.068   6.789
22929WAT      O69028   3.899   3.291   4.069
22929WAT     H169029   3.989   3.328   4.094
22929WAT     H269030   3.867   3.230   4.141
22930WAT      O69031   7.346   1.109   1.806
22930WAT     H169032   7.387   1.026   1.768
22930WAT     H269033   7.246   1.102   1.801
22931WAT      O69034   0.463   3.654   8.626
22931WAT     H169035   0.480   3.582   8.693
22931WAT     H269036   0.367   3.681   8.630
22932WAT      O69037   4.185   4.401   1.906
22932WAT     H169038   4.245   4.481   1.897
22932WAT     H269039   4.148   4.398   1.999
22933WAT      O69040   0.519   2.943   3.186
22933WAT     H169041   0.614   2.911   3.186
22933WAT     H269042   0.512   3.026   3.242
22934WAT      O69043   4.766   1.787   5.664
22934WAT     H169044   4.861   1.786   5.631
22934WAT     H269045   4.743   1.878   5.696
22935WAT      O69046   4.370   8.840   8.291
22935WAT     H169047   4.326   8.875   8.374
22935WAT     H269048   4.303   8.793   8.234
22936WAT      O69049   6.225   7.565   7.709
22936WAT     H169050   6.303   7.535   7.654
22936WAT     H269051   6.250   7.648   7.759
22937WAT      O69052   2.124   5.352   8.473
22937WAT     H169053   2.043   5.317   8.427
22937WAT     H269054   2.132   5.311   8.564
22938WAT      O69055   7.812   8.335   3.108
22938WAT     H169056   7.795   8.239   3.086
22938WAT     H269057   7.845   8.343   3.202
22939WAT      O69058   7.214   9.679   0.801
22939WAT     H169059   7.114   9.675   0.804
22939WAT     H269060   7.252   9.594   0.837
22940WAT      O69061   6.556   9.432   7.127
22940WAT     H169062   6.470   9.478   7.103
22940WAT     H269063   6.618   9.498   7.170
22941WAT      O69064   5.484   3.933   5.246
22941WAT     H169065   5.577   3.897   5.245
22941WAT     H269066   5.419   3.858   5.258
22942WAT      O69067   7.434   6.636   2.036
22942WAT     H169068   7.529   6.634   2.066
22942WAT     H269069   7.427   6.595   1.945
22943WAT      O69070   4.527   0.050   9.005
22943WAT     H169071   4.471   0.049   8.922
22943WAT     H269072   4.622   0.064   8.981
22944WAT      O69073   9.040   5.102   7.625
22944WAT     H169074   9.090   5.030   7.578
22944WAT     H269075   8.972   5.061   7.686
22945WAT      O69076   1.439   0.376   9.757
22945WAT     H169077   1.426   0.398   9.854
22945WAT     H269078   1.352   0.345   9.719
22946WAT      O69079   7.263   6.993   1.491
22946WAT     H169080   7.180   6.956   1.448
22946WAT     H269081   7.237   7.060   1.560
22947WAT      O69082   6.903   1.677   3.420
22947WAT     H169083   6.845   1.601   3.448
22947WAT     H269084   6.846   1.757   3.402
22948WAT      O69085   6.924   3.165   0.814
22948WAT     H169086   6.956   3.163   0.719
22948WAT     H269087   6.998   3.195   0.874
22949WAT      O69088   7.474   4.888   1.599
22949WAT     H169089   7.531   4.923   1.673
22949WAT     H269090   7.424   4.964   1.557
22950WAT      O69091   9.189   1.653   5.909
22950WAT     H169092   9.209   1.721   5.839
22950WAT     H269093   9.233   1.679   5.995
22951WAT      O69094   0.197   3.336   8.150
22951WAT     H169095   0.145   3.272   8.207
22951WAT     H269096   0.264   3.384   8.206
22952WAT      O69097   8.429   7.238   2.201
22952WAT     H169098   8.482   7.181   2.139
22952WAT     H269099   8.337   7.251   2.165
22953WAT      O69100   7.000   0.063   4.451
22953WAT     H169101   6.963   0.079   4.359
22953WAT     H269102   7.099   0.053   4.445
22954WAT      O69103   3.982   4.450   7.475
22954WAT     H169104   4.077   4.472   7.500
22954WAT     H269105   3.974   4.448   7.375
22955WAT      O69106   3.571   5.440   3.091
22955WAT     H169107   3.499   5.509   3.088
22955WAT     H269108   3.540   5.362   3.145
22956WAT      O69109   1.499   2.761   1.611
22956WAT     H169110   1.422   2.770   1.673
22956WAT     H269111   1.465   2.751   1.517
22957WAT      O69112   7.554   8.691   8.195
22957WAT     H169113   7.495   8.619   8.233
22957WAT     H269114   7.621   8.718   8.264
22958WAT      O69115   9.762   7.206   5.303
22958WAT     H169116   9.672   7.249   5.315
22958WAT     H269117   9.791   7.168   5.391
22959WAT      O69118   9.434   6.120   5.494
22959WAT     H169119   9.426   6.219   5.508
22959WAT     H269120   9.371   6.092   5.421
22960WAT      O69121   0.653   5.049   4.122
22960WAT     H169122   0.668   4.986   4.198
22960WAT     H269123   0.559   5.082   4.124
22961WAT      O69124   4.223   8.326   3.187
22961WAT     H169125   4.172   8.368   3.262
22961WAT     H269126   4.259   8.397   3.127
22962WAT      O69127   5.628   9.693   2.183
22962WAT     H169128   5.678   9.607   2.176
22962WAT     H269129   5.532   9.674   2.203
22963WAT      O69130   5.010   8.006   0.548
22963WAT     H169131   5.028   8.035   0.454
22963WAT     H269132   5.096   7.987   0.595
22964WAT      O69133   9.796   9.257   2.927
22964WAT     H169134   9.817   9.200   2.847
22964WAT     H269135   9.699   9.251   2.948
22965WAT      O69136   7.884   5.821   4.645
22965WAT     H169137   7.957   5.871   4.691
22965WAT     H269138   7.803   5.880   4.637
22966WAT      O69139   0.962   2.950   7.817
22966WAT     H169140   0.958   2.941   7.718
22966WAT     H269141   0.869   2.949   7.855
22967WAT      O69142   8.673   4.609   6.816
22967WAT     H169143   8.755   4.558   6.843
22967WAT     H269144   8.687   4.707   6.833
22968WAT      O69145   3.570   3.732   3.444
22968WAT     H169146   3.585   3.805   3.378
22968WAT     H269147   3.634   3.657   3.425
22969WAT      O69148   4.391   6.309   2.391
22969WAT     H169149   4.393   6.261   2.304
22969WAT     H269150   4.388   6.243   2.466
22970WAT      O69151   0.500   3.897   5.256
22970WAT     H169152   0.521   3.974   5.317
22970WAT     H269153   0.569   3.826   5.268
22971WAT      O69154   7.960   8.550   5.688
22971WAT     H169155   7.942   8.649   5.693
22971WAT     H269156   7.873   8.501   5.688
22972WAT      O69157   6.349   8.705   8.844
22972WAT     H169158   6.371   8.610   8.820
22972WAT     H269159   6.255   8.709   8.878
22973WAT      O69160   2.597   4.119   4.805
22973WAT     H169161   2.598   4.081   4.713
22973WAT     H269162   2.686   4.103   4.848
22974WAT      O69163   7.626   5.963   2.168
22974WAT     H169164   7.654   5.940   2.262
22974WAT     H269165   7.548   6.026   2.172
22975WAT      O69166   4.909   1.529   4.142
22975WAT     H169167   4.838   1.528   4.212
22975WAT     H269168   4.887   1.598   4.073
22976WAT      O69169   9.874   7.549   9.555
22976WAT     H169170   9.961   7.574   9.597
22976WAT     H269171   9.799   7.574   9.615
22977WAT      O69172   0.637   1.235   4.684
22977WAT     H169173   0.577   1.242   4.604
22977WAT     H269174   0.635   1.141   4.719
22978WAT      O69175   3.888   0.018   9.452
22978WAT     H169176   3.888  -0.034   9.366
22978WAT     H269177   3.941   0.102   9.439
22979WAT      O69178   7.372   3.938   0.902
22979WAT     H169179   7.345   3.979   0.989
22979WAT     H269180   7.403   4.010   0.840
22980WAT      O69181   8.339   7.285   3.397
22980WAT     H169182   8.276   7.334   3.338
22980WAT     H269183   8.377   7.207   3.347
22981WAT      O69184   3.918   1.163   6.292
22981WAT     H169185   3.834   1.133   6.248
22981WAT     H269186   3.974   1.083   6.315
22982WAT      O69187   8.644   9.591   4.917
22982WAT     H169188   8.694   9.677   4.930
22982WAT     H269189   8.635   9.544   5.005
22983WAT      O69190   4.201   2.054   9.464
22983WAT     H169191   4.209   2.112   9.382
22983WAT     H269192   4.166   1.964   9.437
22984WAT      O69193   2.579   2.397   7.842
22984WAT     H169194   2.528   2.346   7.773
22984WAT     H269195   2.522   2.409   7.923
22985WAT      O69196   2.964   2.899   2.963
22985WAT     H169197   2.975   2.888   3.062
22985WAT     H269198   2.981   2.995   2.939
22986WAT      O69199   0.083   1.611   9.292
22986WAT     H169200   0.178   1.591   9.270
22986WAT     H269201   0.050   1.546   9.361
22987WAT      O69202   4.182   1.191   3.544
22987WAT     H169203   4.196   1.111   3.487
22987WAT     H269204   4.198   1.274   3.491
22988WAT      O69205   7.523   9.087   9.736
22988WAT     H169206   7.623   9.093   9.744
22988WAT     H269207   7.500   9.041   9.651
22989WAT      O69208   8.549   6.091   7.132
22989WAT     H169209   8.646   6.097   7.108
22989WAT     H269210   8.529   5.999   7.166
22990WAT      O69211   8.428   1.767   9.381
22990WAT     H169212   8.500   1.714   9.336
22990WAT     H269213   8.343   1.756   9.331
22991WAT      O69214   4.547   2.021   3.492
22991WAT     H169215   4.578   1.993   3.402
22991WAT     H269216   4.620   2.072   3.538
22992WAT      O69217   8.022   9.380   1.386
22992WAT     H169218   8.109   9.415   1.352
22992WAT     H269219   7.946   9.426   1.340
22993WAT      O69220   3.266   8.737   5.714
22993WAT     H169221   3.305   8.814   5.665
22993WAT     H269222   3.340   8.686   5.759
22994WAT      O69223   6.915   8.118   4.004
22994WAT     H169224   6.868   8.147   4.087
22994WAT     H269225   6.989   8.055   4.028
22995WAT      O69226   5.746   0.836   4.957
22995WAT     H169227   5.795   0.773   4.897
22995WAT     H269228   5.809   0.868   5.028
22996WAT      O69229   7.742   3.491   6.105
22996WAT     H169230   7.660   3.436   6.123
22996WAT     H269231   7.759   3.552   6.183
22997WAT      O69232   3.059   7.182   1.715
22997WAT     H169233   3.104   7.269   1.693
22997WAT     H269234   3.064   7.165   1.813
22998WAT      O69235   3.274   4.333   4.778
22998WAT     H169236   3.287   4.338   4.679
22998WAT     H269237   3.177   4.341   4.800
22999WAT      O69238   9.150   0.454   9.511
22999WAT     H169239   9.236   0.435   9.558
22999WAT     H269240   9.157   0.426   9.415
23000WAT      O69241   6.759   8.314   9.040
23000WAT     H169242   6.707   8.399   9.053
23000WAT     H269243   6.839   8.333   8.984
23001WAT      O69244   2.447   8.926   8.191
23001WAT     H169245   2.481   8.957   8.280
23001WAT     H269246   2.487   8.837   8.170
23002WAT      O69247   2.320   4.289   5.376
23002WAT     H169248   2.317   4.261   5.471
23002WAT     H269249   2.231   4.325   5.349
23003WAT      O69250   0.456   8.948   4.607
23003WAT     H169251   0.396   8.913   4.679
23003WAT     H269252   0.542   8.979   4.647
23004WAT      O69253   6.233   0.752   5.843
23004WAT     H169254   6.164   0.812   5.882
23004WAT     H269255   6.319   0.762   5.894
23005WAT      O69256   5.544   1.362   4.300
23005WAT     H169257   5.549   1.380   4.398
23005WAT     H269258   5.577   1.270   4.282
23006WAT      O69259   2.340   7.530   0.479
23006WAT     H169260   2.311   7.572   0.394
23006WAT     H269261   2.411   7.463   0.461
23007WAT      O69262   1.522   2.420   1.917
23007WAT     H169263   1.547   2.440   1.822
23007WAT     H269264   1.469   2.335   1.920
23008WAT      O69265   6.024   6.863   9.423
23008WAT     H169266   5.972   6.935   9.469
23008WAT     H269267   5.989   6.849   9.331
23009WAT      O69268   8.473   1.491   1.172
23009WAT     H169269   8.430   1.403   1.155
23009WAT     H269270   8.537   1.512   1.097
23010WAT      O69271   5.227   4.300   8.958
23010WAT     H169272   5.185   4.358   8.887
23010WAT     H269273   5.242   4.354   9.041
23011WAT      O69274   6.292   6.602   8.846
23011WAT     H169275   6.371   6.548   8.817
23011WAT     H269276   6.290   6.607   8.946
23012WAT      O69277   3.285   5.932   0.131
23012WAT     H169278   3.340   5.939   0.047
23012WAT     H269279   3.343   5.896   0.205
23013WAT      O69280   2.613   2.055   0.646
23013WAT     H169281   2.532   2.073   0.702
23013WAT     H269282   2.655   1.969   0.673
23014WAT      O69283   6.683   8.792   0.559
23014WAT     H169284   6.684   8.721   0.488
23014WAT     H269285   6.705   8.880   0.518
23015WAT      O69286   7.337   1.191   8.658
23015WAT     H169287   7.293   1.162   8.743
23015WAT     H269288   7.299   1.139   8.581
23016WAT      O69289   5.131   3.976   7.261
23016WAT     H169290   5.063   3.974   7.335
23016WAT     H269291   5.086   3.958   7.174
23017WAT      O69292   1.609   1.877   3.970
23017WAT     H169293   1.632   1.955   3.911
23017WAT     H269294   1.591   1.797   3.913
23018WAT      O69295   0.291   2.694   2.538
23018WAT     H169296   0.352   2.730   2.466
23018WAT     H269297   0.306   2.596   2.548
23019WAT      O69298   9.183   2.023   5.993
23019WAT     H169299   9.174   2.040   5.895
23019WAT     H269300   9.280   2.019   6.017
23020WAT      O69301   5.895   2.251   9.802
23020WAT     H169302   5.903   2.265   9.901
23020WAT     H269303   5.858   2.334   9.760
23021WAT      O69304   2.875   7.551   2.177
23021WAT     H169305   2.871   7.601   2.091
23021WAT     H269306   2.867   7.453   2.160
23022WAT      O69307   5.673   6.598   1.924
23022WAT     H169308   5.590   6.632   1.879
23022WAT     H269309   5.648   6.544   2.004
23023WAT      O69310   2.483   1.066   4.572
23023WAT     H169311   2.577   1.097   4.588
23023WAT     H269312   2.484   0.981   4.521
23024WAT      O69313   5.688   1.666   3.483
23024WAT     H169314   5.694   1.601   3.408
23024WAT     H269315   5.657   1.755   3.449
23025WAT      O69316   8.918   5.295   9.176
23025WAT     H169317   8.848   5.365   9.163
23025WAT     H269318   8.937   5.283   9.273
23026WAT      O69319   5.884   7.378   3.270
23026WAT     H169320   5.861   7.445   3.200
23026WAT     H269321   5.983   7.373   3.281
23027WAT      O69322   9.665   3.913   6.355
23027WAT     H169323   9.751   3.867   6.375
23027WAT     H269324   9.631   3.882   6.266
23028WAT      O69325   6.783   3.863   3.272
23028WAT     H169326   6.881   3.873   3.260
23028WAT     H269327   6.747   3.943   3.322
23029WAT      O69328   5.679   7.130   6.079
23029WAT     H169329   5.771   7.169   6.084
23029WAT     H269330   5.672   7.074   5.997
23030WAT      O69331   1.312   4.020   0.102
23030WAT     H169332   1.230   4.075   0.119
23030WAT     H269333   1.350   4.044   0.013
23031WAT      O69334   1.833   7.689   4.240
23031WAT     H169335   1.846   7.590   4.234
23031WAT     H269336   1.768   7.709   4.313
23032WAT      O69337   5.465   6.724   7.109
23032WAT     H169338   5.413   6.662   7.050
23032WAT     H269339   5.420   6.730   7.199
23033WAT      O69340   7.541   5.605   5.347
23033WAT     H169341   7.524   5.509   5.370
23033WAT     H269342   7.472   5.662   5.391
23034WAT      O69343   3.355   8.437   3.896
23034WAT     H169344   3.306   8.398   3.974
23034WAT     H269345   3.300   8.424   3.813
23035WAT      O69346   3.926   8.494   3.852
23035WAT     H169347   3.942   8.582   3.808
23035WAT     H269348   3.937   8.421   3.785
23036WAT      O69349   8.864   8.936   0.920
23036WAT     H169350   8.878   8.838   0.905
23036WAT     H269351   8.950   8.977   0.953
23037WAT      O69352   8.700   3.772   7.820
23037WAT     H169353   8.621   3.731   7.866
23037WAT     H269354   8.769   3.701   7.803
23038WAT      O69355   2.023   6.810   8.946
23038WAT     H169356   2.033   6.899   8.992
23038WAT     H269357   2.111   6.763   8.947
23039WAT      O69358   8.334   6.048   0.547
23039WAT     H169359   8.252   5.991   0.541
23039WAT     H269360   8.309   6.137   0.586
23040WAT      O69361   2.458   3.021   8.326
23040WAT     H169362   2.432   3.112   8.356
23040WAT     H269363   2.555   3.020   8.302
23041WAT      O69364   9.048   3.871   1.470
23041WAT     H169365   9.145   3.891   1.467
23041WAT     H269366   9.029   3.791   1.412
23042WAT      O69367   7.577   8.716   1.208
23042WAT     H169368   7.511   8.642   1.215
23042WAT     H269369   7.668   8.681   1.232
23043WAT      O69370   8.729   6.433   2.390
23043WAT     H169371   8.762   6.502   2.325
23043WAT     H269372   8.751   6.461   2.483
23044WAT      O69373   6.751   7.402   3.145
23044WAT     H169374   6.841   7.404   3.101
23044WAT     H269375   6.720   7.496   3.160
23045WAT      O69376   2.439   5.254   0.566
23045WAT     H169377   2.450   5.305   0.651
23045WAT     H269378   2.431   5.156   0.586
23046WAT      O69379   1.222   7.277   8.774
23046WAT     H169380   1.302   7.274   8.715
23046WAT     H269381   1.224   7.361   8.828
23047WAT      O69382   8.455   9.309   1.575
23047WAT     H169383   8.375   9.313   1.635
23047WAT     H269384   8.426   9.305   1.480
23048WAT      O69385   7.183   9.173   5.435
23048WAT     H169386   7.277   9.184   5.467
23048WAT     H269387   7.182   9.113   5.355
23049WAT      O69388   0.972   7.128   3.005
23049WAT     H169389   1.054   7.072   2.993
23049WAT     H269390   0.999   7.225   3.006
23050WAT      O69391   0.221   8.999   1.262
23050WAT     H169392   0.301   9.037   1.216
23050WAT     H269393   0.247   8.970   1.355
23051WAT      O69394   4.764   1.049   6.857
23051WAT     H169395   4.730   1.004   6.774
23051WAT     H269396   4.821   0.985   6.908
23052WAT      O69397   3.951   5.077   6.487
23052WAT     H169398   3.946   4.984   6.451
23052WAT     H269399   4.046   5.105   6.494
23053WAT      O69400   8.634   8.802   6.589
23053WAT     H169401   8.554   8.834   6.640
23053WAT     H269402   8.714   8.856   6.616
23054WAT      O69403   6.743   1.769   1.617
23054WAT     H169404   6.693   1.716   1.686
23054WAT     H269405   6.777   1.706   1.546
23055WAT      O69406   6.012   8.276   9.862
23055WAT     H169407   6.083   8.303   9.927
23055WAT     H269408   5.980   8.357   9.813
23056WAT      O69409   0.092   9.720   2.474
23056WAT     H169410   0.093   9.819   2.467
23056WAT     H269411   0.104   9.679   2.383
23057WAT      O69412   5.832   5.127   9.837
23057WAT     H169413   5.764   5.081   9.781
23057WAT     H269414   5.794   5.213   9.872
23058WAT      O69415   4.001   0.866   0.606
23058WAT     H169416   3.996   0.940   0.673
23058WAT     H269417   3.911   0.822   0.598
23059WAT      O69418   0.550   9.285   7.475
23059WAT     H169419   0.553   9.382   7.452
23059WAT     H269420   0.634   9.241   7.446
23060WAT      O69421   7.548   1.697   5.467
23060WAT     H169422   7.592   1.641   5.538
23060WAT     H269423   7.449   1.687   5.474
23061WAT      O69424   2.038   4.319   7.852
23061WAT     H169425   2.026   4.302   7.950
23061WAT     H269426   2.129   4.286   7.824
23062WAT      O69427   9.072   9.448   1.851
23062WAT     H169428   9.061   9.486   1.943
23062WAT     H269429   9.054   9.350   1.853
23063WAT      O69430   1.477   4.271   3.240
23063WAT     H169431   1.527   4.357   3.247
23063WAT     H269432   1.389   4.279   3.286
23064WAT      O69433   1.949   7.770   7.594
23064WAT     H169434   2.004   7.849   7.619
23064WAT     H269435   1.852   7.790   7.610
23065WAT      O69436   4.800   0.311   2.488
23065WAT     H169437   4.899   0.320   2.496
23065WAT     H269438   4.758   0.402   2.488
23066WAT      O69439   7.255   7.025   6.331
23066WAT     H169440   7.179   6.972   6.368
23066WAT     H269441   7.238   7.045   6.235
23067WAT      O69442   4.601   1.878   0.800
23067WAT     H169443   4.607   1.902   0.897
23067WAT     H269444   4.690   1.892   0.757
23068WAT      O69445   4.093   8.543   1.231
23068WAT     H169446   4.105   8.570   1.326
23068WAT     H269447   3.995   8.543   1.209
23069WAT      O69448   7.676   1.810   4.684
23069WAT     H169449   7.645   1.903   4.669
23069WAT     H269450   7.770   1.800   4.652
23070WAT      O69451   7.137   2.628   7.853
23070WAT     H169452   7.076   2.570   7.907
23070WAT     H269453   7.168   2.578   7.772
23071WAT      O69454   9.549   7.482   7.204
23071WAT     H169455   9.571   7.447   7.295
23071WAT     H269456   9.484   7.557   7.211
23072WAT      O69457   1.951   5.505   5.627
23072WAT     H169458   1.939   5.420   5.576
23072WAT     H269459   1.960   5.582   5.564
23073WAT      O69460   5.792   2.157   1.388
23073WAT     H169461   5.806   2.179   1.291
23073WAT     H269462   5.814   2.237   1.444
23074WAT      O69463   8.677   8.369   0.209
23074WAT     H169464   8.585   8.344   0.178
23074WAT     H269465   8.744   8.325   0.150
23075WAT      O69466   8.322   9.617   3.088
23075WAT     H169467   8.315   9.519   3.066
23075WAT     H269468   8.232   9.652   3.113
23076WAT      O69469   2.601   7.349   0.559
23076WAT     H169470   2.694   7.385   0.551
23076WAT     H269471   2.570   7.361   0.653
23077WAT      O69472   5.974   8.667   2.019
23077WAT     H169473   6.037   8.590   2.030
23077WAT     H269474   6.022   8.744   1.978
23078WAT      O69475   4.287   4.530   3.728
23078WAT     H169476   4.356   4.488   3.787
23078WAT     H269477   4.253   4.614   3.770
23079WAT      O69478   6.902   0.753   7.628
23079WAT     H169479   6.889   0.848   7.658
23079WAT     H269480   6.855   0.692   7.691
23080WAT      O69481   8.573   3.693   7.384
23080WAT     H169482   8.504   3.632   7.344
23080WAT     H269483   8.654   3.640   7.409
23081WAT      O69484   6.579   9.584   5.490
23081WAT     H169485   6.582   9.549   5.397
23081WAT     H269486   6.672   9.591   5.527
23082WAT      O69487   9.739   3.883   2.937
23082WAT     H169488   9.731   3.876   2.837
23082WAT     H269489   9.647   3.882   2.978
23083WAT      O69490   6.344   3.804   6.648
23083WAT     H169491   6.281   3.881   6.645
23083WAT     H269492   6.301   3.727   6.695
23084WAT      O69493   9.060   5.803   3.132
23084WAT     H169494   9.129   5.736   3.105
23084WAT     H269495   9.104   5.891   3.148
23085WAT      O69496   9.560   0.314   4.954
23085WAT     H169497   9.541   0.225   4.997
23085WAT     H269498   9.647   0.310   4.905
23086WAT      O69499   5.790   1.949   3.636
23086WAT     H169500   5.812   1.857   3.669
23086WAT     H269501   5.693   1.968   3.653
23087WAT      O69502   2.915   5.275   5.547
23087WAT     H169503   2.971   5.209   5.496
23087WAT     H269504   2.888   5.236   5.634
23088WAT      O69505   6.879   4.471   9.704
23088WAT     H169506   6.876   4.489   9.803
23088WAT     H269507   6.891   4.373   9.688
23089WAT      O69508   5.180   0.032   0.861
23089WAT     H169509   5.263   0.068   0.818
23089WAT     H269510   5.188   0.037   0.960
23090WAT      O69511   9.732   6.882   3.370
23090WAT     H169512   9.673   6.829   3.431
23090WAT     H269513   9.698   6.975   3.362
23091WAT      O69514   2.427   0.512   8.897
23091WAT     H169515   2.509   0.471   8.937
23091WAT     H269516   2.346   0.471   8.938
23092WAT      O69517   8.517   9.169   0.465
23092WAT     H169518   8.544   9.147   0.371
23092WAT     H269519   8.590   9.221   0.510
23093WAT      O69520   5.278   1.108   5.180
23093WAT     H169521   5.265   1.052   5.262
23093WAT     H269522   5.193   1.108   5.126
23094WAT      O69523   4.793   0.976   6.355
23094WAT     H169524   4.887   0.943   6.345
23094WAT     H269525   4.791   1.074   6.337
23095WAT      O69526   6.171   9.229   6.237
23095WAT     H169527   6.225   9.244   6.320
23095WAT     H269528   6.089   9.176   6.260
23096WAT      O69529   8.648   3.051   1.596
23096WAT     H169530   8.729   3.000   1.567
23096WAT     H269531   8.650   3.062   1.695
23097WAT      O69532   2.047   3.291   1.498
23097WAT     H169533   2.017   3.386   1.484
23097WAT     H269534   2.051   3.244   1.409
23098WAT      O69535   4.468   9.004   5.456
23098WAT     H169536   4.538   8.933   5.460
23098WAT     H269537   4.510   9.091   5.429
23099WAT      O69538   0.574   9.492   8.692
23099WAT     H169539   0.589   9.484   8.594
23099WAT     H269540   0.552   9.587   8.715
23100WAT      O69541   4.659   4.078   6.176
23100WAT     H169542   4.733   4.090   6.110
23100WAT     H269543   4.572   4.099   6.132
23101WAT      O69544   1.619   2.697   8.256
23101WAT     H169545   1.646   2.793   8.243
23101WAT     H269546   1.537   2.678   8.202
23102WAT      O69547   0.568   5.449   4.148
23102WAT     H169548   0.619   5.410   4.225
23102WAT     H269549   0.496   5.385   4.120
23103WAT      O69550   8.883   5.867   1.316
23103WAT     H169551   8.889   5.887   1.219
23103WAT     H269552   8.823   5.934   1.361
23104WAT      O69553   2.894   9.091   9.806
23104WAT     H169554   2.924   9.014   9.752
23104WAT     H269555   2.969   9.157   9.817
23105WAT      O69556   6.915   7.426   5.157
23105WAT     H169557   7.005   7.389   5.132
23105WAT     H269558   6.860   7.437   5.075
23106WAT      O69559   5.469   6.199   9.102
23106WAT     H169560   5.486   6.172   9.197
23106WAT     H269561   5.375   6.230   9.092
23107WAT      O69562   8.759   6.249   2.182
23107WAT     H169563   8.716   6.307   2.114
23107WAT     H269564   8.757   6.294   2.271
23108WAT      O69565   2.417   5.523   9.183
23108WAT     H169566   2.425   5.483   9.274
23108WAT     H269567   2.409   5.451   9.115
23109WAT      O69568   5.044   9.149   2.885
23109WAT     H169569   5.065   9.059   2.847
23109WAT     H269570   4.970   9.191   2.831
23110WAT      O69571   5.230   7.703   6.504
23110WAT     H169572   5.299   7.631   6.512
23110WAT     H269573   5.248   7.757   6.422
23111WAT      O69574   8.012   7.519   5.095
23111WAT     H169575   8.047   7.504   5.003
23111WAT     H269576   7.918   7.484   5.101
23112WAT      O69577   3.614   6.860   2.715
23112WAT     H169578   3.676   6.860   2.793
23112WAT     H269579   3.556   6.778   2.718
23113WAT      O69580   3.170   8.438   2.272
23113WAT     H169581   3.210   8.456   2.362
23113WAT     H269582   3.082   8.486   2.265
23114WAT      O69583   0.413   7.791   8.573
23114WAT     H169584   0.461   7.835   8.649
23114WAT     H269585   0.386   7.698   8.601
23115WAT      O69586   1.711   1.031   6.278
23115WAT     H169587   1.702   0.949   6.222
23115WAT     H269588   1.677   1.013   6.370
23116WAT      O69589   0.392   2.372   3.650
23116WAT     H169590   0.311   2.343   3.702
23116WAT     H269591   0.407   2.470   3.662
23117WAT      O69592   1.170   3.594   4.933
23117WAT     H169593   1.102   3.541   4.984
23117WAT     H269594   1.211   3.662   4.993
23118WAT      O69595   6.572   1.275   6.047
23118WAT     H169596   6.659   1.234   6.020
23118WAT     H269597   6.497   1.226   6.002
23119WAT      O69598   5.748   7.195   2.284
23119WAT     H169599   5.781   7.158   2.370
23119WAT     H269600   5.654   7.229   2.296
23120WAT      O69601   6.644   4.487   8.341
23120WAT     H169602   6.593   4.560   8.386
23120WAT     H269603   6.703   4.441   8.408
23121WAT      O69604   5.849   6.800   9.721
23121WAT     H169605   5.826   6.829   9.814
23121WAT     H269606   5.936   6.751   9.722
23122WAT      O69607   4.010   6.621   0.148
23122WAT     H169608   4.106   6.642   0.126
23122WAT     H269609   3.984   6.669   0.232
23123WAT      O69610   4.875   8.023   7.502
23123WAT     H169611   4.781   7.988   7.509
23123WAT     H269612   4.877   8.098   7.436
23124WAT      O69613   7.727   3.424   7.439
23124WAT     H169614   7.756   3.518   7.456
23124WAT     H269615   7.632   3.423   7.407
23125WAT      O69616   8.295   9.233   5.980
23125WAT     H169617   8.211   9.262   5.935
23125WAT     H269618   8.346   9.173   5.918
23126WAT      O69619   1.330   8.404   7.535
23126WAT     H169620   1.379   8.385   7.620
23126WAT     H269621   1.339   8.325   7.474
23127WAT      O69622   8.999   1.787   2.474
23127WAT     H169623   9.012   1.691   2.498
23127WAT     H269624   9.036   1.845   2.547
23128WAT      O69625   5.545   9.358   3.473
23128WAT     H169626   5.590   9.294   3.411
23128WAT     H269627   5.530   9.445   3.426
23129WAT      O69628   4.337   3.952   6.630
23129WAT     H169629   4.400   3.932   6.555
23129WAT     H269630   4.271   3.877   6.640
23130WAT      O69631   6.927   9.502   5.138
23130WAT     H169632   7.009   9.545   5.176
23130WAT     H269633   6.878   9.567   5.081
23131WAT      O69634   8.160   6.952   6.570
23131WAT     H169635   8.160   7.003   6.656
23131WAT     H269636   8.165   6.854   6.589
23132WAT      O69637   9.763   1.071   2.639
23132WAT     H169638   9.681   1.047   2.691
23132WAT     H269639   9.817   0.988   2.622
23133WAT      O69640   8.566   2.894   2.180
23133WAT     H169641   8.512   2.934   2.106
23133WAT     H269642   8.649   2.948   2.193
23134WAT      O69643   2.886   2.954   4.432
23134WAT     H169644   2.934   2.869   4.455
23134WAT     H269645   2.844   2.946   4.342
23135WAT      O69646   2.877   9.182   7.667
23135WAT     H169647   2.941   9.135   7.728
23135WAT     H269648   2.802   9.120   7.643
23136WAT      O69649   9.333   1.038   6.233
23136WAT     H169650   9.258   1.067   6.293
23136WAT     H269651   9.299   0.973   6.166
23137WAT      O69652   6.513   0.650   4.113
23137WAT     H169653   6.611   0.653   4.134
23137WAT     H269654   6.475   0.564   4.147
23138WAT      O69655   0.405   0.510   3.025
23138WAT     H169656   0.342   0.545   3.095
23138WAT     H269657   0.441   0.421   3.054
23139WAT      O69658   9.404   2.726   1.770
23139WAT     H169659   9.451   2.645   1.805
23139WAT     H269660   9.423   2.804   1.829
23140WAT      O69661   9.287   1.837   5.731
23140WAT     H169662   9.372   1.831   5.782
23140WAT     H269663   9.305   1.871   5.638
23141WAT      O69664   9.483   8.396   4.871
23141WAT     H169665   9.459   8.451   4.792
23141WAT     H269666   9.460   8.300   4.853
23142WAT      O69667   1.339   8.371   4.206
23142WAT     H169668   1.298   8.458   4.177
23142WAT     H269669   1.323   8.359   4.304
23143WAT      O69670   1.180   4.509   6.294
23143WAT     H169671   1.160   4.467   6.383
23143WAT     H269672   1.095   4.544   6.253
23144WAT      O69673   1.892   0.241   3.453
23144WAT     H169674   1.983   0.199   3.459
23144WAT     H269675   1.892   0.328   3.502
23145WAT      O69676   8.746   2.998   5.453
23145WAT     H169677   8.785   2.989   5.544
23145WAT     H269678   8.820   2.995   5.385
23146WAT      O69679   5.608   2.390   8.361
23146WAT     H169680   5.574   2.470   8.311
23146WAT     H269681   5.704   2.375   8.338
23147WAT      O69682   2.551   0.816   0.107
23147WAT     H169683   2.616   0.873   0.157
23147WAT     H269684   2.601   0.754   0.046
23148WAT      O69685   5.927   0.473   8.598
23148WAT     H169686   5.845   0.447   8.649
23148WAT     H269687   5.949   0.569   8.617
23149WAT      O69688   5.558   2.484   3.617
23149WAT     H169689   5.468   2.486   3.662
23149WAT     H269690   5.565   2.561   3.554
23150WAT      O69691   6.326   4.385   1.481
23150WAT     H169692   6.366   4.327   1.410
23150WAT     H269693   6.398   4.416   1.543
23151WAT      O69694   5.252   2.006   4.368
23151WAT     H169695   5.180   1.939   4.350
23151WAT     H269696   5.237   2.088   4.313
23152WAT      O69697   9.293   8.705   7.539
23152WAT     H169698   9.266   8.671   7.449
23152WAT     H269699   9.385   8.744   7.534
23153WAT      O69700   0.221   5.723   1.147
23153WAT     H169701   0.145   5.715   1.212
23153WAT     H269702   0.221   5.814   1.107
23154WAT      O69703   8.792   7.303   2.773
23154WAT     H169704   8.855   7.380   2.789
23154WAT     H269705   8.717   7.308   2.839
23155WAT      O69706   7.363   2.885   7.633
23155WAT     H169707   7.370   2.984   7.633
23155WAT     H269708   7.276   2.857   7.674
23156WAT      O69709   1.507   7.882   7.588
23156WAT     H169710   1.559   7.924   7.514
23156WAT     H269711   1.569   7.830   7.647
23157WAT      O69712   4.909   7.136   8.059
23157WAT     H169713   4.965   7.053   8.055
23157WAT     H269714   4.824   7.121   8.009
23158WAT      O69715   1.197   7.562   2.696
23158WAT     H169716   1.169   7.467   2.710
23158WAT     H269717   1.126   7.610   2.643
23159WAT      O69718   5.725   3.628   5.991
23159WAT     H169719   5.719   3.702   6.058
23159WAT     H269720   5.821   3.604   5.976
23160WAT      O69721   4.035   3.195   2.784
23160WAT     H169722   3.978   3.171   2.862
23160WAT     H269723   3.995   3.158   2.700
23161WAT      O69724   9.704   5.899   6.241
23161WAT     H169725   9.706   5.905   6.141
23161WAT     H269726   9.674   5.807   6.267
23162WAT      O69727   0.607   1.084   1.406
23162WAT     H169728   0.542   1.015   1.437
23162WAT     H269729   0.675   1.041   1.345
23163WAT      O69730   2.245   9.660   9.710
23163WAT     H169731   2.180   9.736   9.715
23163WAT     H269732   2.337   9.696   9.694
23164WAT      O69733   6.084   4.396   3.709
23164WAT     H169734   6.000   4.360   3.668
23164WAT     H269735   6.073   4.401   3.809
23165WAT      O69736   9.322   6.298   2.891
23165WAT     H169737   9.232   6.291   2.933
23165WAT     H269738   9.312   6.302   2.791
23166WAT      O69739   6.061   8.614   7.962
23166WAT     H169740   6.094   8.706   7.939
23166WAT     H269741   6.043   8.609   8.060
23167WAT      O69742   7.102   8.934   3.977
23167WAT     H169743   7.132   9.029   3.975
23167WAT     H269744   7.003   8.931   3.994
23168WAT      O69745   4.611   7.745   4.299
23168WAT     H169746   4.532   7.701   4.340
23168WAT     H269747   4.691   7.733   4.358
23169WAT      O69748   0.767   0.565   2.656
23169WAT     H169749   0.697   0.626   2.619
23169WAT     H269750   0.858   0.601   2.634
23170WAT      O69751   1.433   8.164   4.688
23170WAT     H169752   1.354   8.161   4.750
23170WAT     H269753   1.515   8.191   4.738
23171WAT      O69754   7.126   9.076   5.175
23171WAT     H169755   7.044   9.107   5.128
23171WAT     H269756   7.206   9.123   5.137
23172WAT      O69757   5.696   2.228   2.671
23172WAT     H169758   5.736   2.202   2.584
23172WAT     H269759   5.688   2.148   2.730
23173WAT      O69760   9.695   8.555   0.157
23173WAT     H169761   9.766   8.596   0.215
23173WAT     H269762   9.670   8.465   0.195
23174WAT      O69763   6.000   5.979   9.861
23174WAT     H169764   5.933   5.907   9.879
23174WAT     H269765   5.961   6.067   9.886
23175WAT      O69766   2.412   7.028   9.441
23175WAT     H169767   2.397   6.931   9.462
23175WAT     H269768   2.329   7.065   9.400
23176WAT      O69769   5.945   3.403   7.948
23176WAT     H169770   5.857   3.373   7.984
23176WAT     H269771   5.932   3.445   7.859
23177WAT      O69772   3.996   0.760   5.398
23177WAT     H169773   3.976   0.740   5.302
23177WAT     H269774   4.094   0.748   5.415
23178WAT      O69775   8.093   6.077   1.760
23178WAT     H169776   8.018   6.141   1.779
23178WAT     H269777   8.093   6.055   1.662
23179WAT      O69778   8.349   7.600   8.911
23179WAT     H169779   8.361   7.599   9.011
23179WAT     H269780   8.340   7.505   8.879
23180WAT      O69781   9.144   6.983   8.908
23180WAT     H169782   9.220   7.043   8.885
23180WAT     H269783   9.077   7.033   8.962
23181WAT      O69784   1.115   6.011   4.769
23181WAT     H169785   1.052   6.071   4.720
23181WAT     H269786   1.178   6.066   4.824
23182WAT      O69787   8.108   4.577   7.304
23182WAT     H169788   8.060   4.593   7.218
23182WAT     H269789   8.146   4.485   7.305
23183WAT      O69790   3.301   2.704   5.581
23183WAT     H169791   3.317   2.790   5.630
23183WAT     H269792   3.226   2.717   5.516
23184WAT      O69793   3.468   9.834   7.887
23184WAT     H169794   3.455   9.933   7.879
23184WAT     H269795   3.515   9.813   7.973
23185WAT      O69796   7.160   1.277   0.015
23185WAT     H169797   7.232   1.208   0.012
23185WAT     H269798   7.145   1.306   0.110
23186WAT      O69799   6.910   9.397   0.795
23186WAT     H169800   6.955   9.411   0.883
23186WAT     H269801   6.909   9.299   0.773
23187WAT      O69802   6.107   4.978   7.709
23187WAT     H169803   6.072   5.031   7.631
23187WAT     H269804   6.139   4.889   7.677
23188WAT      O69805   2.545   6.831   9.723
23188WAT     H169806   2.481   6.908   9.719
23188WAT     H269807   2.612   6.841   9.650
23189WAT      O69808   1.973   1.699   1.800
23189WAT     H169809   1.976   1.799   1.795
23189WAT     H269810   2.027   1.660   1.726
23190WAT      O69811   6.318   4.022   7.215
23190WAT     H169812   6.313   4.006   7.116
23190WAT     H269813   6.266   4.105   7.238
23191WAT      O69814   4.359   1.179   4.814
23191WAT     H169815   4.312   1.142   4.894
23191WAT     H269816   4.442   1.127   4.797
23192WAT      O69817   6.704   2.981   3.998
23192WAT     H169818   6.748   2.905   4.047
23192WAT     H269819   6.732   3.068   4.039
23193WAT      O69820   9.046   2.737  -0.001
23193WAT     H169821   8.995   2.786   0.069
23193WAT     H269822   9.010   2.644  -0.009
23194WAT      O69823   1.340   2.468   2.725
23194WAT     H169824   1.270   2.494   2.792
23194WAT     H269825   1.309   2.493   2.634
23195WAT      O69826   2.005   9.218   0.452
23195WAT     H169827   2.035   9.142   0.394
23195WAT     H269828   1.905   9.222   0.452
23196WAT      O69829   8.871   7.094   8.786
23196WAT     H169830   8.881   7.183   8.830
23196WAT     H269831   8.944   7.082   8.719
23197WAT      O69832   7.725   1.801   9.055
23197WAT     H169833   7.756   1.783   8.962
23197WAT     H269834   7.625   1.799   9.058
23198WAT      O69835   5.540   3.355   5.302
23198WAT     H169836   5.612   3.422   5.284
23198WAT     H269837   5.574   3.288   5.368
23199WAT      O69838   5.330   8.091   3.768
23199WAT     H169839   5.245   8.125   3.728
23199WAT     H269840   5.392   8.167   3.785
23200WAT      O69841   1.825   0.835   6.796
23200WAT     H169842   1.771   0.800   6.720
23200WAT     H269843   1.763   0.868   6.868
23201WAT      O69844   6.748   5.003   7.443
23201WAT     H169845   6.675   5.067   7.418
23201WAT     H269846   6.772   5.017   7.539
23202WAT      O69847   3.024   7.329   8.423
23202WAT     H169848   3.108   7.295   8.381
23202WAT     H269849   2.947   7.316   8.360
23203WAT      O69850   8.904   2.724   1.704
23203WAT     H169851   8.952   2.688   1.624
23203WAT     H269852   8.970   2.765   1.767
23204WAT      O69853   0.037   7.823   6.422
23204WAT     H169854   0.050   7.725   6.437
23204WAT     H269855  -0.054   7.838   6.382
23205WAT      O69856   8.530   2.820   5.735
23205WAT     H169857   8.510   2.913   5.765
23205WAT     H269858   8.461   2.757   5.772
23206WAT      O69859   7.453   7.162   7.527
23206WAT     H169860   7.537   7.205   7.561
23206WAT     H269861   7.415   7.217   7.453
23207WAT      O69862   4.646   3.577   7.232
23207WAT     H169863   4.668   3.560   7.136
23207WAT     H269864   4.547   3.574   7.244
23208WAT      O69865   8.325   6.658   7.486
23208WAT     H169866   8.392   6.596   7.444
23208WAT     H269867   8.264   6.605   7.545
23209WAT      O69868   5.952   3.273   6.538
23209WAT     H169869   5.977   3.222   6.621
23209WAT     H269870   5.859   3.308   6.548
23210WAT      O69871   9.099   7.702   5.401
23210WAT     H169872   9.075   7.605   5.404
23210WAT     H269873   9.185   7.714   5.352
23211WAT      O69874   5.237   8.938   7.818
23211WAT     H169875   5.327   8.920   7.780
23211WAT     H269876   5.207   8.861   7.874
23212WAT      O69877   5.668   8.409   6.558
23212WAT     H169878   5.732   8.486   6.562
23212WAT     H269879   5.588   8.436   6.504
23213WAT      O69880   4.191   6.516   8.084
23213WAT     H169881   4.209   6.424   8.120
23213WAT     H269882   4.210   6.518   7.986
23214WAT      O69883   2.770   2.714   2.868
23214WAT     H169884   2.701   2.786   2.878
23214WAT     H269885   2.861   2.751   2.885
23215WAT      O69886   0.446   1.768   4.004
23215WAT     H169887   0.509   1.808   3.938
23215WAT     H269888   0.369   1.726   3.957
23216WAT      O69889   9.426   7.985   2.106
23216WAT     H169890   9.505   7.936   2.143
23216WAT     H269891   9.423   7.972   2.007
23217WAT      O69892   3.918   6.511   4.744
23217WAT     H169893   3.904   6.486   4.840
23217WAT     H269894   3.922   6.428   4.688
23218WAT      O69895   1.878   9.408   2.307
23218WAT     H169896   1.973   9.384   2.324
23218WAT     H269897   1.845   9.360   2.226
23219WAT      O69898   4.098   8.262   3.788
23219WAT     H169899   4.074   8.266   3.691
23219WAT     H269900   4.132   8.170   3.809
23220WAT      O69901   7.354   4.740   1.894
23220WAT     H169902   7.445   4.749   1.854
23220WAT     H269903   7.339   4.645   1.921
23221WAT      O69904   3.799   7.025   2.136
23221WAT     H169905   3.735   6.992   2.067
23221WAT     H269906   3.877   7.069   2.091
23222WAT      O69907   5.118   2.903   2.155
23222WAT     H169908   5.139   2.865   2.065
23222WAT     H269909   5.161   2.847   2.226
23223WAT      O69910   4.863   6.155   2.278
23223WAT     H169911   4.904   6.246   2.278
23223WAT     H269912   4.936   6.086   2.280
23224WAT      O69913   3.231   1.668   8.203
23224WAT     H169914   3.257   1.642   8.296
23224WAT     H269915   3.138   1.637   8.184
23225WAT      O69916   9.048   2.013   5.730
23225WAT     H169917   9.091   1.927   5.703
23225WAT     H269918   8.951   2.011   5.704
23226WAT      O69919   5.513   8.001   6.605
23226WAT     H169920   5.604   8.041   6.595
23226WAT     H269921   5.453   8.037   6.534
23227WAT      O69922   7.830   9.490   1.676
23227WAT     H169923   7.876   9.440   1.603
23227WAT     H269924   7.780   9.567   1.638
23228WAT      O69925   5.389   7.028   9.720
23228WAT     H169926   5.367   7.026   9.817
23228WAT     H269927   5.484   6.998   9.706
23229WAT      O69928   6.052   6.746   0.489
23229WAT     H169929   6.143   6.705   0.497
23229WAT     H269930   6.003   6.737   0.576
23230WAT      O69931   1.689   0.109   5.145
23230WAT     H169932   1.758   0.045   5.112
23230WAT     H269933   1.701   0.197   5.100
23231WAT      O69934   0.831   1.218   4.478
23231WAT     H169935   0.812   1.174   4.566
23231WAT     H269936   0.838   1.317   4.492
23232WAT      O69937   4.800   6.997   9.486
23232WAT     H169938   4.735   6.935   9.442
23232WAT     H269939   4.875   7.017   9.422
23233WAT      O69940   4.596   1.144   7.040
23233WAT     H169941   4.663   1.131   6.967
23233WAT     H269942   4.616   1.081   7.115
23234WAT      O69943   2.282   0.749   6.888
23234WAT     H169944   2.331   0.761   6.802
23234WAT     H269945   2.194   0.706   6.872
23235WAT      O69946   5.770   1.326   2.528
23235WAT     H169947   5.775   1.265   2.607
23235WAT     H269948   5.812   1.282   2.449
23236WAT      O69949   0.579   1.823   9.655
23236WAT     H169950   0.509   1.857   9.718
23236WAT     H269951   0.535   1.793   9.570
23237WAT      O69952   9.129   4.368   2.788
23237WAT     H169953   9.043   4.401   2.751
23237WAT     H269954   9.146   4.410   2.878
23238WAT      O69955   8.935   4.985   9.826
23238WAT     H169956   8.998   5.034   9.887
23238WAT     H269957   8.848   4.969   9.873
23239WAT      O69958   3.309   3.642   5.089
23239WAT     H169959   3.269   3.576   5.154
23239WAT     H269960   3.235   3.685   5.037
23240WAT      O69961   5.306   1.940   3.047
23240WAT     H169962   5.353   2.026   3.066
23240WAT     H269963   5.370   1.875   3.005
23241WAT      O69964   7.950   2.551   8.593
23241WAT     H169965   7.995   2.601   8.519
23241WAT     H269966   8.014   2.486   8.634
23242WAT      O69967   8.179   0.952   2.744
23242WAT     H169968   8.260   0.991   2.788
23242WAT     H269969   8.203   0.919   2.652
23243WAT      O69970   6.875   8.119   5.593
23243WAT     H169971   6.812   8.171   5.650
23243WAT     H269972   6.901   8.034   5.640
23244WAT      O69973   5.217   9.504   5.323
23244WAT     H169974   5.178   9.420   5.286
23244WAT     H269975   5.190   9.581   5.265
23245WAT      O69976   2.998   5.568   1.647
23245WAT     H169977   2.983   5.605   1.739
23245WAT     H269978   2.966   5.473   1.644
23246WAT      O69979   4.956   6.607   2.251
23246WAT     H169980   4.865   6.579   2.222
23246WAT     H269981   4.949   6.666   2.331
23247WAT      O69982   8.204   3.217   4.457
23247WAT     H169983   8.122   3.229   4.400
23247WAT     H269984   8.182   3.157   4.534
23248WAT      O69985   8.659   6.627   7.592
23248WAT     H169986   8.686   6.721   7.574
23248WAT     H269987   8.612   6.590   7.511
23249WAT      O69988   0.831   4.632   1.566
23249WAT     H169989   0.913   4.669   1.523
23249WAT     H269990   0.774   4.706   1.600
23250WAT      O69991   0.715   0.590   2.276
23250WAT     H169992   0.668   0.514   2.232
23250WAT     H269993   0.813   0.569   2.284
23251WAT      O69994   8.721   0.099   0.708
23251WAT     H169995   8.766   0.186   0.690
23251WAT     H269996   8.778   0.025   0.672
23252WAT      O69997   4.438   1.179   4.326
23252WAT     H169998   4.402   1.179   4.232
23252WAT     H269999   4.362   1.187   4.390
23253WAT      O70000   4.195   5.800   0.565
23253WAT     H170001   4.132   5.867   0.525
23253WAT     H270002   4.264   5.774   0.497
23254WAT      O70003   0.248   8.539   0.951
23254WAT     H170004   0.256   8.638   0.944
23254WAT     H270005   0.337   8.499   0.974
23255WAT      O70006   7.486   6.692   2.403
23255WAT     H170007   7.514   6.756   2.332
23255WAT     H270008   7.472   6.741   2.489
23256WAT      O70009   6.044   2.923   9.735
23256WAT     H170010   6.138   2.939   9.766
23256WAT     H270011   5.985   2.907   9.814
23257WAT      O70012   3.938   0.205   1.944
23257WAT     H170013   4.038   0.210   1.937
23257WAT     H270014   3.900   0.298   1.939
23258WAT      O70015   5.994   8.053   9.063
23258WAT     H170016   6.036   7.970   9.026
23258WAT     H270017   6.047   8.086   9.141
23259WAT      O70018   1.341   1.469   7.259
23259WAT     H170019   1.267   1.417   7.216
23259WAT     H270020   1.303   1.552   7.299
23260WAT      O70021   5.064   2.349   3.323
23260WAT     H170022   4.979   2.400   3.332
23260WAT     H270023   5.123   2.393   3.255
23261WAT      O70024   4.214   0.604   4.117
23261WAT     H170025   4.264   0.689   4.132
23261WAT     H270026   4.118   0.616   4.143
23262WAT      O70027   7.601   4.227   2.423
23262WAT     H170028   7.607   4.308   2.483
23262WAT     H270029   7.620   4.145   2.477
23263WAT      O70030   3.466   6.805   9.027
23263WAT     H170031   3.453   6.798   8.929
23263WAT     H270032   3.419   6.729   9.073
23264WAT      O70033   4.641   4.619   4.871
23264WAT     H170034   4.589   4.647   4.790
23264WAT     H270035   4.636   4.691   4.940
23265WAT      O70036   4.380   2.475   1.472
23265WAT     H170037   4.478   2.469   1.452
23265WAT     H270038   4.363   2.553   1.533
23266WAT      O70039   7.923   8.260   4.311
23266WAT     H170040   7.872   8.198   4.252
23266WAT     H270041   7.863   8.295   4.383
23267WAT      O70042   8.309   8.536   4.670
23267WAT     H170043   8.390   8.573   4.716
23267WAT     H270044   8.265   8.469   4.729
23268WAT      O70045   2.564   4.885   6.382
23268WAT     H170046   2.500   4.889   6.305
23268WAT     H270047   2.573   4.975   6.423
23269WAT      O70048   2.848   0.170   5.468
23269WAT     H170049   2.940   0.196   5.498
23269WAT     H270050   2.853   0.132   5.376
23270WAT      O70051   5.294   4.306   5.779
23270WAT     H170052   5.358   4.358   5.835
23270WAT     H270053   5.325   4.308   5.684
23271WAT      O70054   4.518   7.013   1.229
23271WAT     H170055   4.550   7.051   1.316
23271WAT     H270056   4.440   7.065   1.196
23272WAT      O70057   1.410   2.696   3.856
23272WAT     H170058   1.437   2.708   3.951
23272WAT     H270059   1.331   2.635   3.851
23273WAT      O70060   3.289   7.445   0.102
23273WAT     H170061   3.305   7.396   0.016
23273WAT     H270062   3.273   7.378   0.175
23274WAT      O70063   3.668   4.884   5.052
23274WAT     H170064   3.758   4.892   5.010
23274WAT     H270065   3.673   4.825   5.132
23275WAT      O70066   6.101   4.254   1.004
23275WAT     H170067   6.112   4.156   1.024
23275WAT     H270068   6.124   4.308   1.085
23276WAT      O70069   8.394   7.264   5.757
23276WAT     H170070   8.397   7.293   5.662
23276WAT     H270071   8.487   7.253   5.792
23277WAT      O70072   6.267   2.142   6.642
23277WAT     H170073   6.274   2.129   6.543
23277WAT     H270074   6.186   2.197   6.663
23278WAT      O70075   5.378   1.567   2.819
23278WAT     H170076   5.344   1.522   2.901
23278WAT     H270077   5.400   1.499   2.750
23279WAT      O70078   5.603   2.074   8.694
23279WAT     H170079   5.698   2.045   8.708
23279WAT     H270080   5.567   2.112   8.780
23280WAT      O70081   6.996   8.128   5.867
23280WAT     H170082   7.024   8.175   5.950
23280WAT     H270083   6.925   8.181   5.821
23281WAT      O70084   7.222   6.752   2.442
23281WAT     H170085   7.140   6.709   2.404
23281WAT     H270086   7.303   6.718   2.395
23282WAT      O70087   7.408   3.901   7.673
23282WAT     H170088   7.385   3.804   7.666
23282WAT     H270089   7.492   3.912   7.727
23283WAT      O70090   2.788   7.754   3.239
23283WAT     H170091   2.886   7.760   3.256
23283WAT     H270092   2.752   7.844   3.216
23284WAT      O70093   8.151   2.773   2.651
23284WAT     H170094   8.069   2.745   2.700
23284WAT     H270095   8.230   2.765   2.711
23285WAT      O70096   8.327   0.726   9.454
23285WAT     H170097   8.362   0.746   9.363
23285WAT     H270098   8.371   0.786   9.521
23286WAT      O70099   2.352   2.277   2.998
23286WAT     H170100   2.306   2.194   3.027
23286WAT     H270101   2.312   2.311   2.913
23287WAT      O70102   6.250   4.895   3.442
23287WAT     H170103   6.346   4.865   3.436
23287WAT     H270104   6.246   4.994   3.425
23288WAT      O70105   1.830   2.967   5.096
23288WAT     H170106   1.905   3.021   5.135
23288WAT     H270107   1.862   2.874   5.076
23289WAT      O70108   0.508   6.832   2.896
23289WAT     H170109   0.437   6.902   2.889
23289WAT     H270110   0.556   6.825   2.809
23290WAT      O70111   9.285   7.568   4.606
23290WAT     H170112   9.203   7.512   4.618
23290WAT     H270113   9.350   7.548   4.679
23291WAT      O70114   0.390   1.622   8.491
23291WAT     H170115   0.438   1.708   8.476
23291WAT     H270116   0.361   1.584   8.403
23292WAT      O70117   1.339   4.005   7.011
23292WAT     H170118   1.414   4.026   7.074
23292WAT     H270119   1.344   4.065   6.932
23293WAT      O70120   3.272   7.854   3.132
23293WAT     H170121   3.310   7.870   3.224
23293WAT     H270122   3.260   7.941   3.086
23294WAT      O70123   7.729   4.271   6.814
23294WAT     H170124   7.685   4.183   6.831
23294WAT     H270125   7.745   4.317   6.901
23295WAT      O70126   8.025   2.381   5.940
23295WAT     H170127   8.041   2.442   5.863
23295WAT     H270128   7.988   2.294   5.907
23296WAT      O70129   2.527   6.647   0.678
23296WAT     H170130   2.436   6.674   0.708
23296WAT     H270131   2.591   6.721   0.698
23297WAT      O70132   3.070   2.818   3.626
23297WAT     H170133   2.984   2.787   3.668
23297WAT     H270134   3.141   2.751   3.643
23298WAT      O70135   6.813   9.154   7.654
23298WAT     H170136   6.791   9.249   7.632
23298WAT     H270137   6.892   9.125   7.601
23299WAT      O70138   5.099   1.520   0.377
23299WAT     H170139   5.075   1.583   0.303
23299WAT     H270140   5.017   1.496   0.429
23300WAT      O70141   5.560   7.205   8.057
23300WAT     H170142   5.573   7.148   8.138
23300WAT     H270143   5.493   7.276   8.077
23301WAT      O70144   1.316   7.523   9.616
23301WAT     H170145   1.329   7.431   9.654
23301WAT     H270146   1.390   7.543   9.551
23302WAT      O70147   1.730   2.592   2.599
23302WAT     H170148   1.796   2.611   2.671
23302WAT     H270149   1.655   2.658   2.604
23303WAT      O70150   9.208   4.120   6.910
23303WAT     H170151   9.189   4.217   6.923
23303WAT     H270152   9.254   4.107   6.822
23304WAT      O70153   5.098   8.582   2.180
23304WAT     H170154   5.175   8.525   2.208
23304WAT     H270155   5.128   8.645   2.107
23305WAT      O70156   6.244   7.328   5.235
23305WAT     H170157   6.333   7.308   5.276
23305WAT     H270158   6.204   7.244   5.199
23306WAT      O70159   3.937   7.109   7.120
23306WAT     H170160   3.843   7.077   7.104
23306WAT     H270161   3.989   7.039   7.168
23307WAT      O70162   9.589   3.326   4.177
23307WAT     H170163   9.647   3.376   4.241
23307WAT     H270164   9.611   3.354   4.083
23308WAT      O70165   7.657   3.980   3.945
23308WAT     H170166   7.669   3.881   3.949
23308WAT     H270167   7.684   4.021   4.032
23309WAT      O70168   5.815   0.753   1.835
23309WAT     H170169   5.852   0.837   1.874
23309WAT     H270170   5.820   0.680   1.903
23310WAT      O70171   8.150   9.673   6.799
23310WAT     H170172   8.066   9.709   6.758
23310WAT     H270173   8.147   9.687   6.898
23311WAT      O70174   7.602   1.852   4.285
23311WAT     H170175   7.591   1.883   4.190
23311WAT     H270176   7.609   1.931   4.346
23312WAT      O70177   9.629   3.592   9.570
23312WAT     H170178   9.681   3.552   9.495
23312WAT     H270179   9.579   3.521   9.619
23313WAT      O70180   6.242   2.515   4.898
23313WAT     H170181   6.241   2.610   4.929
23313WAT     H270182   6.198   2.457   4.966
23314WAT      O70183   2.667   6.137   6.623
23314WAT     H170184   2.672   6.207   6.551
23314WAT     H270185   2.631   6.052   6.585
23315WAT      O70186   5.193   0.140   4.759
23315WAT     H170187   5.192   0.154   4.858
23315WAT     H270188   5.171   0.045   4.739
23316WAT      O70189   6.076   4.479   9.893
23316WAT     H170190   6.003   4.432   9.843
23316WAT     H270191   6.059   4.577   9.891
23317WAT      O70192   3.989   6.031   1.109
23317WAT     H170193   4.089   6.036   1.115
23317WAT     H270194   3.959   5.936   1.114
23318WAT      O70195   2.024   0.185   7.303
23318WAT     H170196   2.015   0.143   7.393
23318WAT     H270197   1.978   0.127   7.234
23319WAT      O70198   3.573   1.140   5.757
23319WAT     H170199   3.653   1.161   5.701
23319WAT     H270200   3.498   1.202   5.734
23320WAT      O70201   6.698   3.718   2.246
23320WAT     H170202   6.756   3.786   2.200
23320WAT     H270203   6.745   3.630   2.247
23321WAT      O70204   9.736   2.547   8.202
23321WAT     H170205   9.690   2.625   8.160
23321WAT     H270206   9.809   2.515   8.141
23322WAT      O70207   3.818   4.743   3.839
23322WAT     H170208   3.814   4.654   3.794
23322WAT     H270209   3.769   4.811   3.784
23323WAT      O70210   0.925   1.304   7.234
23323WAT     H170211   0.992   1.258   7.293
23323WAT     H270212   0.842   1.248   7.229
23324WAT      O70213   6.795   1.205   8.099
23324WAT     H170214   6.879   1.199   8.154
23324WAT     H270215   6.724   1.251   8.152
23325WAT      O70216   9.011   6.959   2.476
23325WAT     H170217   8.956   6.979   2.394
23325WAT     H270218   8.980   7.016   2.551
23326WAT      O70219   2.014   3.327   0.926
23326WAT     H170220   1.918   3.355   0.922
23326WAT     H270221   2.072   3.403   0.898
23327WAT      O70222   6.155   1.999   7.181
23327WAT     H170223   6.253   2.016   7.169
23327WAT     H270224   6.124   2.040   7.267
23328WAT      O70225   3.313   1.410   9.266
23328WAT     H170226   3.277   1.458   9.346
23328WAT     H270227   3.410   1.432   9.255
23329WAT      O70228   7.215   3.513   3.068
23329WAT     H170229   7.293   3.528   3.129
23329WAT     H270230   7.232   3.559   2.980
23330WAT      O70231   1.547   7.820   9.234
23330WAT     H170232   1.583   7.807   9.142
23330WAT     H270233   1.601   7.889   9.282
23331WAT      O70234   4.142   5.706   3.310
23331WAT     H170235   4.077   5.697   3.386
23331WAT     H270236   4.143   5.621   3.257
23332WAT      O70237   2.079   7.077   2.535
23332WAT     H170238   2.138   6.997   2.530
23332WAT     H270239   2.120   7.152   2.482
23333WAT      O70240   9.497   4.563   0.714
23333WAT     H170241   9.428   4.505   0.758
23333WAT     H270242   9.533   4.515   0.633
23334WAT      O70243   4.295   0.132   9.398
23334WAT     H170244   4.289   0.232   9.395
23334WAT     H270245   4.233   0.093   9.330
23335WAT      O70246   6.333   3.115   9.711
23335WAT     H170247   6.378   3.066   9.637
23335WAT     H270248   6.315   3.209   9.683
23336WAT      O70249   1.197   3.815   0.333
23336WAT     H170250   1.292   3.805   0.305
23336WAT     H270251   1.164   3.906   0.309
23337WAT      O70252   4.532   9.137   4.382
23337WAT     H170253   4.623   9.169   4.410
23337WAT     H270254   4.529   9.037   4.386
23338WAT      O70255   0.093   1.254   5.419
23338WAT     H170256   0.157   1.244   5.495
23338WAT     H270257   0.078   1.165   5.376
23339WAT      O70258   1.094   7.478   6.933
23339WAT     H170259   1.024   7.464   6.863
23339WAT     H270260   1.089   7.403   6.999
23340WAT      O70261   0.995   4.726   3.637
23340WAT     H170262   0.992   4.657   3.564
23340WAT     H270263   1.007   4.816   3.596
23341WAT      O70264   2.742   8.631   0.873
23341WAT     H170265   2.832   8.589   0.884
23341WAT     H270266   2.727   8.652   0.776
23342WAT      O70267   1.231   0.996   1.507
23342WAT     H170268   1.303   0.926   1.505
23342WAT     H270269   1.185   0.993   1.596
23343WAT      O70270   5.964   4.532   6.338
23343WAT     H170271   5.867   4.549   6.356
23343WAT     H270272   5.997   4.458   6.396
23344WAT      O70273   0.784   1.870   8.080
23344WAT     H170274   0.771   1.938   8.152
23344WAT     H270275   0.740   1.901   7.996
23345WAT      O70276   4.753   4.023   2.821
23345WAT     H170277   4.747   4.036   2.722
23345WAT     H270278   4.767   3.926   2.842
23346WAT      O70279   6.390   3.907   4.066
23346WAT     H170280   6.423   3.969   3.994
23346WAT     H270281   6.295   3.883   4.047
23347WAT      O70282   1.144   0.732   0.086
23347WAT     H170283   1.187   0.668   0.021
23347WAT     H270284   1.195   0.731   0.172
23348WAT      O70285   1.991   1.600   5.792
23348WAT     H170286   1.906   1.553   5.767
23348WAT     H270287   2.069   1.549   5.757
23349WAT      O70288   2.754   1.467   5.303
23349WAT     H170289   2.764   1.487   5.206
23349WAT     H270290   2.716   1.547   5.350
23350WAT      O70291   9.223   9.308   1.491
23350WAT     H170292   9.179   9.255   1.563
23350WAT     H270293   9.322   9.294   1.495
23351WAT      O70294   5.914   5.815   8.248
23351WAT     H170295   6.001   5.787   8.289
23351WAT     H270296   5.840   5.796   8.313
23352WAT      O70297   1.934   6.609   5.400
23352WAT     H170298   1.901   6.515   5.390
23352WAT     H270299   2.000   6.629   5.328
23353WAT      O70300   4.451   2.173   6.722
23353WAT     H170301   4.435   2.272   6.724
23353WAT     H270302   4.495   2.148   6.636
23354WAT      O70303   8.351   9.208   1.334
23354WAT     H170304   8.299   9.147   1.394
23354WAT     H270305   8.341   9.176   1.239
23355WAT      O70306   7.575   3.774   4.288
23355WAT     H170307   7.617   3.684   4.280
23355WAT     H270308   7.632   3.842   4.241
23356WAT      O70309   3.709   3.596   4.908
23356WAT     H170310   3.672   3.531   4.975
23356WAT     H270311   3.798   3.629   4.940
23357WAT      O70312   9.544   2.380   0.016
23357WAT     H170313   9.499   2.372   0.104
23357WAT     H270314   9.575   2.290  -0.015
23358WAT      O70315   8.431   1.390   8.616
23358WAT     H170316   8.437   1.490   8.625
23358WAT     H270317   8.422   1.366   8.520
23359WAT      O70318   8.947   2.685   1.396
23359WAT     H170319   8.894   2.769   1.384
23359WAT     H270320   9.033   2.692   1.345
23360WAT      O70321   8.017   8.670   4.328
23360WAT     H170322   7.930   8.631   4.296
23360WAT     H270323   8.062   8.717   4.253
23361WAT      O70324   7.173   5.583   5.112
23361WAT     H170325   7.122   5.545   5.035
23361WAT     H270326   7.214   5.670   5.085
23362WAT      O70327   1.781   0.663   2.319
23362WAT     H170328   1.822   0.745   2.279
23362WAT     H270329   1.834   0.635   2.399
23363WAT      O70330   8.222   4.846   1.490
23363WAT     H170331   8.200   4.774   1.556
23363WAT     H270332   8.174   4.827   1.404
23364WAT      O70333   3.806   7.151   7.558
23364WAT     H170334   3.810   7.054   7.531
23364WAT     H270335   3.784   7.158   7.655
23365WAT      O70336   6.280   0.124   0.767
23365WAT     H170337   6.191   0.129   0.813
23365WAT     H270338   6.349   0.093   0.833
23366WAT      O70339   5.272   4.733   0.281
23366WAT     H170340   5.369   4.714   0.263
23366WAT     H270341   5.217   4.694   0.208
23367WAT      O70342   7.245   3.150   7.117
23367WAT     H170343   7.152   3.116   7.104
23367WAT     H270344   7.310   3.077   7.096
23368WAT      O70345   7.497   1.446   7.364
23368WAT     H170346   7.406   1.411   7.343
23368WAT     H270347   7.490   1.542   7.392
23369WAT      O70348   4.492   3.315   8.117
23369WAT     H170349   4.533   3.386   8.174
23369WAT     H270350   4.397   3.300   8.145
23370WAT      O70351   1.351   5.712   6.547
23370WAT     H170352   1.333   5.651   6.470
23370WAT     H270353   1.390   5.659   6.623
23371WAT      O70354   8.001   2.065   3.807
23371WAT     H170355   8.046   1.983   3.773
23371WAT     H270356   7.921   2.085   3.750
23372WAT      O70357   0.700   5.732   8.967
23372WAT     H170358   0.760   5.660   8.934
23372WAT     H270359   0.661   5.705   9.055
23373WAT      O70360   8.950   6.137   8.542
23373WAT     H170361   8.938   6.063   8.476
23373WAT     H270362   8.905   6.113   8.628
23374WAT      O70363   1.561   4.489   8.978
23374WAT     H170364   1.607   4.518   9.063
23374WAT     H270365   1.498   4.560   8.948
23375WAT      O70366   4.504   4.939   4.344
23375WAT     H170367   4.433   4.885   4.389
23375WAT     H270368   4.473   4.964   4.253
23376WAT      O70369   3.777   1.033   1.751
23376WAT     H170370   3.843   0.965   1.718
23376WAT     H270371   3.756   1.016   1.847
23377WAT      O70372   5.036   4.432   4.548
23377WAT     H170373   5.010   4.521   4.510
23377WAT     H270374   5.098   4.386   4.485
23378WAT      O70375   2.705   5.659   7.867
23378WAT     H170376   2.687   5.662   7.769
23378WAT     H270377   2.734   5.567   7.893
23379WAT      O70378   8.714   2.381   9.257
23379WAT     H170379   8.791   2.405   9.316
23379WAT     H270380   8.630   2.379   9.311
23380WAT      O70381   9.003   5.818   4.182
23380WAT     H170382   8.959   5.840   4.095
23380WAT     H270383   8.934   5.809   4.254
23381WAT      O70384   6.117   9.748   5.167
23381WAT     H170385   6.086   9.655   5.188
23381WAT     H270386   6.162   9.748   5.077
23382WAT      O70387   9.771   6.641   6.728
23382WAT     H170388   9.788   6.688   6.814
23382WAT     H270389   9.847   6.658   6.665
23383WAT      O70390   0.161   0.699   2.422
23383WAT     H170391   0.216   0.624   2.458
23383WAT     H270392   0.218   0.759   2.366
23384WAT      O70393   0.173   8.314   0.357
23384WAT     H170394   0.155   8.397   0.304
23384WAT     H270395   0.153   8.331   0.453
23385WAT      O70396   5.932   7.697   5.322
23385WAT     H170397   5.861   7.765   5.334
23385WAT     H270398   5.934   7.667   5.226
23386WAT      O70399   3.797   5.351   1.672
23386WAT     H170400   3.875   5.319   1.618
23386WAT     H270401   3.825   5.364   1.767
23387WAT      O70402   7.804   9.522   1.187
23387WAT     H170403   7.832   9.618   1.185
23387WAT     H270404   7.723   9.512   1.245
23388WAT      O70405   9.521   0.742   0.483
23388WAT     H170406   9.496   0.757   0.578
23388WAT     H270407   9.449   0.779   0.424
23389WAT      O70408   1.317   6.820   0.990
23389WAT     H170409   1.415   6.806   1.006
23389WAT     H270410   1.293   6.781   0.901
23390WAT      O70411   9.106   5.844   1.073
23390WAT     H170412   9.079   5.748   1.083
23390WAT     H270413   9.102   5.870   0.976
23391WAT      O70414   1.194   2.866   8.557
23391WAT     H170415   1.185   2.803   8.480
23391WAT     H270416   1.115   2.858   8.616
23392WAT      O70417   4.342   7.168   5.336
23392WAT     H170418   4.279   7.244   5.351
23392WAT     H270419   4.293   7.082   5.348
23393WAT      O70420   0.408   4.494   2.089
23393WAT     H170421   0.385   4.536   2.002
23393WAT     H270422   0.408   4.563   2.161
23394WAT      O70423   0.002   3.006   2.335
23394WAT     H170424  -0.004   2.911   2.365
23394WAT     H270425  -0.000   3.066   2.415
23395WAT      O70426   9.691   3.511   8.676
23395WAT     H170427   9.641   3.483   8.594
23395WAT     H270428   9.768   3.450   8.690
23396WAT      O70429   0.711   1.808   1.659
23396WAT     H170430   0.617   1.825   1.630
23396WAT     H270431   0.729   1.855   1.745
23397WAT      O70432   4.641   0.193   5.476
23397WAT     H170433   4.719   0.242   5.516
23397WAT     H270434   4.613   0.120   5.538
23398WAT      O70435   4.816   4.864   4.610
23398WAT     H170436   4.736   4.853   4.670
23398WAT     H270437   4.785   4.871   4.515
23399WAT      O70438   7.924   3.941   5.023
23399WAT     H170439   7.956   3.886   4.946
23399WAT     H270440   7.995   3.944   5.093
23400WAT      O70441   9.688   6.281   2.297
23400WAT     H170442   9.614   6.255   2.235
23400WAT     H270443   9.654   6.347   2.364
23401WAT      O70444   4.997   6.905   6.214
23401WAT     H170445   5.063   6.891   6.288
23401WAT     H270446   5.024   6.851   6.135
23402WAT      O70447   1.176   7.471   6.512
23402WAT     H170448   1.092   7.522   6.493
23402WAT     H270449   1.208   7.493   6.604
23403WAT      O70450   4.664   9.717   4.398
23403WAT     H170451   4.601   9.683   4.468
23403WAT     H270452   4.651   9.666   4.313
23404WAT      O70453   2.187   1.748   5.985
23404WAT     H170454   2.215   1.673   6.045
23404WAT     H270455   2.126   1.713   5.914
23405WAT      O70456   1.632   9.092   4.908
23405WAT     H170457   1.638   9.145   4.824
23405WAT     H270458   1.608   8.998   4.887
23406WAT      O70459   4.929   4.473   3.654
23406WAT     H170460   4.917   4.502   3.749
23406WAT     H270461   4.873   4.392   3.636
23407WAT      O70462   1.485   6.517   6.402
23407WAT     H170463   1.558   6.491   6.464
23407WAT     H270464   1.441   6.435   6.365
23408WAT      O70465   5.624   0.846   9.072
23408WAT     H170466   5.543   0.853   9.013
23408WAT     H270467   5.661   0.753   9.067
23409WAT      O70468   9.114   8.912   4.825
23409WAT     H170469   9.205   8.898   4.786
23409WAT     H270470   9.049   8.932   4.752
23410WAT      O70471   8.590   0.251   1.306
23410WAT     H170472   8.688   0.268   1.294
23410WAT     H270473   8.567   0.161   1.268
23411WAT      O70474   0.478   0.216   8.268
23411WAT     H170475   0.488   0.172   8.358
23411WAT     H270476   0.568   0.247   8.237
23412WAT      O70477   9.790   5.749   8.905
23412WAT     H170478   9.782   5.673   8.839
23412WAT     H270479   9.723   5.820   8.881
23413WAT      O70480   1.211   8.661   0.670
23413WAT     H170481   1.116   8.671   0.700
23413WAT     H270482   1.239   8.744   0.621
23414WAT      O70483   1.230   8.826   7.690
23414WAT     H170484   1.228   8.849   7.787
23414WAT     H270485   1.200   8.905   7.637
23415WAT      O70486   8.864   5.750   0.807
23415WAT     H170487   8.865   5.848   0.827
23415WAT     H270488   8.772   5.722   0.780
23416WAT      O70489   1.919   3.416   5.806
23416WAT     H170490   1.882   3.465   5.885
23416WAT     H270491   2.018   3.402   5.819
23417WAT      O70492   2.265   3.306   7.111
23417WAT     H170493   2.216   3.378   7.063
23417WAT     H270494   2.300   3.239   7.046
23418WAT      O70495   6.198   2.703   7.771
23418WAT     H170496   6.099   2.717   7.768
23418WAT     H270497   6.241   2.758   7.700
23419WAT      O70498   9.595   8.928   6.763
23419WAT     H170499   9.524   8.994   6.742
23419WAT     H270500   9.585   8.848   6.704
23420WAT      O70501   5.874   3.801   2.361
23420WAT     H170502   5.801   3.736   2.340
23420WAT     H270503   5.836   3.880   2.408
23421WAT      O70504   2.225   3.989   4.857
23421WAT     H170505   2.232   4.086   4.835
23421WAT     H270506   2.193   3.939   4.776
23422WAT      O70507   1.532   5.369   5.698
23422WAT     H170508   1.490   5.315   5.626
23422WAT     H270509   1.533   5.317   5.783
23423WAT      O70510   3.560   0.464   3.436
23423WAT     H170511   3.605   0.545   3.475
23423WAT     H270512   3.630   0.403   3.399
23424WAT      O70513   5.619   0.012   0.164
23424WAT     H170514   5.577   0.054   0.245
23424WAT     H270515   5.560   0.028   0.084
23425WAT      O70516   7.487   3.188   0.227
23425WAT     H170517   7.528   3.186   0.318
23425WAT     H270518   7.423   3.265   0.221
23426WAT      O70519   7.947   5.305   9.151
23426WAT     H170520   7.894   5.387   9.176
23426WAT     H270521   7.938   5.288   9.053
23427WAT      O70522   7.792   0.163   5.676
23427WAT     H170523   7.806   0.198   5.769
23427WAT     H270524   7.837   0.223   5.610
23428WAT      O70525   9.061   7.410   4.621
23428WAT     H170526   9.016   7.411   4.532
23428WAT     H270527   8.992   7.410   4.693
23429WAT      O70528   2.775   7.191   0.861
23429WAT     H170529   2.824   7.170   0.946
23429WAT     H270530   2.819   7.144   0.784
23430WAT      O70531   8.975   2.662   2.541
23430WAT     H170532   8.947   2.697   2.451
23430WAT     H270533   8.948   2.727   2.612
23431WAT      O70534   6.446   9.726   2.385
23431WAT     H170535   6.351   9.711   2.357
23431WAT     H270536   6.482   9.641   2.424
23432WAT      O70537   6.521   0.135   5.773
23432WAT     H170538   6.440   0.166   5.822
23432WAT     H270539   6.494   0.089   5.689
23433WAT      O70540   7.630   8.422   7.598
23433WAT     H170541   7.600   8.399   7.691
23433WAT     H270542   7.730   8.425   7.595
23434WAT      O70543   6.345   7.115   7.658
23434WAT     H170544   6.368   7.064   7.575
23434WAT     H270545   6.379   7.067   7.738
23435WAT      O70546   8.246   0.310   1.362
23435WAT     H170547   8.292   0.365   1.291
23435WAT     H270548   8.228   0.368   1.442
23436WAT      O70549   3.663   1.469   2.054
23436WAT     H170550   3.722   1.527   2.110
23436WAT     H270551   3.576   1.455   2.101
23437WAT      O70552   0.593   3.928   6.056
23437WAT     H170553   0.645   3.944   6.140
23437WAT     H270554   0.537   3.846   6.067
23438WAT      O70555   7.308   4.396   0.692
23438WAT     H170556   7.236   4.352   0.747
23438WAT     H270557   7.361   4.457   0.750
23439WAT      O70558   3.640   7.475   7.381
23439WAT     H170559   3.544   7.486   7.409
23439WAT     H270560   3.649   7.392   7.325
23440WAT      O70561   0.497   0.383   5.340
23440WAT     H170562   0.412   0.400   5.290
23440WAT     H270563   0.476   0.335   5.425
23441WAT      O70564   4.221   8.117   5.434
23441WAT     H170565   4.208   8.137   5.531
23441WAT     H270566   4.316   8.091   5.417
23442WAT      O70567   0.425   0.885   1.480
23442WAT     H170568   0.411   0.812   1.413
23442WAT     H270569   0.343   0.896   1.536
23443WAT      O70570   6.984   8.789   8.610
23443WAT     H170571   6.962   8.708   8.557
23443WAT     H270572   6.905   8.817   8.665
23444WAT      O70573   7.320   1.994   1.624
23444WAT     H170574   7.300   2.084   1.662
23444WAT     H270575   7.247   1.931   1.647
23445WAT      O70576   5.031   4.879   9.486
23445WAT     H170577   5.091   4.798   9.485
23445WAT     H270578   5.015   4.906   9.581
23446WAT      O70579   5.572   7.781   9.538
23446WAT     H170580   5.567   7.816   9.444
23446WAT     H270581   5.481   7.783   9.579
23447WAT      O70582   4.175   5.223   1.104
23447WAT     H170583   4.154   5.175   1.019
23447WAT     H270584   4.096   5.219   1.165
23448WAT      O70585   6.547   0.720   9.682
23448WAT     H170586   6.563   0.808   9.637
23448WAT     H270587   6.606   0.712   9.762
23449WAT      O70588   4.931   8.076   0.999
23449WAT     H170589   4.973   8.156   1.042
23449WAT     H270590   4.862   8.107   0.933
23450WAT      O70591   6.023   3.731   8.810
23450WAT     H170592   6.108   3.774   8.779
23450WAT     H270593   5.973   3.696   8.731
23451WAT      O70594   8.485   2.654   2.248
23451WAT     H170595   8.513   2.626   2.340
23451WAT     H270596   8.532   2.738   2.223
23452WAT      O70597   2.116   3.968   1.166
23452WAT     H170598   2.088   3.914   1.087
23452WAT     H270599   2.214   3.985   1.163
23453WAT      O70600   8.813   4.957   4.593
23453WAT     H170601   8.828   5.004   4.506
23453WAT     H270602   8.870   4.875   4.596
23454WAT      O70603   2.502   6.221   2.384
23454WAT     H170604   2.510   6.300   2.322
23454WAT     H270605   2.590   6.206   2.430
23455WAT      O70606   0.125   7.626   1.952
23455WAT     H170607   0.085   7.631   2.043
23455WAT     H270608   0.103   7.538   1.910
23456WAT      O70609   0.903   6.137   4.147
23456WAT     H170610   0.905   6.090   4.059
23456WAT     H270611   0.812   6.129   4.188
23457WAT      O70612   4.647   0.592   4.081
23457WAT     H170613   4.629   0.578   4.178
23457WAT     H270614   4.742   0.624   4.070
23458WAT      O70615   0.356   4.101   1.416
23458WAT     H170616   0.307   4.022   1.453
23458WAT     H270617   0.455   4.086   1.425
23459WAT      O70618   3.420   4.718   4.492
23459WAT     H170619   3.411   4.778   4.412
23459WAT     H270620   3.476   4.763   4.561
23460WAT      O70621   0.103   1.527   3.713
23460WAT     H170622   0.112   1.626   3.717
23460WAT     H270623   0.178   1.484   3.764
23461WAT      O70624   6.547   6.719   8.015
23461WAT     H170625   6.493   6.701   8.097
23461WAT     H270626   6.629   6.770   8.040
23462WAT      O70627   3.850   7.273   8.194
23462WAT     H170628   3.842   7.177   8.169
23462WAT     H270629   3.841   7.283   8.293
23463WAT      O70630   7.994   7.010   3.675
23463WAT     H170631   8.061   7.027   3.747
23463WAT     H270632   8.004   6.917   3.641
23464WAT      O70633   9.686   4.020   3.681
23464WAT     H170634   9.772   4.059   3.648
23464WAT     H270635   9.705   3.940   3.737
23465WAT      O70636   5.760   0.499   4.961
23465WAT     H170637   5.751   0.411   5.008
23465WAT     H270638   5.672   0.546   4.961
23466WAT      O70639   6.826   4.245   7.343
23466WAT     H170640   6.913   4.289   7.322
23466WAT     H270641   6.833   4.147   7.325
23467WAT      O70642   2.900   6.501   8.418
23467WAT     H170643   2.985   6.450   8.411
23467WAT     H270644   2.896   6.571   8.347
23468WAT      O70645   0.787   5.197   3.808
23468WAT     H170646   0.716   5.129   3.785
23468WAT     H270647   0.747   5.289   3.802
23469WAT      O70648   2.353   4.353   2.108
23469WAT     H170649   2.347   4.297   2.026
23469WAT     H270650   2.292   4.317   2.178
23470WAT      O70651   4.775   3.285   6.853
23470WAT     H170652   4.786   3.186   6.857
23470WAT     H270653   4.790   3.324   6.944
23471WAT      O70654   6.287   8.485   3.897
23471WAT     H170655   6.202   8.483   3.950
23471WAT     H270656   6.298   8.398   3.849
23472WAT      O70657   7.148   3.075   1.216
23472WAT     H170658   7.207   3.064   1.296
23472WAT     H270659   7.161   2.998   1.154
23473WAT      O70660   0.785   0.727   0.048
23473WAT     H170661   0.840   0.808   0.029
23473WAT     H270662   0.756   0.686  -0.039
23474WAT      O70663   8.439   4.458   4.379
23474WAT     H170664   8.417   4.554   4.361
23474WAT     H270665   8.368   4.400   4.338
23475WAT      O70666   7.443   6.672   9.646
23475WAT     H170667   7.449   6.749   9.709
23475WAT     H270668   7.413   6.590   9.697
23476WAT      O70669   8.374   2.293   8.560
23476WAT     H170670   8.437   2.283   8.636
23476WAT     H270671   8.359   2.204   8.517
23477WAT      O70672   5.700   7.771   8.806
23477WAT     H170673   5.742   7.853   8.843
23477WAT     H270674   5.657   7.718   8.880
23478WAT      O70675   1.919   4.633   2.064
23478WAT     H170676   1.851   4.570   2.101
23478WAT     H270677   1.932   4.709   2.128
23479WAT      O70678   4.023   5.844   4.646
23479WAT     H170679   4.034   5.910   4.573
23479WAT     H270680   3.988   5.890   4.728
23480WAT      O70681   6.003   7.905   5.683
23480WAT     H170682   6.072   7.866   5.744
23480WAT     H270683   5.946   7.832   5.646
23481WAT      O70684   3.627   3.010   5.464
23481WAT     H170685   3.685   3.030   5.543
23481WAT     H270686   3.675   2.949   5.401
23482WAT      O70687   8.392   6.723   1.765
23482WAT     H170688   8.370   6.820   1.780
23482WAT     H270689   8.328   6.666   1.818
23483WAT      O70690   2.048   1.635   3.181
23483WAT     H170691   2.079   1.555   3.129
23483WAT     H270692   2.039   1.713   3.119
23484WAT      O70693   2.498   4.061   0.274
23484WAT     H170694   2.534   4.017   0.356
23484WAT     H270695   2.483   3.993   0.203
23485WAT      O70696   7.439   7.610   0.383
23485WAT     H170697   7.521   7.583   0.332
23485WAT     H270698   7.396   7.529   0.422
23486WAT      O70699   5.752   5.415   8.131
23486WAT     H170700   5.789   5.503   8.102
23486WAT     H270701   5.697   5.427   8.213
23487WAT      O70702   9.193   4.122   7.324
23487WAT     H170703   9.211   4.210   7.368
23487WAT     H270704   9.272   4.098   7.266
23488WAT      O70705   4.214   0.965   3.387
23488WAT     H170706   4.152   0.889   3.404
23488WAT     H270707   4.307   0.940   3.414
23489WAT      O70708   5.367   7.577   4.392
23489WAT     H170709   5.316   7.633   4.457
23489WAT     H270710   5.459   7.615   4.380
23490WAT      O70711   8.452   2.544   6.206
23490WAT     H170712   8.358   2.513   6.193
23490WAT     H270713   8.456   2.610   6.280
23491WAT      O70714   1.981   0.588   1.845
23491WAT     H170715   2.013   0.585   1.750
23491WAT     H270716   1.881   0.592   1.846
23492WAT      O70717   9.513   8.598   2.435
23492WAT     H170718   9.443   8.629   2.499
23492WAT     H270719   9.596   8.654   2.447
23493WAT      O70720   6.465   6.626   4.754
23493WAT     H170721   6.402   6.570   4.807
23493WAT     H270722   6.434   6.721   4.755
23494WAT      O70723   4.219   3.948   7.026
23494WAT     H170724   4.172   4.036   7.027
23494WAT     H270725   4.196   3.899   6.942
23495WAT      O70726   4.884   7.401   9.150
23495WAT     H170727   4.902   7.500   9.145
23495WAT     H270728   4.791   7.382   9.117
23496WAT      O70729   9.620   5.152   2.151
23496WAT     H170730   9.578   5.196   2.071
23496WAT     H270731   9.565   5.172   2.232
23497WAT      O70732   6.676   8.836   3.449
23497WAT     H170733   6.646   8.768   3.515
23497WAT     H270734   6.776   8.830   3.439
23498WAT      O70735   8.270   9.149   5.671
23498WAT     H170736   8.351   9.205   5.653
23498WAT     H270737   8.192   9.209   5.688
23499WAT      O70738   2.995   5.719   2.331
23499WAT     H170739   3.004   5.813   2.298
23499WAT     H270740   3.040   5.711   2.420
23500WAT      O70741   0.954   4.787   9.797
23500WAT     H170742   0.989   4.793   9.704
23500WAT     H270743   1.031   4.790   9.862
23501WAT      O70744   7.622   5.214   9.210
23501WAT     H170745   7.693   5.257   9.264
23501WAT     H270746   7.616   5.117   9.234
23502WAT      O70747   7.572   7.618   1.143
23502WAT     H170748   7.517   7.677   1.083
23502WAT     H270749   7.633   7.561   1.088
23503WAT      O70750   1.973   5.357   7.218
23503WAT     H170751   2.006   5.380   7.126
23503WAT     H270752   2.042   5.301   7.264
23504WAT      O70753   2.237   4.757   6.021
23504WAT     H170754   2.263   4.791   5.931
23504WAT     H270755   2.223   4.658   6.017
23505WAT      O70756   1.725   9.205   0.627
23505WAT     H170757   1.675   9.284   0.663
23505WAT     H270758   1.713   9.200   0.528
23506WAT      O70759   9.863   9.324   8.999
23506WAT     H170760   9.847   9.303   9.095
23506WAT     H270761   9.855   9.240   8.945
23507WAT      O70762   0.531   1.135   8.583
23507WAT     H170763   0.589   1.142   8.502
23507WAT     H270764   0.588   1.119   8.664
23508WAT      O70765   7.543   8.335   9.606
23508WAT     H170766   7.619   8.271   9.608
23508WAT     H270767   7.551   8.394   9.526
23509WAT      O70768   6.146   9.831   7.545
23509WAT     H170769   6.085   9.790   7.477
23509WAT     H270770   6.105   9.914   7.581
23510WAT      O70771   6.703   0.360   9.606
23510WAT     H170772   6.655   0.365   9.518
23510WAT     H270773   6.639   0.378   9.680
23511WAT      O70774   9.562   2.789   9.352
23511WAT     H170775   9.483   2.836   9.312
23511WAT     H270776   9.646   2.839   9.327
23512WAT      O70777   6.978   1.832   5.520
23512WAT     H170778   7.042   1.908   5.510
23512WAT     H270779   7.015   1.751   5.474
23513WAT      O70780   2.710   3.366   1.297
23513WAT     H170781   2.804   3.354   1.330
23513WAT     H270782   2.684   3.462   1.306
23514WAT      O70783   0.730   0.741   1.060
23514WAT     H170784   0.764   0.796   0.984
23514WAT     H270785   0.761   0.646   1.050
23515WAT      O70786   1.096   8.590   1.088
23515WAT     H170787   1.045   8.626   1.167
23515WAT     H270788   1.135   8.666   1.036
23516WAT      O70789   8.956   3.886   2.908
23516WAT     H170790   8.891   3.948   2.863
23516WAT     H270791   8.978   3.811   2.847
23517WAT      O70792   3.011   0.888   5.403
23517WAT     H170793   3.013   0.920   5.498
23517WAT     H270794   3.008   0.788   5.401
23518WAT      O70795   7.454   6.415   1.795
23518WAT     H170796   7.439   6.360   1.713
23518WAT     H270797   7.552   6.430   1.808
23519WAT      O70798   3.605   5.531   3.824
23519WAT     H170799   3.591   5.469   3.748
23519WAT     H270800   3.543   5.609   3.815
23520WAT      O70801   3.078   5.431   8.695
23520WAT     H170802   3.029   5.389   8.618
23520WAT     H270803   3.175   5.440   8.671
23521WAT      O70804   0.735   3.263   1.119
23521WAT     H170805   0.649   3.218   1.095
23521WAT     H270806   0.737   3.277   1.218
23522WAT      O70807   8.705   1.573   1.021
23522WAT     H170808   8.719   1.631   0.941
23522WAT     H270809   8.774   1.500   1.021
23523WAT      O70810   2.388   7.580   6.048
23523WAT     H170811   2.456   7.520   6.008
23523WAT     H270812   2.298   7.560   6.008
23524WAT      O70813   4.078   6.233   4.106
23524WAT     H170814   4.173   6.231   4.140
23524WAT     H270815   4.075   6.282   4.019
23525WAT      O70816   7.314   3.510   3.617
23525WAT     H170817   7.370   3.593   3.615
23525WAT     H270818   7.284   3.493   3.711
23526WAT      O70819   1.168   3.249   5.626
23526WAT     H170820   1.206   3.161   5.654
23526WAT     H270821   1.068   3.242   5.619
23527WAT      O70822   3.260   4.217   2.144
23527WAT     H170823   3.336   4.154   2.160
23527WAT     H270824   3.174   4.166   2.140
23528WAT      O70825   4.586   2.863   7.246
23528WAT     H170826   4.598   2.768   7.275
23528WAT     H270827   4.674   2.901   7.220
23529WAT      O70828   3.873   7.351   4.421
23529WAT     H170829   3.820   7.337   4.338
23529WAT     H270830   3.970   7.330   4.404
23530WAT      O70831   8.258   7.408   8.557
23530WAT     H170832   8.173   7.460   8.563
23530WAT     H270833   8.309   7.416   8.642
23531WAT      O70834   2.620   0.547   0.699
23531WAT     H170835   2.612   0.454   0.734
23531WAT     H270836   2.532   0.577   0.664
23532WAT      O70837   3.657   9.740   5.224
23532WAT     H170838   3.581   9.707   5.280
23532WAT     H270839   3.658   9.691   5.137
23533WAT      O70840   8.850   7.009   0.102
23533WAT     H170841   8.827   6.940   0.171
23533WAT     H270842   8.891   7.088   0.147
23534WAT      O70843   5.681   6.130   7.449
23534WAT     H170844   5.629   6.215   7.456
23534WAT     H270845   5.697   6.093   7.541
23535WAT      O70846   3.595   5.112   2.775
23535WAT     H170847   3.688   5.108   2.809
23535WAT     H270848   3.587   5.186   2.708
23536WAT      O70849   6.710   8.210   5.809
23536WAT     H170850   6.684   8.170   5.897
23536WAT     H270851   6.671   8.302   5.801
23537WAT      O70852   1.339   4.346   9.115
23537WAT     H170853   1.301   4.437   9.135
23537WAT     H270854   1.434   4.355   9.085
23538WAT      O70855   9.070   5.332   1.813
23538WAT     H170856   9.049   5.304   1.720
23538WAT     H270857   9.078   5.251   1.872
23539WAT      O70858   7.996   6.317   6.368
23539WAT     H170859   7.989   6.309   6.467
23539WAT     H270860   8.051   6.397   6.344
23540WAT      O70861   5.413   7.681   0.048
23540WAT     H170862   5.329   7.725   0.018
23540WAT     H270863   5.455   7.630  -0.028
23541WAT      O70864   5.489   8.327   0.950
23541WAT     H170865   5.492   8.401   1.018
23541WAT     H270866   5.544   8.250   0.982
23542WAT      O70867   7.169   0.031   4.756
23542WAT     H170868   7.078   0.073   4.753
23542WAT     H270869   7.220   0.067   4.833
23543WAT      O70870   1.223   3.212   9.030
23543WAT     H170871   1.317   3.219   8.997
23543WAT     H270872   1.164   3.273   8.977
23544WAT      O70873   0.839   3.108   2.572
23544WAT     H170874   0.831   3.082   2.668
23544WAT     H270875   0.928   3.151   2.557
23545WAT      O70876   7.281   4.201   5.625
23545WAT     H170877   7.376   4.202   5.656
23545WAT     H270878   7.261   4.284   5.574
23546WAT      O70879   8.190   8.774   4.131
23546WAT     H170880   8.256   8.703   4.156
23546WAT     H270881   8.177   8.773   4.031
23547WAT      O70882   6.107   5.836   9.259
23547WAT     H170883   6.036   5.898   9.292
23547WAT     H270884   6.067   5.746   9.242
23548WAT      O70885   9.838   4.894   2.385
23548WAT     H170886   9.803   4.847   2.304
23548WAT     H270887   9.831   4.993   2.370
23549WAT      O70888   6.300   1.684   4.540
23549WAT     H170889   6.283   1.664   4.637
23549WAT     H270890   6.388   1.644   4.513
23550WAT      O70891   4.302   8.833   1.437
23550WAT     H170892   4.230   8.782   1.483
23550WAT     H270893   4.284   8.835   1.339
23551WAT      O70894   2.320   5.701   5.685
23551WAT     H170895   2.364   5.679   5.772
23551WAT     H270896   2.350   5.638   5.614
23552WAT      O70897   6.148   1.869   3.492
23552WAT     H170898   6.173   1.788   3.439
23552WAT     H270899   6.078   1.920   3.442
23553WAT      O70900   9.065   6.288   1.998
23553WAT     H170901   8.966   6.288   1.991
23553WAT     H270902   9.102   6.370   1.955
23554WAT      O70903   8.633   0.320   2.377
23554WAT     H170904   8.554   0.377   2.398
23554WAT     H270905   8.625   0.283   2.284
23555WAT      O70906   4.562   4.462   6.271
23555WAT     H170907   4.657   4.431   6.280
23555WAT     H270908   4.554   4.556   6.305
23556WAT      O70909   3.912   5.825   4.297
23556WAT     H170910   4.000   5.869   4.316
23556WAT     H270911   3.904   5.806   4.199
23557WAT      O70912   2.015   8.423   9.549
23557WAT     H170913   2.022   8.523   9.540
23557WAT     H270914   1.936   8.391   9.497
23558WAT      O70915   3.567   1.771   7.906
23558WAT     H170916   3.532   1.769   7.813
23558WAT     H270917   3.510   1.713   7.965
23559WAT      O70918   0.569   0.429   5.967
23559WAT     H170919   0.609   0.515   5.999
23559WAT     H270920   0.472   0.442   5.949
23560WAT      O70921   6.954   8.066   6.847
23560WAT     H170922   6.912   8.156   6.833
23560WAT     H270923   6.923   8.003   6.776
23561WAT      O70924   9.517   1.857   9.043
23561WAT     H170925   9.550   1.891   8.955
23561WAT     H270926   9.520   1.757   9.044
23562WAT      O70927   9.810   8.594   6.392
23562WAT     H170928   9.824   8.541   6.476
23562WAT     H270929   9.830   8.690   6.408
23563WAT      O70930   6.155   8.111   9.290
23563WAT     H170931   6.124   8.199   9.327
23563WAT     H270932   6.121   8.037   9.348
23564WAT      O70933   0.908   7.392   4.053
23564WAT     H170934   0.974   7.384   3.979
23564WAT     H270935   0.883   7.301   4.086
23565WAT      O70936   0.481   0.975   5.020
23565WAT     H170937   0.492   1.045   5.091
23565WAT     H270938   0.562   0.975   4.961
23566WAT      O70939   1.889   6.116   2.942
23566WAT     H170940   1.949   6.143   3.017
23566WAT     H270941   1.930   6.040   2.892
23567WAT      O70942   7.752   7.396   4.669
23567WAT     H170943   7.771   7.340   4.750
23567WAT     H270944   7.669   7.450   4.684
23568WAT      O70945   2.059   2.934   0.944
23568WAT     H170946   2.121   3.012   0.955
23568WAT     H270947   2.032   2.927   0.848
23569WAT      O70948   5.294   4.974   3.090
23569WAT     H170949   5.246   4.926   3.016
23569WAT     H270950   5.234   5.042   3.131
23570WAT      O70951   2.672   5.358   8.960
23570WAT     H170952   2.723   5.443   8.978
23570WAT     H270953   2.735   5.281   8.964
23571WAT      O70954   6.101   7.825   9.007
23571WAT     H170955   6.130   7.780   8.924
23571WAT     H270956   6.165   7.804   9.081
23572WAT      O70957   4.314   1.914   5.511
23572WAT     H170958   4.279   1.837   5.564
23572WAT     H270959   4.326   1.887   5.415
23573WAT      O70960   9.197   0.810   7.735
23573WAT     H170961   9.117   0.796   7.794
23573WAT     H270962   9.181   0.768   7.646
23574WAT      O70963   9.748   7.189   7.288
23574WAT     H170964   9.717   7.269   7.340
23574WAT     H270965   9.799   7.219   7.208
23575WAT      O70966   1.882   7.714   9.045
23575WAT     H170967   1.959   7.769   9.010
23575WAT     H270968   1.879   7.720   9.144
23576WAT      O70969   6.889   1.216   8.957
23576WAT     H170970   6.851   1.298   9.001
23576WAT     H270971   6.818   1.169   8.906
23577WAT      O70972   2.644   2.830   1.161
23577WAT     H170973   2.625   2.877   1.074
23577WAT     H270974   2.688   2.894   1.224
23578WAT      O70975   2.713   2.577   9.633
23578WAT     H170976   2.622   2.606   9.664
23578WAT     H270977   2.745   2.639   9.562
23579WAT      O70978   1.977   7.131   2.800
23579WAT     H170979   2.026   7.063   2.854
23579WAT     H270980   2.011   7.130   2.706
23580WAT      O70981   2.831   6.589   7.348
23580WAT     H170982   2.868   6.499   7.325
23580WAT     H270983   2.844   6.606   7.446
23581WAT      O70984   4.694   1.172   0.775
23581WAT     H170985   4.737   1.235   0.710
23581WAT     H270986   4.660   1.092   0.726
23582WAT      O70987   3.875   5.238   9.580
23582WAT     H170988   3.782   5.249   9.614
23582WAT     H270989   3.877   5.255   9.482
23583WAT      O70990   9.013   1.522   5.582
23583WAT     H170991   9.090   1.465   5.608
23583WAT     H270992   9.038   1.578   5.502
23584WAT      O70993   6.862   2.949   3.293
23584WAT     H170994   6.916   2.869   3.268
23584WAT     H270995   6.796   2.924   3.364
23585WAT      O70996   5.440   7.063   6.179
23585WAT     H170997   5.453   6.968   6.207
23585WAT     H270998   5.527   7.099   6.144
23586WAT      O70999   4.475   6.603   2.217
23586WAT     H171000   4.457   6.629   2.122
23586WAT     H271001   4.388   6.588   2.264
23587WAT      O71002   3.453   6.327   9.556
23587WAT     H171003   3.482   6.231   9.552
23587WAT     H271004   3.457   6.367   9.464
23588WAT      O71005   4.865   1.287   9.044
23588WAT     H171006   4.895   1.382   9.047
23588WAT     H271007   4.775   1.280   9.086
23589WAT      O71008   1.394   7.895   3.490
23589WAT     H171009   1.376   7.891   3.588
23589WAT     H271010   1.450   7.816   3.463
23590WAT      O71011   6.202   8.599   9.486
23590WAT     H171012   6.119   8.629   9.533
23590WAT     H271013   6.249   8.678   9.448
23591WAT      O71014   0.294   6.994   2.823
23591WAT     H171015   0.259   7.005   2.730
23591WAT     H271016   0.257   7.066   2.881
23592WAT      O71017   4.144   5.753   7.161
23592WAT     H171018   4.233   5.740   7.204
23592WAT     H271019   4.154   5.816   7.083
23593WAT      O71020   2.309   8.920   3.600
23593WAT     H171021   2.379   8.860   3.562
23593WAT     H271022   2.279   8.885   3.688
23594WAT      O71023   2.654   1.715   6.449
23594WAT     H171024   2.569   1.754   6.413
23594WAT     H271025   2.731   1.773   6.422
23595WAT      O71026   4.177   7.360   8.603
23595WAT     H171027   4.133   7.446   8.576
23595WAT     H271028   4.134   7.285   8.553
23596WAT      O71029   5.755   8.382   9.693
23596WAT     H171030   5.757   8.415   9.788
23596WAT     H271031   5.667   8.407   9.652
23597WAT      O71032   2.639   2.029   4.580
23597WAT     H171033   2.712   2.091   4.551
23597WAT     H271034   2.565   2.082   4.620
23598WAT      O71035   7.286   0.536   8.848
23598WAT     H171036   7.283   0.485   8.934
23598WAT     H271037   7.193   0.567   8.824
23599WAT      O71038   9.718   8.213   7.722
23599WAT     H171039   9.640   8.179   7.670
23599WAT     H271040   9.687   8.254   7.808
23600WAT      O71041   6.488   7.336   0.792
23600WAT     H171042   6.397   7.314   0.825
23600WAT     H271043   6.518   7.423   0.832
23601WAT      O71044   1.137   4.105   4.382
23601WAT     H171045   1.231   4.134   4.367
23601WAT     H271046   1.127   4.009   4.355
23602WAT      O71047   8.048   6.917   4.278
23602WAT     H171048   8.031   6.847   4.209
23602WAT     H271049   8.048   7.007   4.236
23603WAT      O71050   0.885   9.248   8.159
23603WAT     H171051   0.800   9.232   8.109
23603WAT     H271052   0.893   9.345   8.181
23604WAT      O71053   3.017   0.296   9.097
23604WAT     H171054   3.101   0.254   9.131
23604WAT     H271055   2.939   0.259   9.148
23605WAT      O71056   7.877   3.645   3.299
23605WAT     H171057   7.791   3.668   3.345
23605WAT     H271058   7.913   3.560   3.338
23606WAT      O71059   7.031   8.843   0.822
23606WAT     H171060   6.968   8.776   0.782
23606WAT     H271061   6.984   8.891   0.897
23607WAT      O71062   3.720   0.676   3.494
23607WAT     H171063   3.645   0.719   3.545
23607WAT     H271064   3.768   0.745   3.440
23608WAT      O71065   7.751   8.350   4.526
23608WAT     H171066   7.732   8.448   4.528
23608WAT     H271067   7.739   8.312   4.618
23609WAT      O71068   7.480   4.044   7.079
23609WAT     H171069   7.545   4.070   7.151
23609WAT     H271070   7.430   3.963   7.106
23610WAT      O71071   2.894   5.316   2.895
23610WAT     H171072   2.859   5.349   2.983
23610WAT     H271073   2.817   5.303   2.832
23611WAT      O71074   1.439   1.500   4.112
23611WAT     H171075   1.347   1.535   4.092
23611WAT     H271076   1.487   1.480   4.027
23612WAT      O71077   3.521   8.495   8.811
23612WAT     H171078   3.462   8.416   8.827
23612WAT     H271079   3.617   8.468   8.819
23613WAT      O71080   0.115   4.536   7.895
23613WAT     H171081   0.197   4.479   7.896
23613WAT     H271082   0.139   4.630   7.917
23614WAT      O71083   9.861   0.120   5.564
23614WAT     H171084   9.897   0.209   5.592
23614WAT     H271085   9.780   0.133   5.506
23615WAT      O71086   0.051   8.981   7.469
23615WAT     H171087   0.055   9.075   7.436
23615WAT     H271088  -0.025   8.971   7.533
23616WAT      O71089   5.344   5.369   6.640
23616WAT     H171090   5.269   5.414   6.593
23616WAT     H271091   5.400   5.436   6.688
23617WAT      O71092   4.738   4.002   0.865
23617WAT     H171093   4.795   4.006   0.783
23617WAT     H271094   4.776   4.063   0.934
23618WAT      O71095   6.629   1.757   2.633
23618WAT     H171096   6.630   1.833   2.568
23618WAT     H271097   6.652   1.791   2.724
23619WAT      O71098   0.985   1.732   3.501
23619WAT     H171099   1.006   1.700   3.409
23619WAT     H271100   0.971   1.832   3.500
23620WAT      O71101   8.679   7.600   3.204
23620WAT     H171102   8.708   7.507   3.229
23620WAT     H271103   8.758   7.655   3.179
23621WAT      O71104   4.994   7.027   3.103
23621WAT     H171105   4.932   7.002   3.177
23621WAT     H271106   4.979   6.967   3.025
23622WAT      O71107   8.875   5.083   4.382
23622WAT     H171108   8.924   5.068   4.296
23622WAT     H271109   8.793   5.137   4.364
23623WAT      O71110   0.481   4.240   1.822
23623WAT     H171111   0.552   4.184   1.868
23623WAT     H271112   0.396   4.188   1.819
23624WAT      O71113   7.310   2.279   8.892
23624WAT     H171114   7.258   2.325   8.963
23624WAT     H271115   7.345   2.346   8.827
23625WAT      O71116   2.128   0.957   2.940
23625WAT     H171117   2.143   1.055   2.933
23625WAT     H271118   2.150   0.912   2.853
23626WAT      O71119   4.102   5.830   3.596
23626WAT     H171120   4.162   5.762   3.639
23626WAT     H271121   4.018   5.785   3.566
23627WAT      O71122   4.788   1.576   8.421
23627WAT     H171123   4.767   1.481   8.401
23627WAT     H271124   4.820   1.622   8.338
23628WAT      O71125   0.977   8.167   9.441
23628WAT     H171126   1.064   8.185   9.487
23628WAT     H271127   0.903   8.211   9.491
23629WAT      O71128   9.337   4.999   4.987
23629WAT     H171129   9.248   4.960   4.965
23629WAT     H271130   9.379   5.036   4.904
23630WAT      O71131   5.087   9.471   9.190
23630WAT     H171132   5.076   9.406   9.265
23630WAT     H271133   5.058   9.428   9.105
23631WAT      O71134   8.471   2.254   4.765
23631WAT     H171135   8.462   2.154   4.764
23631WAT     H271136   8.387   2.296   4.732
23632WAT      O71137   9.873   2.740   4.739
23632WAT     H171138   9.863   2.666   4.674
23632WAT     H271139   9.956   2.727   4.793
23633WAT      O71140   9.831   6.176   0.471
23633WAT     H171141   9.888   6.257   0.488
23633WAT     H271142   9.766   6.166   0.547
23634WAT      O71143   8.933   4.897   7.335
23634WAT     H171144   8.974   4.808   7.353
23634WAT     H271145   8.875   4.923   7.412
23635WAT      O71146   8.145   8.899   5.755
23635WAT     H171147   8.146   8.886   5.855
23635WAT     H271148   8.209   8.972   5.730
23636WAT      O71149   1.728   2.264   9.747
23636WAT     H171150   1.666   2.187   9.754
23636WAT     H271151   1.676   2.349   9.743
23637WAT      O71152   2.214   4.597   2.761
23637WAT     H171153   2.276   4.663   2.804
23637WAT     H271154   2.266   4.538   2.700
23638WAT      O71155   1.110   8.592   2.488
23638WAT     H171156   1.135   8.687   2.503
23638WAT     H271157   1.192   8.538   2.468
23639WAT      O71158   2.494   1.949   8.014
23639WAT     H171159   2.566   1.888   7.980
23639WAT     H271160   2.536   2.021   8.070
23640WAT      O71161   0.604   6.828   8.879
23640WAT     H171162   0.594   6.742   8.928
23640WAT     H271163   0.561   6.821   8.789
23641WAT      O71164   5.210   1.229   8.905
23641WAT     H171165   5.123   1.217   8.857
23641WAT     H271166   5.280   1.172   8.862
23642WAT      O71167   9.495   3.093   9.788
23642WAT     H171168   9.417   3.073   9.728
23642WAT     H271169   9.565   3.023   9.774
23643WAT      O71170   2.340   3.145   9.519
23643WAT     H171171   2.300   3.055   9.501
23643WAT     H271172   2.402   3.169   9.444
23644WAT      O71173   3.029   9.234   1.765
23644WAT     H171174   2.932   9.250   1.751
23644WAT     H271175   3.075   9.321   1.785
23645WAT      O71176   7.486   2.735   4.764
23645WAT     H171177   7.459   2.700   4.854
23645WAT     H271178   7.418   2.709   4.696
23646WAT      O71179   0.250   4.010   7.644
23646WAT     H171180   0.183   3.943   7.679
23646WAT     H271181   0.208   4.101   7.643
23647WAT      O71182   4.083   8.913   3.192
23647WAT     H171183   4.172   8.910   3.237
23647WAT     H271184   4.056   9.008   3.176
23648WAT      O71185   3.670   1.402   0.250
23648WAT     H171186   3.623   1.435   0.168
23648WAT     H271187   3.605   1.351   0.307
23649WAT      O71188   1.115   2.991   9.148
23649WAT     H171189   1.033   2.974   9.093
23649WAT     H271190   1.161   3.074   9.116
23650WAT      O71191   8.869   9.606   9.212
23650WAT     H171192   8.941   9.609   9.281
23650WAT     H271193   8.843   9.700   9.187
23651WAT      O71194   8.138   3.271   0.579
23651WAT     H171195   8.038   3.276   0.571
23651WAT     H271196   8.172   3.193   0.526
23652WAT      O71197   4.506   9.476   0.850
23652WAT     H171198   4.584   9.536   0.838
23652WAT     H271199   4.506   9.438   0.943
23653WAT      O71200   9.487   7.327   0.620
23653WAT     H171201   9.449   7.305   0.530
23653WAT     H271202   9.557   7.397   0.610
23654WAT      O71203   7.395   4.258   1.775
23654WAT     H171204   7.308   4.230   1.816
23654WAT     H271205   7.448   4.177   1.751
23655WAT      O71206   2.817   9.229   4.090
23655WAT     H171207   2.812   9.211   4.188
23655WAT     H271208   2.729   9.263   4.058
23656WAT      O71209   9.019   3.534   0.694
23656WAT     H171210   9.013   3.542   0.794
23656WAT     H271211   9.041   3.439   0.670
23657WAT      O71212   8.884   9.063   3.396
23657WAT     H171213   8.802   9.064   3.339
23657WAT     H271214   8.962   9.029   3.343
23658WAT      O71215   5.609   5.670   8.001
23658WAT     H171216   5.567   5.752   7.961
23658WAT     H271217   5.578   5.589   7.950
23659WAT      O71218   1.811   6.005   4.677
23659WAT     H171219   1.861   6.059   4.610
23659WAT     H271220   1.781   5.919   4.635
23660WAT      O71221   0.412   1.402   0.616
23660WAT     H171222   0.356   1.349   0.552
23660WAT     H271223   0.382   1.498   0.615
23661WAT      O71224   6.730   1.547   6.766
23661WAT     H171225   6.796   1.475   6.789
23661WAT     H271226   6.643   1.506   6.738
23662WAT      O71227   3.113   8.322   3.790
23662WAT     H171228   3.113   8.256   3.715
23662WAT     H271229   3.068   8.406   3.761
23663WAT      O71230   9.288   7.697   1.242
23663WAT     H171231   9.361   7.684   1.174
23663WAT     H271232   9.325   7.685   1.334
23664WAT      O71233   9.831   6.996   2.023
23664WAT     H171234   9.846   7.071   1.958
23664WAT     H271235   9.902   6.999   2.094
23665WAT      O71236   9.533   4.813   7.268
23665WAT     H171237   9.567   4.733   7.318
23665WAT     H271238   9.510   4.886   7.332
23666WAT      O71239   4.442   5.311   2.817
23666WAT     H171240   4.534   5.351   2.815
23666WAT     H271241   4.429   5.254   2.736
23667WAT      O71242   3.090   6.393   2.857
23667WAT     H171243   3.018   6.456   2.828
23667WAT     H271244   3.048   6.310   2.893
23668WAT      O71245   3.040   4.606   3.348
23668WAT     H171246   3.044   4.670   3.272
23668WAT     H271247   3.129   4.604   3.394
23669WAT      O71248   4.551   2.059   6.477
23669WAT     H171249   4.606   1.983   6.512
23669WAT     H271250   4.606   2.115   6.415
23670WAT      O71251   6.973   7.684   7.553
23670WAT     H171252   6.977   7.594   7.508
23670WAT     H271253   6.989   7.672   7.651
23671WAT      O71254   9.381   0.504   4.880
23671WAT     H171255   9.442   0.433   4.914
23671WAT     H271256   9.330   0.470   4.802
23672WAT      O71257   0.606   1.436   9.013
23672WAT     H171258   0.706   1.425   9.014
23672WAT     H271259   0.565   1.366   9.073
23673WAT      O71260   9.045   7.071   9.664
23673WAT     H171261   9.091   6.996   9.713
23673WAT     H271262   9.024   7.144   9.729
23674WAT      O71263   3.247   9.289   0.742
23674WAT     H171264   3.152   9.318   0.730
23674WAT     H271265   3.270   9.221   0.672
23675WAT      O71266   0.120   5.981   4.809
23675WAT     H171267   0.195   6.021   4.756
23675WAT     H271268   0.056   5.936   4.747
23676WAT      O71269   1.893   9.691   9.796
23676WAT     H171270   1.902   9.638   9.880
23676WAT     H271271   1.959   9.766   9.798
23677WAT      O71272   6.350   8.827   6.827
23677WAT     H171273   6.382   8.773   6.905
23677WAT     H271274   6.428   8.851   6.769
23678WAT      O71275   2.237   2.695   3.223
23678WAT     H171276   2.182   2.679   3.306
23678WAT     H271277   2.285   2.782   3.233
23679WAT      O71278   1.246   0.837   7.161
23679WAT     H171279   1.213   0.745   7.139
23679WAT     H271280   1.330   0.830   7.215
23680WAT      O71281   0.479   7.838   9.180
23680WAT     H171282   0.487   7.773   9.104
23680WAT     H271283   0.407   7.809   9.242
23681WAT      O71284   2.596   2.289   7.078
23681WAT     H171285   2.513   2.344   7.087
23681WAT     H271286   2.636   2.304   6.987
23682WAT      O71287   9.121   8.836   2.868
23682WAT     H171288   9.218   8.860   2.872
23682WAT     H271289   9.085   8.854   2.776
23683WAT      O71290   5.853   7.516   6.285
23683WAT     H171291   5.777   7.580   6.299
23683WAT     H271292   5.913   7.518   6.365
23684WAT      O71293   3.538   8.290   1.627
23684WAT     H171294   3.443   8.293   1.658
23684WAT     H271295   3.577   8.382   1.632
23685WAT      O71296   5.697   0.395   8.715
23685WAT     H171297   5.688   0.344   8.800
23685WAT     H271298   5.638   0.355   8.645
23686WAT      O71299   0.670   0.124   7.931
23686WAT     H171300   0.633   0.151   7.843
23686WAT     H271301   0.657   0.025   7.943
23687WAT      O71302   4.579   6.949   3.469
23687WAT     H171303   4.522   7.020   3.428
23687WAT     H271304   4.522   6.871   3.496
23688WAT      O71305   7.274   0.296   0.152
23688WAT     H171306   7.224   0.295   0.065
23688WAT     H271307   7.371   0.310   0.134
23689WAT      O71308   4.219   1.005   5.886
23689WAT     H171309   4.124   0.980   5.869
23689WAT     H271310   4.279   0.938   5.841
23690WAT      O71311   4.629   6.016   1.232
23690WAT     H171312   4.592   5.996   1.324
23690WAT     H271313   4.648   5.930   1.185
23691WAT      O71314   1.766   1.245   6.078
23691WAT     H171315   1.757   1.156   6.123
23691WAT     H271316   1.785   1.315   6.147
23692WAT      O71317   2.856   7.636   9.008
23692WAT     H171318   2.857   7.677   9.100
23692WAT     H271319   2.784   7.680   8.954
23693WAT      O71320   3.965   4.586   1.768
23693WAT     H171321   3.989   4.539   1.853
23693WAT     H271322   4.012   4.542   1.691
23694WAT      O71323   5.524   2.277   0.559
23694WAT     H171324   5.503   2.374   0.570
23694WAT     H271325   5.623   2.264   0.553
23695WAT      O71326   4.499   9.368   2.136
23695WAT     H171327   4.415   9.369   2.082
23695WAT     H271328   4.573   9.408   2.082
23696WAT      O71329   9.726   8.698   4.027
23696WAT     H171330   9.708   8.739   3.938
23696WAT     H271331   9.767   8.608   4.015
23697WAT      O71332   1.403   5.958   5.605
23697WAT     H171333   1.392   5.981   5.508
23697WAT     H271334   1.465   5.880   5.613
23698WAT      O71335   3.294   9.334   3.269
23698WAT     H171336   3.224   9.385   3.219
23698WAT     H271337   3.288   9.354   3.366
23699WAT      O71338   8.214   2.603   4.859
23699WAT     H171339   8.225   2.628   4.955
23699WAT     H271340   8.295   2.633   4.807
23700WAT      O71341   2.034   4.338   8.897
23700WAT     H171342   2.117   4.339   8.952
23700WAT     H271343   2.058   4.333   8.800
23701WAT      O71344   7.927   6.051   2.210
23701WAT     H171345   7.837   6.008   2.223
23701WAT     H271346   7.943   6.117   2.284
23702WAT      O71347   2.995   0.442   7.880
23702WAT     H171348   2.938   0.477   7.807
23702WAT     H271349   2.937   0.414   7.957
23703WAT      O71350   5.761   3.912   4.452
23703WAT     H171351   5.676   3.964   4.458
23703WAT     H271352   5.784   3.898   4.356
23704WAT      O71353   7.147   4.190   1.861
23704WAT     H171354   7.082   4.197   1.937
23704WAT     H271355   7.103   4.219   1.776
23705WAT      O71356   3.583   9.753   1.897
23705WAT     H171357   3.539   9.819   1.836
23705WAT     H271358   3.599   9.794   1.986
23706WAT      O71359   0.022   8.304   8.193
23706WAT     H171360  -0.053   8.272   8.251
23706WAT     H271361   0.092   8.233   8.187
23707WAT      O71362   7.847   1.585   9.213
23707WAT     H171363   7.796   1.664   9.179
23707WAT     H271364   7.909   1.614   9.286
23708WAT      O71365   4.380   2.116   8.551
23708WAT     H171366   4.402   2.142   8.458
23708WAT     H271367   4.366   2.199   8.607
23709WAT      O71368   5.275   0.102   1.673
23709WAT     H171369   5.315   0.194   1.669
23709WAT     H271370   5.333   0.038   1.622
23710WAT      O71371   0.303   7.579   0.255
23710WAT     H171372   0.211   7.578   0.216
23710WAT     H271373   0.335   7.485   0.266
23711WAT      O71374   4.069   9.689   4.648
23711WAT     H171375   3.999   9.700   4.719
23711WAT     H271376   4.113   9.777   4.630
23712WAT      O71377   8.425   2.152   5.146
23712WAT     H171378   8.474   2.231   5.110
23712WAT     H271379   8.461   2.128   5.236
23713WAT      O71380   8.385   2.451   3.337
23713WAT     H171381   8.362   2.548   3.327
23713WAT     H271382   8.301   2.400   3.360
23714WAT      O71383   5.125   6.729   0.575
23714WAT     H171384   5.143   6.662   0.502
23714WAT     H271385   5.067   6.686   0.645
23715WAT      O71386   8.374   6.970   6.404
23715WAT     H171387   8.287   6.932   6.436
23715WAT     H271388   8.364   7.069   6.392
23716WAT      O71389   1.588   5.028   1.927
23716WAT     H171390   1.587   5.046   1.829
23716WAT     H271391   1.551   5.106   1.976
23717WAT      O71392   0.034   3.298   6.098
23717WAT     H171393  -0.013   3.385   6.113
23717WAT     H271394   0.058   3.257   6.186
23718WAT      O71395   0.642   8.547   5.059
23718WAT     H171396   0.618   8.584   5.148
23718WAT     H271397   0.673   8.620   4.999
23719WAT      O71398   7.830   5.880   7.927
23719WAT     H171399   7.859   5.967   7.886
23719WAT     H271400   7.832   5.809   7.857
23720WAT      O71401   2.991   6.381   7.281
23720WAT     H171402   2.954   6.294   7.249
23720WAT     H271403   3.074   6.366   7.334
23721WAT      O71404   4.356   0.509   2.899
23721WAT     H171405   4.381   0.605   2.893
23721WAT     H271406   4.397   0.468   2.980
23722WAT      O71407   0.430   2.750   9.594
23722WAT     H171408   0.395   2.840   9.572
23722WAT     H271409   0.471   2.708   9.513
23723WAT      O71410   1.927   7.514   9.677
23723WAT     H171411   1.868   7.509   9.757
23723WAT     H271412   1.988   7.594   9.685
23724WAT      O71413   4.223   3.590   6.861
23724WAT     H171414   4.144   3.623   6.914
23724WAT     H271415   4.196   3.576   6.766
23725WAT      O71416   0.878   2.096   7.701
23725WAT     H171417   0.817   2.019   7.718
23725WAT     H271418   0.824   2.179   7.686
23726WAT      O71419   7.909   5.805   1.721
23726WAT     H171420   7.996   5.782   1.765
23726WAT     H271421   7.840   5.825   1.792
23727WAT      O71422   4.497   3.686   0.956
23727WAT     H171423   4.455   3.769   0.991
23727WAT     H271424   4.596   3.696   0.956
23728WAT      O71425   7.557   9.485   7.347
23728WAT     H171426   7.638   9.524   7.389
23728WAT     H271427   7.475   9.521   7.392
23729WAT      O71428   9.064   7.761   6.573
23729WAT     H171429   8.997   7.835   6.565
23729WAT     H271430   9.154   7.799   6.594
23730WAT      O71431   0.479   0.333   7.099
23730WAT     H171432   0.415   0.317   7.023
23730WAT     H271433   0.433   0.312   7.185
23731WAT      O71434   6.063   7.044   3.190
23731WAT     H171435   6.139   7.024   3.251
23731WAT     H271436   5.978   7.047   3.242
23732WAT      O71437   3.641   7.533   5.027
23732WAT     H171438   3.586   7.451   5.011
23732WAT     H271439   3.592   7.613   4.991
23733WAT      O71440   9.467   7.899   7.210
23733WAT     H171441   9.556   7.939   7.230
23733WAT     H271442   9.443   7.834   7.282
23734WAT      O71443   4.795   7.150   8.492
23734WAT     H171444   4.766   7.092   8.416
23734WAT     H271445   4.799   7.097   8.576
23735WAT      O71446   8.296   0.725   6.355
23735WAT     H171447   8.231   0.650   6.344
23735WAT     H271448   8.253   0.799   6.407
23736WAT      O71449   0.815   0.608   7.669
23736WAT     H171450   0.887   0.625   7.735
23736WAT     H271451   0.726   0.632   7.709
23737WAT      O71452   1.930   5.625   2.602
23737WAT     H171453   1.857   5.692   2.586
23737WAT     H271454   1.898   5.534   2.576
23738WAT      O71455   0.174   9.433   6.887
23738WAT     H171456   0.129   9.504   6.941
23738WAT     H271457   0.132   9.344   6.907
23739WAT      O71458   0.519   3.835   3.914
23739WAT     H171459   0.426   3.862   3.891
23739WAT     H271460   0.539   3.859   4.009
23740WAT      O71461   6.081   0.827   5.587
23740WAT     H171462   5.992   0.850   5.626
23740WAT     H271463   6.137   0.782   5.657
23741WAT      O71464   8.316   2.734   7.079
23741WAT     H171465   8.362   2.706   6.994
23741WAT     H271466   8.274   2.654   7.122
23742WAT      O71467   6.326   0.200   4.067
23742WAT     H171468   6.276   0.224   3.984
23742WAT     H271469   6.376   0.115   4.052
23743WAT      O71470   8.506   4.949   7.159
23743WAT     H171471   8.471   5.043   7.164
23743WAT     H271472   8.449   4.890   7.216
23744WAT      O71473   7.462   2.121   3.110
23744WAT     H171474   7.554   2.146   3.078
23744WAT     H271475   7.462   2.114   3.210
23745WAT      O71476   5.397   5.599   8.204
23745WAT     H171477   5.394   5.499   8.203
23745WAT     H271478   5.489   5.630   8.179
23746WAT      O71479   2.286   3.174   5.982
23746WAT     H171480   2.383   3.162   6.005
23746WAT     H271481   2.248   3.088   5.948
23747WAT      O71482   6.447   0.555   2.335
23747WAT     H171483   6.490   0.642   2.355
23747WAT     H271484   6.427   0.507   2.420
23748WAT      O71485   0.973   1.465   1.115
23748WAT     H171486   1.019   1.419   1.040
23748WAT     H271487   1.036   1.529   1.160
23749WAT      O71488   9.608   6.778   8.413
23749WAT     H171489   9.683   6.732   8.366
23749WAT     H271490   9.530   6.787   8.351
23750WAT      O71491   1.823   1.890   8.456
23750WAT     H171492   1.823   1.959   8.529
23750WAT     H271493   1.916   1.877   8.423
23751WAT      O71494   7.084   5.254   8.567
23751WAT     H171495   7.162   5.197   8.592
23751WAT     H271496   7.095   5.286   8.473
23752WAT      O71497   4.364   7.059   6.319
23752WAT     H171498   4.425   7.002   6.374
23752WAT     H271499   4.407   7.079   6.231
23753WAT      O71500   6.223   7.800   5.828
23753WAT     H171501   6.170   7.715   5.832
23753WAT     H271502   6.304   7.792   5.886
23754WAT      O71503   6.441   1.009   7.300
23754WAT     H171504   6.409   0.963   7.218
23754WAT     H271505   6.402   0.965   7.381
23755WAT      O71506   8.259   8.683   6.765
23755WAT     H171507   8.346   8.725   6.792
23755WAT     H271508   8.245   8.599   6.817
23756WAT      O71509   1.685   5.503   6.744
23756WAT     H171510   1.726   5.531   6.658
23756WAT     H271511   1.720   5.413   6.771
23757WAT      O71512   1.952   8.689   9.687
23757WAT     H171513   1.952   8.660   9.783
23757WAT     H271514   1.866   8.664   9.644
23758WAT      O71515   5.672   7.370   8.822
23758WAT     H171516   5.746   7.436   8.809
23758WAT     H271517   5.608   7.376   8.746
23759WAT      O71518   2.346   2.574   6.513
23759WAT     H171519   2.413   2.520   6.461
23759WAT     H271520   2.360   2.672   6.494
23760WAT      O71521   4.933   5.549   9.730
23760WAT     H171522   5.019   5.521   9.773
23760WAT     H271523   4.943   5.545   9.630
23761WAT      O71524   4.212   9.021   2.104
23761WAT     H171525   4.281   9.068   2.049
23761WAT     H271526   4.247   8.931   2.131
23762WAT      O71527   6.056   5.228   6.155
23762WAT     H171528   6.040   5.205   6.251
23762WAT     H271529   6.145   5.272   6.146
23763WAT      O71530   6.486   1.472   2.877
23763WAT     H171531   6.579   1.435   2.878
23763WAT     H271532   6.421   1.401   2.900
23764WAT      O71533   4.225   4.233   1.673
23764WAT     H171534   4.183   4.309   1.623
23764WAT     H271535   4.228   4.257   1.771
23765WAT      O71536   2.797   1.780   3.657
23765WAT     H171537   2.893   1.806   3.668
23765WAT     H271538   2.775   1.705   3.720
23766WAT      O71539   0.238   2.866   5.887
23766WAT     H171540   0.226   2.835   5.793
23766WAT     H271541   0.172   2.937   5.908
23767WAT      O71542   5.937   0.284   3.760
23767WAT     H171543   5.900   0.234   3.681
23767WAT     H271544   5.921   0.382   3.748
23768WAT      O71545   1.606   9.238   3.454
23768WAT     H171546   1.581   9.211   3.547
23768WAT     H271547   1.568   9.328   3.434
23769WAT      O71548   3.632   8.777   8.192
23769WAT     H171549   3.666   8.718   8.119
23769WAT     H271550   3.697   8.853   8.206
23770WAT      O71551   4.351   8.803   6.161
23770WAT     H171552   4.430   8.750   6.194
23770WAT     H271553   4.304   8.752   6.090
23771WAT      O71554   4.153   4.833   5.130
23771WAT     H171555   4.084   4.766   5.103
23771WAT     H271556   4.212   4.795   5.200
23772WAT      O71557   4.969   6.945   1.334
23772WAT     H171558   4.898   6.875   1.330
23772WAT     H271559   4.986   6.981   1.242
23773WAT      O71560   4.437   4.140   2.681
23773WAT     H171561   4.433   4.186   2.769
23773WAT     H271562   4.348   4.146   2.636
23774WAT      O71563   5.888   6.813   9.176
23774WAT     H171564   5.808   6.766   9.139
23774WAT     H271565   5.906   6.896   9.122
23775WAT      O71566   5.329   1.539   0.555
23775WAT     H171567   5.401   1.568   0.492
23775WAT     H271568   5.241   1.538   0.507
23776WAT      O71569   8.912   3.919   4.947
23776WAT     H171570   8.927   3.897   5.043
23776WAT     H271571   8.822   3.960   4.935
23777WAT      O71572   2.459   8.447   2.851
23777WAT     H171573   2.481   8.377   2.783
23777WAT     H271574   2.542   8.497   2.876
23778WAT      O71575   1.171   6.621   0.022
23778WAT     H171576   1.223   6.701  -0.009
23778WAT     H271577   1.203   6.594   0.112
23779WAT      O71578   3.098   4.000   0.661
23779WAT     H171579   3.024   4.063   0.687
23779WAT     H271580   3.136   4.028   0.573
23780WAT      O71581   6.768   3.590   6.217
23780WAT     H171582   6.714   3.655   6.163
23780WAT     H271583   6.833   3.640   6.274
23781WAT      O71584   0.315   1.987   1.815
23781WAT     H171585   0.216   2.000   1.820
23781WAT     H271586   0.343   1.922   1.886
23782WAT      O71587   0.387   7.753   2.741
23782WAT     H171588   0.466   7.754   2.803
23782WAT     H271589   0.368   7.659   2.713
23783WAT      O71590   1.629   0.790   5.008
23783WAT     H171591   1.654   0.884   5.034
23783WAT     H271592   1.712   0.738   4.990
23784WAT      O71593   1.535   2.134   7.701
23784WAT     H171594   1.472   2.207   7.729
23784WAT     H271595   1.570   2.153   7.609
23785WAT      O71596   5.670   1.928   4.234
23785WAT     H171597   5.759   1.910   4.275
23785WAT     H271598   5.640   2.021   4.257
23786WAT      O71599   2.325   1.235   6.585
23786WAT     H171600   2.339   1.273   6.677
23786WAT     H271601   2.360   1.298   6.517
23787WAT      O71602   3.852   9.535   4.536
23787WAT     H171603   3.939   9.584   4.532
23787WAT     H271604   3.777   9.602   4.534
23788WAT      O71605   2.352   6.311   3.428
23788WAT     H171606   2.327   6.396   3.473
23788WAT     H271607   2.303   6.303   3.341
23789WAT      O71608   5.914   9.524   2.790
23789WAT     H171609   5.995   9.468   2.772
23789WAT     H271610   5.862   9.537   2.706
23790WAT      O71611   6.757   7.794   6.425
23790WAT     H171612   6.788   7.863   6.360
23790WAT     H271613   6.763   7.831   6.518
23791WAT      O71614   0.943   6.818   2.257
23791WAT     H171615   0.951   6.733   2.205
23791WAT     H271616   0.926   6.894   2.193
23792WAT      O71617   3.798   3.796   5.126
23792WAT     H171618   3.704   3.792   5.093
23792WAT     H271619   3.802   3.844   5.213
23793WAT      O71620   3.150   5.473   7.939
23793WAT     H171621   3.123   5.469   7.843
23793WAT     H271622   3.114   5.394   7.988
23794WAT      O71623   7.860   3.591   6.868
23794WAT     H171624   7.898   3.676   6.903
23794WAT     H271625   7.897   3.514   6.921
23795WAT      O71626   9.612   0.712   4.500
23795WAT     H171627   9.633   0.784   4.567
23795WAT     H271628   9.642   0.741   4.409
23796WAT      O71629   6.500   8.031   1.744
23796WAT     H171630   6.537   8.098   1.680
23796WAT     H271631   6.504   7.940   1.703
23797WAT      O71632   4.786   2.729   6.848
23797WAT     H171633   4.862   2.710   6.910
23797WAT     H271634   4.699   2.709   6.894
23798WAT      O71635   1.067   5.758   6.312
23798WAT     H171636   1.105   5.838   6.357
23798WAT     H271637   1.004   5.786   6.241
23799WAT      O71638   6.217   1.181   0.630
23799WAT     H171639   6.274   1.231   0.565
23799WAT     H271640   6.121   1.206   0.617
23800WAT      O71641   6.100   3.502   0.799
23800WAT     H171642   6.134   3.409   0.793
23800WAT     H271643   6.120   3.539   0.890
23801WAT      O71644   1.701   2.107   3.326
23801WAT     H171645   1.649   2.078   3.245
23801WAT     H271646   1.682   2.203   3.345
23802WAT      O71647   8.571   4.888   0.594
23802WAT     H171648   8.610   4.832   0.667
23802WAT     H271649   8.529   4.970   0.633
23803WAT      O71650   3.912   4.479   9.387
23803WAT     H171651   3.912   4.382   9.363
23803WAT     H271652   4.005   4.514   9.380
23804WAT      O71653   3.809   5.984   8.075
23804WAT     H171654   3.728   5.925   8.076
23804WAT     H271655   3.785   6.072   8.034
23805WAT      O71656   9.550   7.328   9.440
23805WAT     H171657   9.645   7.349   9.463
23805WAT     H271658   9.547   7.248   9.379
23806WAT      O71659   6.240   6.825   8.697
23806WAT     H171660   6.251   6.749   8.762
23806WAT     H271661   6.160   6.807   8.640
23807WAT      O71662   6.836   3.732   9.054
23807WAT     H171663   6.796   3.775   8.973
23807WAT     H271664   6.863   3.639   9.031
23808WAT      O71665   5.810   1.901   3.049
23808WAT     H171666   5.748   1.940   2.980
23808WAT     H271667   5.905   1.914   3.020
23809WAT      O71668   5.037   0.490   9.709
23809WAT     H171669   5.111   0.526   9.652
23809WAT     H271670   4.960   0.464   9.651
23810WAT      O71671   1.885   7.874   0.097
23810WAT     H171672   1.972   7.869   0.049
23810WAT     H271673   1.852   7.781   0.116
23811WAT      O71674   4.707   9.055   2.461
23811WAT     H171675   4.704   9.069   2.362
23811WAT     H271676   4.774   8.984   2.483
23812WAT      O71677   5.574   1.721   2.215
23812WAT     H171678   5.526   1.804   2.242
23812WAT     H271679   5.621   1.681   2.294
23813WAT      O71680   8.661   1.456   7.204
23813WAT     H171681   8.684   1.379   7.262
23813WAT     H271682   8.712   1.537   7.234
23814WAT      O71683   6.432   2.219   2.965
23814WAT     H171684   6.370   2.143   2.944
23814WAT     H271685   6.477   2.201   3.053
23815WAT      O71686   3.757   5.908   5.489
23815WAT     H171687   3.694   5.842   5.448
23815WAT     H271688   3.744   5.998   5.447
23816WAT      O71689   7.784   2.381   5.609
23816WAT     H171690   7.723   2.431   5.547
23816WAT     H271691   7.788   2.285   5.582
23817WAT      O71692   6.948   5.838   8.786
23817WAT     H171693   7.010   5.893   8.730
23817WAT     H271694   6.854   5.869   8.772
23818WAT      O71695   1.451   5.572   3.389
23818WAT     H171696   1.415   5.488   3.349
23818WAT     H271697   1.444   5.567   3.489
23819WAT      O71698   8.751   9.567   9.566
23819WAT     H171699   8.659   9.552   9.532
23819WAT     H271700   8.808   9.487   9.546
23820WAT      O71701   8.356   0.640   8.027
23820WAT     H171702   8.266   0.681   8.009
23820WAT     H271703   8.387   0.666   8.118
23821WAT      O71704   7.796   6.348   2.201
23821WAT     H171705   7.758   6.288   2.131
23821WAT     H271706   7.759   6.323   2.290
23822WAT      O71707   3.177   4.829   3.848
23822WAT     H171708   3.273   4.827   3.874
23822WAT     H271709   3.120   4.812   3.928
23823WAT      O71710   7.601   9.687   2.305
23823WAT     H171711   7.520   9.643   2.344
23823WAT     H271712   7.576   9.775   2.266
23824WAT      O71713   5.236   6.089   8.273
23824WAT     H171714   5.302   6.035   8.220
23824WAT     H271715   5.223   6.047   8.362
23825WAT      O71716   1.531   6.508   0.359
23825WAT     H171717   1.572   6.587   0.405
23825WAT     H271718   1.591   6.428   0.371
23826WAT      O71719   3.703   5.981   8.624
23826WAT     H171720   3.657   5.944   8.543
23826WAT     H271721   3.777   5.920   8.651
23827WAT      O71722   9.533   8.838   7.211
23827WAT     H171723   9.604   8.787   7.163
23827WAT     H271724   9.459   8.859   7.147
23828WAT      O71725   2.396   8.418   8.858
23828WAT     H171726   2.476   8.478   8.859
23828WAT     H271727   2.406   8.349   8.787
23829WAT      O71728   6.180   5.241   8.575
23829WAT     H171729   6.260   5.245   8.634
23829WAT     H271730   6.208   5.251   8.479
23830WAT      O71731   8.979   6.391   8.497
23830WAT     H171732   8.910   6.446   8.544
23830WAT     H271733   8.957   6.294   8.505
23831WAT      O71734   9.800   5.144   6.315
23831WAT     H171735   9.706   5.110   6.328
23831WAT     H271736   9.796   5.241   6.293
23832WAT      O71737   7.034   8.892   0.115
23832WAT     H171738   7.035   8.984   0.155
23832WAT     H271739   7.128   8.859   0.107
23833WAT      O71740   1.106   1.102   4.583
23833WAT     H171741   1.170   1.043   4.533
23833WAT     H271742   1.033   1.131   4.521
23834WAT      O71743   3.977   8.757   8.488
23834WAT     H171744   4.038   8.678   8.481
23834WAT     H271745   3.886   8.726   8.517
23835WAT      O71746   0.561   9.240   0.780
23835WAT     H171747   0.540   9.325   0.733
23835WAT     H271748   0.660   9.234   0.796
23836WAT      O71749   8.176   8.604   3.869
23836WAT     H171750   8.239   8.526   3.875
23836WAT     H271751   8.201   8.661   3.790
23837WAT      O71752   4.661   7.966   1.222
23837WAT     H171753   4.621   7.934   1.137
23837WAT     H271754   4.760   7.953   1.220
23838WAT      O71755   8.926   0.318   8.866
23838WAT     H171756   8.864   0.346   8.939
23838WAT     H271757   8.945   0.220   8.874
23839WAT      O71758   1.468   3.549   5.356
23839WAT     H171759   1.562   3.537   5.324
23839WAT     H271760   1.467   3.554   5.456
23840WAT      O71761   6.620   1.068   2.416
23840WAT     H171762   6.629   1.152   2.471
23840WAT     H271763   6.582   1.091   2.326
23841WAT      O71764   1.484   9.592   9.010
23841WAT     H171765   1.396   9.559   9.044
23841WAT     H271766   1.504   9.548   8.922
23842WAT      O71767   7.083   1.625   6.517
23842WAT     H171768   7.098   1.535   6.558
23842WAT     H271769   6.986   1.639   6.502
23843WAT      O71770   4.383   2.638   9.167
23843WAT     H171771   4.312   2.694   9.123
23843WAT     H271772   4.446   2.604   9.097
23844WAT      O71773   6.578   0.766   2.495
23844WAT     H171774   6.526   0.837   2.543
23844WAT     H271775   6.659   0.808   2.453
23845WAT      O71776   0.128   8.445   5.948
23845WAT     H171777   0.151   8.487   5.860
23845WAT     H271778   0.030   8.456   5.965
23846WAT      O71779   5.544   1.195   0.662
23846WAT     H171780   5.572   1.206   0.566
23846WAT     H271781   5.563   1.280   0.711
23847WAT      O71782   5.051   3.478   1.651
23847WAT     H171783   4.989   3.423   1.594
23847WAT     H271784   5.082   3.422   1.728
23848WAT      O71785   5.608   3.891   7.074
23848WAT     H171786   5.584   3.837   6.993
23848WAT     H271787   5.706   3.880   7.093
23849WAT      O71788   5.387   9.117   8.982
23849WAT     H171789   5.344   9.205   8.965
23849WAT     H271790   5.318   9.051   9.014
23850WAT      O71791   4.607   5.074   1.634
23850WAT     H171792   4.676   5.031   1.576
23850WAT     H271793   4.647   5.154   1.679
23851WAT      O71794   5.787   7.580   4.006
23851WAT     H171795   5.847   7.653   4.038
23851WAT     H271796   5.693   7.614   4.002
23852WAT      O71797   0.853   1.485   4.236
23852WAT     H171798   0.756   1.481   4.261
23852WAT     H271799   0.875   1.409   4.176
23853WAT      O71800   2.989   4.295   9.083
23853WAT     H171801   3.073   4.240   9.076
23853WAT     H271802   2.946   4.302   8.993
23854WAT      O71803   2.748   0.718   1.678
23854WAT     H171804   2.680   0.735   1.749
23854WAT     H271805   2.703   0.698   1.592
23855WAT      O71806   6.248   2.736   5.347
23855WAT     H171807   6.171   2.678   5.321
23855WAT     H271808   6.320   2.727   5.278
23856WAT      O71809   1.978   4.149   3.761
23856WAT     H171810   2.054   4.208   3.733
23856WAT     H271811   1.940   4.103   3.681
23857WAT      O71812   9.663   9.270   5.751
23857WAT     H171813   9.715   9.333   5.694
23857WAT     H271814   9.709   9.180   5.751
23858WAT      O71815   9.472   0.410   2.662
23858WAT     H171816   9.566   0.398   2.630
23858WAT     H271817   9.438   0.499   2.634
23859WAT      O71818   6.231   7.102   8.581
23859WAT     H171819   6.187   7.036   8.521
23859WAT     H271820   6.260   7.057   8.665
23860WAT      O71821   1.607   5.994   4.308
23860WAT     H171822   1.691   5.987   4.362
23860WAT     H271823   1.620   5.947   4.221
23861WAT      O71824   6.035   0.379   6.052
23861WAT     H171825   5.964   0.410   6.115
23861WAT     H271826   6.040   0.442   5.974
23862WAT      O71827   5.477   1.958   1.965
23862WAT     H171828   5.506   1.986   1.874
23862WAT     H271829   5.442   1.864   1.961
23863WAT      O71830   6.753   2.740   7.305
23863WAT     H171831   6.736   2.788   7.219
23863WAT     H271832   6.698   2.657   7.308
23864WAT      O71833   2.077   3.987   3.959
23864WAT     H171834   2.055   4.049   3.883
23864WAT     H271835   2.094   4.040   4.042
23865WAT      O71836   6.757   1.755   0.968
23865WAT     H171837   6.689   1.686   0.944
23865WAT     H271838   6.747   1.781   1.064
23866WAT      O71839   9.478   2.975   0.452
23866WAT     H171840   9.536   2.950   0.374
23866WAT     H271841   9.528   3.035   0.513
23867WAT      O71842   0.189   1.257   0.741
23867WAT     H171843   0.256   1.312   0.691
23867WAT     H271844   0.186   1.286   0.836
23868WAT      O71845   2.824   6.181   2.239
23868WAT     H171846   2.832   6.149   2.334
23868WAT     H271847   2.909   6.228   2.213
23869WAT      O71848   6.227   5.635   3.742
23869WAT     H171849   6.249   5.646   3.645
23869WAT     H271850   6.312   5.626   3.794
23870WAT      O71851   6.932   4.295   5.774
23870WAT     H171852   6.939   4.210   5.721
23870WAT     H271853   6.945   4.373   5.712
23871WAT      O71854   2.025   6.519   3.420
23871WAT     H171855   2.049   6.488   3.512
23871WAT     H271856   1.997   6.616   3.424
23872WAT      O71857   3.613   0.853   7.257
23872WAT     H171858   3.626   0.944   7.295
23872WAT     H271859   3.523   0.818   7.284
23873WAT      O71860   7.173   8.444   2.547
23873WAT     H171861   7.086   8.397   2.562
23873WAT     H271862   7.241   8.379   2.516
23874WAT      O71863   9.386   9.554   2.989
23874WAT     H171864   9.297   9.530   3.028
23874WAT     H271865   9.410   9.647   3.017
23875WAT      O71866   0.358   9.117   7.421
23875WAT     H171867   0.376   9.039   7.361
23875WAT     H271868   0.441   9.173   7.428
23876WAT      O71869   5.009   8.496   9.232
23876WAT     H171870   5.039   8.407   9.199
23876WAT     H271871   4.911   8.493   9.251
23877WAT      O71872   3.410   4.215   2.457
23877WAT     H171873   3.481   4.285   2.447
23877WAT     H271874   3.391   4.201   2.555
23878WAT      O71875   6.246   6.770   0.057
23878WAT     H171876   6.315   6.707   0.095
23878WAT     H271877   6.292   6.852   0.023
23879WAT      O71878   0.947   2.456   2.915
23879WAT     H171879   1.031   2.508   2.927
23879WAT     H271880   0.869   2.518   2.911
23880WAT      O71881   1.407   3.774   9.064
23880WAT     H171882   1.466   3.791   8.986
23880WAT     H271883   1.366   3.860   9.095
23881WAT      O71884   3.870   8.238   1.091
23881WAT     H171885   3.822   8.270   1.009
23881WAT     H271886   3.919   8.153   1.070
23882WAT      O71887   5.022   8.434   3.099
23882WAT     H171888   5.061   8.420   3.008
23882WAT     H271889   5.095   8.438   3.167
23883WAT      O71890   3.864   8.209   6.180
23883WAT     H171891   3.956   8.173   6.171
23883WAT     H271892   3.797   8.142   6.147
23884WAT      O71893   3.490   7.327   6.092
23884WAT     H171894   3.585   7.325   6.124
23884WAT     H271895   3.481   7.392   6.017
23885WAT      O71896   1.426   7.519   5.469
23885WAT     H171897   1.377   7.596   5.429
23885WAT     H271898   1.404   7.512   5.567
23886WAT      O71899   9.375   5.123   6.905
23886WAT     H171900   9.376   5.167   6.994
23886WAT     H271901   9.466   5.087   6.884
23887WAT      O71902   6.860   0.501   1.042
23887WAT     H171903   6.873   0.498   0.942
23887WAT     H271904   6.922   0.436   1.085
23888WAT      O71905   8.900   3.318   3.886
23888WAT     H171906   8.970   3.291   3.953
23888WAT     H271907   8.938   3.311   3.794
23889WAT      O71908   9.382   1.129   9.101
23889WAT     H171909   9.292   1.094   9.077
23889WAT     H271910   9.444   1.118   9.024
23890WAT      O71911   2.710   2.255   3.783
23890WAT     H171912   2.807   2.274   3.791
23890WAT     H271913   2.697   2.168   3.734
23891WAT      O71914   4.807   6.132   3.529
23891WAT     H171915   4.756   6.145   3.614
23891WAT     H271916   4.898   6.096   3.550
23892WAT      O71917   2.493   1.426   6.086
23892WAT     H171918   2.463   1.333   6.107
23892WAT     H271919   2.534   1.428   5.994
23893WAT      O71920   8.450   7.214   7.041
23893WAT     H171921   8.498   7.196   7.127
23893WAT     H271922   8.481   7.150   6.971
23894WAT      O71923   9.337   2.724   4.600
23894WAT     H171924   9.432   2.726   4.572
23894WAT     H271925   9.332   2.725   4.700
23895WAT      O71926   3.444   8.928   3.331
23895WAT     H171927   3.512   8.996   3.356
23895WAT     H271928   3.389   8.904   3.411
23896WAT      O71929   5.628   0.698   0.850
23896WAT     H171930   5.599   0.782   0.803
23896WAT     H271931   5.670   0.722   0.937
23897WAT      O71932   9.531   0.868   0.801
23897WAT     H171933   9.627   0.851   0.780
23897WAT     H271934   9.513   0.843   0.897
23898WAT      O71935   9.290   8.289   1.313
23898WAT     H171936   9.344   8.285   1.229
23898WAT     H271937   9.231   8.209   1.318
23899WAT      O71938   9.619   3.675   3.580
23899WAT     H171939   9.717   3.664   3.599
23899WAT     H271940   9.607   3.715   3.489
23900WAT      O71941   9.162   7.812   0.205
23900WAT     H171942   9.072   7.854   0.216
23900WAT     H271943   9.233   7.878   0.229
23901WAT      O71944   2.194   2.941   9.893
23901WAT     H171945   2.251   3.016   9.858
23901WAT     H271946   2.166   2.883   9.817
23902WAT      O71947   3.411   3.776   8.767
23902WAT     H171948   3.351   3.750   8.692
23902WAT     H271949   3.363   3.766   8.854
23903WAT      O71950   3.804   2.325   5.659
23903WAT     H171951   3.709   2.304   5.683
23903WAT     H271952   3.839   2.254   5.598
23904WAT      O71953   1.785   6.455   9.450
23904WAT     H171954   1.776   6.388   9.524
23904WAT     H271955   1.706   6.448   9.390
23905WAT      O71956   8.621   5.146   5.272
23905WAT     H171957   8.591   5.157   5.178
23905WAT     H271958   8.548   5.101   5.325
23906WAT      O71959   8.965   6.507   6.455
23906WAT     H171960   8.961   6.607   6.450
23906WAT     H271961   8.968   6.478   6.550
23907WAT      O71962   2.994   7.408   3.513
23907WAT     H171963   3.013   7.487   3.572
23907WAT     H271964   3.037   7.423   3.423
23908WAT      O71965   4.092   5.992   3.260
23908WAT     H171966   4.150   6.060   3.305
23908WAT     H271967   4.128   5.900   3.279
23909WAT      O71968   8.566   5.826   9.643
23909WAT     H171969   8.650   5.799   9.597
23909WAT     H271970   8.585   5.902   9.706
23910WAT      O71971   6.865   6.127   4.113
23910WAT     H171972   6.774   6.169   4.112
23910WAT     H271973   6.912   6.151   4.198
23911WAT      O71974   1.138   8.209   2.355
23911WAT     H171975   1.232   8.235   2.377
23911WAT     H271976   1.100   8.155   2.431
23912WAT      O71977   5.982   1.065   7.334
23912WAT     H171978   5.976   1.106   7.425
23912WAT     H271979   5.898   1.015   7.314
23913WAT      O71980   9.402   2.598   4.857
23913WAT     H171981   9.420   2.530   4.928
23913WAT     H271982   9.465   2.675   4.869
23914WAT      O71983   2.662   9.579   3.112
23914WAT     H171984   2.729   9.599   3.040
23914WAT     H271985   2.663   9.653   3.179
23915WAT      O71986   8.846   7.310   8.100
23915WAT     H171987   8.903   7.355   8.169
23915WAT     H271988   8.888   7.223   8.075
23916WAT      O71989   2.203   3.407   7.359
23916WAT     H171990   2.225   3.415   7.262
23916WAT     H271991   2.135   3.335   7.372
23917WAT      O71992   7.331   2.945   5.394
23917WAT     H171993   7.391   3.023   5.379
23917WAT     H271994   7.256   2.971   5.454
23918WAT      O71995   6.244   2.171   1.570
23918WAT     H171996   6.314   2.103   1.592
23918WAT     H271997   6.262   2.209   1.479
23919WAT      O71998   7.687   4.198   1.109
23919WAT     H171999   7.708   4.204   1.012
23919WAT     H272000   7.763   4.235   1.162
23920WAT      O72001   7.500   1.609   3.228
23920WAT     H172002   7.562   1.597   3.150
23920WAT     H272003   7.413   1.647   3.195
23921WAT      O72004   2.555   5.995   0.914
23921WAT     H172005   2.610   5.927   0.962
23921WAT     H272006   2.465   5.956   0.895
23922WAT      O72007   1.480   5.311   0.366
23922WAT     H172008   1.460   5.364   0.448
23922WAT     H272009   1.537   5.366   0.305
23923WAT      O72010   3.195   2.737   0.615
23923WAT     H172011   3.189   2.672   0.540
23923WAT     H272012   3.104   2.754   0.653
23924WAT      O72013   6.571   6.921   5.141
23924WAT     H172014   6.622   6.999   5.176
23924WAT     H272015   6.619   6.836   5.162
23925WAT      O72016   3.182   4.200   5.570
23925WAT     H172017   3.089   4.236   5.573
23925WAT     H272018   3.216   4.186   5.663
23926WAT      O72019   3.012   2.659   6.694
23926WAT     H172020   3.080   2.732   6.687
23926WAT     H272021   2.948   2.666   6.617
23927WAT      O72022   0.862   0.686   9.234
23927WAT     H172023   0.900   0.666   9.143
23927WAT     H272024   0.835   0.601   9.279
23928WAT      O72025   5.948   6.057   5.506
23928WAT     H172026   5.957   6.051   5.407
23928WAT     H272027   6.038   6.072   5.547
23929WAT      O72028   0.873   8.330   5.629
23929WAT     H172029   0.913   8.262   5.691
23929WAT     H272030   0.775   8.335   5.645
23930WAT      O72031   5.968   0.292   1.696
23930WAT     H172032   6.008   0.378   1.727
23930WAT     H272033   5.934   0.303   1.603
23931WAT      O72034   1.091   3.370   6.823
23931WAT     H172035   1.092   3.470   6.823
23931WAT     H272036   1.051   3.338   6.909
23932WAT      O72037   5.983   3.929   1.572
23932WAT     H172038   5.967   3.927   1.473
23932WAT     H272039   6.033   4.012   1.595
23933WAT      O72040   9.232   7.394   0.666
23933WAT     H172041   9.326   7.362   0.667
23933WAT     H272042   9.190   7.378   0.755
23934WAT      O72043   6.568   0.113   2.396
23934WAT     H172044   6.524   0.143   2.311
23934WAT     H272045   6.525   0.028   2.428
23935WAT      O72046   1.507   8.182   9.354
23935WAT     H172047   1.508   8.271   9.399
23935WAT     H272048   1.600   8.153   9.335
23936WAT      O72049   9.125   5.701   9.645
23936WAT     H172050   9.065   5.776   9.670
23936WAT     H272051   9.220   5.732   9.648
23937WAT      O72052   6.207   2.950   1.978
23937WAT     H172053   6.198   2.880   2.048
23937WAT     H272054   6.218   2.907   1.889
23938WAT      O72055   4.652   9.339   9.337
23938WAT     H172056   4.747   9.314   9.357
23938WAT     H272057   4.651   9.418   9.275
23939WAT      O72058   5.226   4.604   5.786
23939WAT     H172059   5.283   4.563   5.858
23939WAT     H272060   5.284   4.625   5.707
23940WAT      O72061   1.198   9.448   7.298
23940WAT     H172062   1.175   9.473   7.204
23940WAT     H272063   1.260   9.369   7.297
23941WAT      O72064   4.327   1.262   2.873
23941WAT     H172065   4.283   1.258   2.962
23941WAT     H272066   4.425   1.278   2.884
23942WAT      O72067   6.983   5.005   8.173
23942WAT     H172068   7.032   4.948   8.106
23942WAT     H272069   7.014   4.982   8.265
23943WAT      O72070   5.083   7.320   1.228
23943WAT     H172071   5.099   7.416   1.247
23943WAT     H272072   5.037   7.277   1.306
23944WAT      O72073   7.478   6.759   2.662
23944WAT     H172074   7.427   6.740   2.746
23944WAT     H272075   7.576   6.754   2.682
23945WAT      O72076   2.313   9.188   2.772
23945WAT     H172077   2.353   9.252   2.706
23945WAT     H272078   2.353   9.204   2.862
23946WAT      O72079   2.047   3.808   2.525
23946WAT     H172080   2.002   3.893   2.553
23946WAT     H272081   1.993   3.730   2.556
23947WAT      O72082   9.367   0.020   7.158
23947WAT     H172083   9.303   0.090   7.190
23947WAT     H272084   9.443   0.012   7.222
23948WAT      O72085   4.524   5.914   6.508
23948WAT     H172086   4.577   5.867   6.579
23948WAT     H272087   4.581   5.925   6.426
23949WAT      O72088   3.247   9.812   6.761
23949WAT     H172089   3.241   9.745   6.836
23949WAT     H272090   3.327   9.871   6.776
23950WAT      O72091   1.076   2.342   8.920
23950WAT     H172092   1.066   2.301   9.010
23950WAT     H272093   1.130   2.282   8.861
23951WAT      O72094   0.613   7.810   5.569
23951WAT     H172095   0.673   7.768   5.637
23951WAT     H272096   0.551   7.741   5.531
23952WAT      O72097   6.141   0.121   1.355
23952WAT     H172098   6.143   0.064   1.437
23952WAT     H272099   6.155   0.217   1.381
23953WAT      O72100   4.775   0.518   2.194
23953WAT     H172101   4.714   0.538   2.271
23953WAT     H272102   4.863   0.562   2.209
23954WAT      O72103   4.664   5.138   1.971
23954WAT     H172104   4.683   5.207   1.901
23954WAT     H272105   4.616   5.061   1.930
23955WAT      O72106   4.943   9.120   4.946
23955WAT     H172107   4.924   9.218   4.936
23955WAT     H272108   4.881   9.068   4.886
23956WAT      O72109   8.632   1.950   3.509
23956WAT     H172110   8.566   2.025   3.516
23956WAT     H272111   8.723   1.988   3.490
23957WAT      O72112   8.149   2.671   6.765
23957WAT     H172113   8.127   2.743   6.698
23957WAT     H272114   8.067   2.618   6.784
23958WAT      O72115   0.146   1.357   9.147
23958WAT     H172116   0.073   1.394   9.090
23958WAT     H272117   0.221   1.423   9.151
23959WAT      O72118   5.083   9.330   5.154
23959WAT     H172119   5.006   9.391   5.139
23959WAT     H272120   5.153   9.346   5.084
23960WAT      O72121   8.373   5.325   4.285
23960WAT     H172122   8.429   5.397   4.244
23960WAT     H272123   8.314   5.285   4.214
23961WAT      O72124   1.536   8.847   4.521
23961WAT     H172125   1.475   8.920   4.491
23961WAT     H272126   1.585   8.810   4.442
23962WAT      O72127   5.962   7.492   7.483
23962WAT     H172128   5.886   7.442   7.526
23962WAT     H272129   6.043   7.434   7.483
23963WAT      O72130   1.406   0.230   6.411
23963WAT     H172131   1.348   0.184   6.343
23963WAT     H272132   1.480   0.168   6.438
23964WAT      O72133   3.005   4.399   6.231
23964WAT     H172134   3.086   4.445   6.268
23964WAT     H272135   3.027   4.302   6.216
23965WAT      O72136   2.160   2.350   0.245
23965WAT     H172137   2.119   2.273   0.294
23965WAT     H272138   2.259   2.336   0.238
23966WAT      O72139   6.681   7.745   7.692
23966WAT     H172140   6.663   7.673   7.625
23966WAT     H272141   6.769   7.788   7.673
23967WAT      O72142   7.869   4.351   7.707
23967WAT     H172143   7.819   4.437   7.697
23967WAT     H272144   7.966   4.365   7.688
23968WAT      O72145   4.405   1.236   8.282
23968WAT     H172146   4.487   1.294   8.280
23968WAT     H272147   4.345   1.262   8.206
23969WAT      O72148   9.311   6.416   3.448
23969WAT     H172149   9.340   6.321   3.438
23969WAT     H272150   9.212   6.422   3.433
23970WAT      O72151   9.230   7.431   5.064
23970WAT     H172152   9.183   7.364   5.123
23970WAT     H272153   9.328   7.423   5.079
23971WAT      O72154   8.149   9.436   9.342
23971WAT     H172155   8.126   9.532   9.355
23971WAT     H272156   8.185   9.422   9.249
23972WAT      O72157   2.094   9.386   3.985
23972WAT     H172158   2.021   9.451   3.966
23972WAT     H272159   2.081   9.303   3.930
23973WAT      O72160   1.507   2.210   0.465
23973WAT     H172161   1.514   2.180   0.560
23973WAT     H272162   1.481   2.306   0.462
23974WAT      O72163   8.657   9.081   7.163
23974WAT     H172164   8.632   9.130   7.080
23974WAT     H272165   8.712   9.141   7.221
23975WAT      O72166   4.866   5.150   8.475
23975WAT     H172167   4.886   5.211   8.398
23975WAT     H272168   4.940   5.084   8.485
23976WAT      O72169   3.874   3.665   2.210
23976WAT     H172170   3.785   3.665   2.163
23976WAT     H272171   3.860   3.682   2.307
23977WAT      O72172   2.277   5.796   9.848
23977WAT     H172173   2.314   5.719   9.900
23977WAT     H272174   2.180   5.808   9.870
23978WAT      O72175   1.494   7.292   7.763
23978WAT     H172176   1.510   7.386   7.731
23978WAT     H272177   1.581   7.251   7.790
23979WAT      O72178   1.404   3.401   4.078
23979WAT     H172179   1.368   3.425   3.988
23979WAT     H272180   1.414   3.483   4.134
23980WAT      O72181   4.072   0.467   8.631
23980WAT     H172182   3.979   0.440   8.605
23980WAT     H272183   4.121   0.386   8.663
23981WAT      O72184   7.765   3.218   6.725
23981WAT     H172185   7.840   3.283   6.729
23981WAT     H272186   7.791   3.134   6.773
23982WAT      O72187   2.128   6.760   9.261
23982WAT     H172188   2.064   6.828   9.225
23982WAT     H272189   2.077   6.686   9.305
23983WAT      O72190   5.020   9.044   5.507
23983WAT     H172191   5.098   9.029   5.567
23983WAT     H272192   5.035   8.996   5.420
23984WAT      O72193   5.949   2.183   3.722
23984WAT     H172194   5.925   2.187   3.818
23984WAT     H272195   5.914   2.098   3.682
23985WAT      O72196   3.203   9.016   1.901
23985WAT     H172197   3.124   9.063   1.862
23985WAT     H272198   3.200   8.920   1.875
23986WAT      O72199   7.397   3.150   8.181
23986WAT     H172200   7.340   3.232   8.174
23986WAT     H272201   7.378   3.105   8.269
23987WAT      O72202   0.366   1.567   3.157
23987WAT     H172203   0.331   1.484   3.200
23987WAT     H272204   0.348   1.646   3.217
23988WAT      O72205   6.473   8.626   4.001
23988WAT     H172206   6.396   8.575   3.962
23988WAT     H272207   6.537   8.649   3.929
23989WAT      O72208   9.154   5.585   8.840
23989WAT     H172209   9.130   5.488   8.828
23989WAT     H272210   9.099   5.641   8.777
23990WAT      O72211   4.736   7.956   0.309
23990WAT     H172212   4.740   7.953   0.409
23990WAT     H272213   4.811   7.902   0.270
23991WAT      O72214   0.152   4.270   2.031
23991WAT     H172215   0.147   4.248   1.933
23991WAT     H272216   0.248   4.276   2.059
23992WAT      O72217   5.887   6.145   3.652
23992WAT     H172218   5.954   6.072   3.645
23992WAT     H272219   5.850   6.166   3.561
23993WAT      O72220   7.319   1.817   8.702
23993WAT     H172221   7.278   1.803   8.612
23993WAT     H272222   7.392   1.885   8.696
23994WAT      O72223   7.298   9.759   6.074
23994WAT     H172224   7.199   9.771   6.061
23994WAT     H272225   7.317   9.747   6.172
23995WAT      O72226   0.365   9.175   9.145
23995WAT     H172227   0.345   9.209   9.053
23995WAT     H272228   0.453   9.128   9.144
23996WAT      O72229   9.246   4.686   7.812
23996WAT     H172230   9.325   4.689   7.751
23996WAT     H272231   9.263   4.620   7.885
23997WAT      O72232   7.685   6.248   1.528
23997WAT     H172233   7.631   6.258   1.444
23997WAT     H272234   7.779   6.277   1.510
23998WAT      O72235   1.469   2.828   6.837
23998WAT     H172236   1.540   2.824   6.907
23998WAT     H272237   1.424   2.739   6.830
23999WAT      O72238   3.139   2.124   6.999
23999WAT     H172239   3.039   2.132   6.988
23999WAT     H272240   3.164   2.144   7.093
24000WAT      O72241   3.163   7.752   4.653
24000WAT     H172242   3.094   7.722   4.587
24000WAT     H272243   3.225   7.677   4.674
24001WAT      O72244   2.143   0.142   6.746
24001WAT     H172245   2.108   0.203   6.675
24001WAT     H272246   2.121   0.180   6.836
24002WAT      O72247   4.615   1.236   9.144
24002WAT     H172248   4.517   1.221   9.126
24002WAT     H272249   4.650   1.161   9.201
24003WAT      O72250   9.722   5.876   2.438
24003WAT     H172251   9.755   5.849   2.348
24003WAT     H272252   9.624   5.856   2.444
24004WAT      O72253   2.264   4.947   9.815
24004WAT     H172254   2.236   4.951   9.719
24004WAT     H272255   2.187   4.974   9.873
24005WAT      O72256   3.025   8.953   1.435
24005WAT     H172257   3.093   8.986   1.500
24005WAT     H272258   2.938   8.998   1.451
24006WAT      O72259   7.569   6.846   0.741
24006WAT     H172260   7.557   6.926   0.801
24006WAT     H272261   7.487   6.790   0.744
24007WAT      O72262   1.528   1.648   6.178
24007WAT     H172263   1.583   1.731   6.169
24007WAT     H272264   1.437   1.664   6.141
24008WAT      O72265   9.050   8.137   5.137
24008WAT     H172266   8.954   8.160   5.120
24008WAT     H272267   9.101   8.221   5.157
24009WAT      O72268   9.490   8.288   9.752
24009WAT     H172269   9.473   8.307   9.656
24009WAT     H272270   9.569   8.341   9.784
24010WAT      O72271   5.772   7.835   6.116
24010WAT     H172272   5.837   7.895   6.068
24010WAT     H272273   5.786   7.843   6.214
24011WAT      O72274   0.965   2.948   7.531
24011WAT     H172275   0.985   2.933   7.434
24011WAT     H272276   0.877   2.994   7.540
24012WAT      O72277   1.399   4.258   5.481
24012WAT     H172278   1.496   4.242   5.498
24012WAT     H272279   1.353   4.282   5.567
24013WAT      O72280   0.416   7.311   0.294
24013WAT     H172281   0.353   7.256   0.240
24013WAT     H272282   0.501   7.327   0.242
24014WAT      O72283   5.022   8.119   6.110
24014WAT     H172284   4.972   8.145   6.027
24014WAT     H272285   5.051   8.024   6.103
24015WAT      O72286   5.977   0.813   3.862
24015WAT     H172287   6.047   0.846   3.925
24015WAT     H272288   5.887   0.824   3.903
24016WAT      O72289   0.024   6.380   2.995
24016WAT     H172290  -0.034   6.459   3.011
24016WAT     H272291   0.120   6.407   3.003
24017WAT      O72292   0.803   1.254   5.376
24017WAT     H172293   0.810   1.182   5.444
24017WAT     H272294   0.764   1.336   5.418
24018WAT      O72295   2.842   0.565   6.487
24018WAT     H172296   2.873   0.597   6.398
24018WAT     H272297   2.742   0.563   6.489
24019WAT      O72298   3.175   4.832   4.898
24019WAT     H172299   3.258   4.806   4.946
24019WAT     H272300   3.194   4.911   4.839
24020WAT      O72301   7.910   7.288   4.856
24020WAT     H172302   7.987   7.345   4.827
24020WAT     H272303   7.925   7.194   4.825
24021WAT      O72304   3.347   6.508   7.892
24021WAT     H172305   3.352   6.499   7.793
24021WAT     H272306   3.375   6.422   7.935
24022WAT      O72307   9.064   1.064   3.915
24022WAT     H172308   9.117   1.117   3.849
24022WAT     H272309   9.089   1.093   4.008
24023WAT      O72310   0.690   5.818   8.213
24023WAT     H172311   0.627   5.854   8.282
24023WAT     H272312   0.746   5.893   8.178
24024WAT      O72313   1.361   8.890   6.585
24024WAT     H172314   1.330   8.942   6.505
24024WAT     H272315   1.366   8.951   6.664
24025WAT      O72316   5.169   3.110   8.887
24025WAT     H172317   5.215   3.059   8.959
24025WAT     H272318   5.088   3.059   8.857
24026WAT      O72319   5.067   0.055   9.865
24026WAT     H172320   5.144   0.065   9.928
24026WAT     H272321   5.097   0.002   9.786
24027WAT      O72322   1.523   7.830   7.212
24027WAT     H172323   1.582   7.891   7.264
24027WAT     H272324   1.448   7.882   7.172
24028WAT      O72325   2.909   2.086   1.370
24028WAT     H172326   3.005   2.071   1.394
24028WAT     H272327   2.851   2.068   1.450
24029WAT      O72328   9.874   9.206   5.307
24029WAT     H172329   9.812   9.228   5.231
24029WAT     H272330   9.847   9.118   5.347
24030WAT      O72331   7.660   3.235   5.174
24030WAT     H172332   7.641   3.330   5.199
24030WAT     H272333   7.702   3.232   5.084
24031WAT      O72334   1.360   3.674   1.236
24031WAT     H172335   1.393   3.765   1.262
24031WAT     H272336   1.429   3.606   1.259
24032WAT      O72337   3.425   4.310   8.221
24032WAT     H172338   3.434   4.219   8.262
24032WAT     H272339   3.499   4.325   8.157
24033WAT      O72340   6.048   0.243   7.604
24033WAT     H172341   6.060   0.320   7.666
24033WAT     H272342   5.952   0.215   7.601
24034WAT      O72343   0.476   9.627   9.323
24034WAT     H172344   0.439   9.538   9.350
24034WAT     H272345   0.485   9.631   9.223
24035WAT      O72346   5.706   9.525   4.030
24035WAT     H172347   5.756   9.612   4.025
24035WAT     H272348   5.615   9.541   4.068
24036WAT      O72349   8.965   4.808   1.143
24036WAT     H172350   8.890   4.864   1.109
24036WAT     H272351   9.047   4.827   1.089
24037WAT      O72352   8.273   0.266   0.760
24037WAT     H172353   8.290   0.182   0.813
24037WAT     H272354   8.339   0.336   0.787
24038WAT      O72355   2.041   4.947   7.140
24038WAT     H172356   2.013   4.869   7.195
24038WAT     H272357   1.979   4.957   7.062
24039WAT      O72358   2.513   2.060   2.865
24039WAT     H172359   2.527   2.004   2.947
24039WAT     H272360   2.569   2.143   2.871
24040WAT      O72361   8.132   7.332   7.438
24040WAT     H172362   8.121   7.431   7.425
24040WAT     H272363   8.043   7.290   7.454
24041WAT      O72364   2.092   5.721   1.433
24041WAT     H172365   2.162   5.660   1.470
24041WAT     H272366   2.031   5.751   1.506
24042WAT      O72367   3.014   8.983   6.192
24042WAT     H172368   3.113   8.985   6.182
24042WAT     H272369   2.977   9.075   6.182
24043WAT      O72370   2.443   0.695   0.311
24043WAT     H172371   2.455   0.763   0.384
24043WAT     H272372   2.464   0.737   0.223
24044WAT      O72373   4.837   7.703   5.142
24044WAT     H172374   4.879   7.657   5.221
24044WAT     H272375   4.771   7.642   5.100
24045WAT      O72376   6.504   6.897   7.019
24045WAT     H172377   6.423   6.936   6.974
24045WAT     H272378   6.532   6.957   7.094
24046WAT      O72379   8.884   6.765   7.764
24046WAT     H172380   8.983   6.783   7.768
24046WAT     H272381   8.863   6.711   7.683
24047WAT      O72382   2.295   7.045   7.939
24047WAT     H172383   2.202   7.058   7.975
24047WAT     H272384   2.328   6.954   7.963
24048WAT      O72385   8.871   4.736   3.556
24048WAT     H172386   8.782   4.772   3.531
24048WAT     H272387   8.880   4.734   3.656
24049WAT      O72388   5.445   7.623   1.337
24049WAT     H172389   5.481   7.582   1.421
24049WAT     H272390   5.373   7.564   1.299
24050WAT      O72391   9.143   8.729   8.986
24050WAT     H172392   9.052   8.700   8.957
24050WAT     H272393   9.135   8.789   9.066
24051WAT      O72394   4.498   5.333   2.129
24051WAT     H172395   4.548   5.418   2.112
24051WAT     H272396   4.555   5.256   2.101
24052WAT      O72397   4.616   7.172   3.971
24052WAT     H172398   4.653   7.082   3.992
24052WAT     H272399   4.688   7.229   3.931
24053WAT      O72400   7.279   6.015   5.688
24053WAT     H172401   7.312   6.109   5.691
24053WAT     H272402   7.284   5.980   5.595
24054WAT      O72403   7.131   7.102   3.376
24054WAT     H172404   7.102   7.140   3.288
24054WAT     H272405   7.063   7.037   3.409
24055WAT      O72406   8.040   0.553   1.109
24055WAT     H172407   8.120   0.585   1.057
24055WAT     H272408   8.063   0.551   1.207
24056WAT      O72409   1.853   2.139   7.777
24056WAT     H172410   1.775   2.195   7.747
24056WAT     H272411   1.881   2.079   7.702
24057WAT      O72412   1.972   5.588   9.830
24057WAT     H172413   1.991   5.662   9.894
24057WAT     H272414   1.885   5.605   9.784
24058WAT      O72415   3.549   7.190   4.100
24058WAT     H172416   3.576   7.246   4.179
24058WAT     H272417   3.490   7.116   4.130
24059WAT      O72418   9.765   6.393   7.544
24059WAT     H172419   9.852   6.395   7.494
24059WAT     H272420   9.747   6.483   7.584
24060WAT      O72421   0.747   7.678   7.279
24060WAT     H172422   0.743   7.723   7.190
24060WAT     H272423   0.671   7.709   7.336
24061WAT      O72424   8.660   4.011   3.234
24061WAT     H172425   8.626   4.103   3.253
24061WAT     H272426   8.602   3.967   3.165
24062WAT      O72427   0.848   7.494   1.165
24062WAT     H172428   0.766   7.439   1.185
24062WAT     H272429   0.899   7.509   1.249
24063WAT      O72430   1.411   9.683   8.085
24063WAT     H172431   1.429   9.753   8.016
24063WAT     H272432   1.495   9.665   8.137
24064WAT      O72433   4.164   8.540   8.474
24064WAT     H172434   4.246   8.527   8.418
24064WAT     H272435   4.092   8.479   8.442
24065WAT      O72436   4.241   3.871   1.989
24065WAT     H172437   4.158   3.882   2.043
24065WAT     H272438   4.221   3.888   1.893
24066WAT      O72439   4.407   9.639   4.219
24066WAT     H172440   4.365   9.551   4.240
24066WAT     H272441   4.348   9.713   4.251
24067WAT      O72442   0.704   4.434   5.073
24067WAT     H172443   0.784   4.429   5.014
24067WAT     H272444   0.622   4.408   5.022
24068WAT      O72445   2.596   1.758   7.529
24068WAT     H172446   2.532   1.684   7.549
24068WAT     H272447   2.548   1.832   7.483
24069WAT      O72448   9.541   6.054   6.665
24069WAT     H172449   9.490   6.014   6.589
24069WAT     H272450   9.479   6.107   6.723
24070WAT      O72451   1.771   8.405   0.902
24070WAT     H172452   1.706   8.329   0.900
24070WAT     H272453   1.782   8.441   0.809
24071WAT      O72454   5.961   6.608   5.140
24071WAT     H172455   5.963   6.656   5.228
24071WAT     H272456   6.027   6.534   5.141
24072WAT      O72457   3.274   2.938   1.416
24072WAT     H172458   3.320   3.024   1.437
24072WAT     H272459   3.254   2.933   1.318
24073WAT      O72460   4.002   9.504   9.583
24073WAT     H172461   3.941   9.447   9.639
24073WAT     H272462   4.001   9.598   9.618
24074WAT      O72463   8.443   9.498   2.589
24074WAT     H172464   8.380   9.495   2.667
24074WAT     H272465   8.467   9.593   2.569
24075WAT      O72466   6.361   0.708   3.264
24075WAT     H172467   6.448   0.677   3.302
24075WAT     H272468   6.287   0.687   3.328
24076WAT      O72469   0.510   8.070   3.604
24076WAT     H172470   0.530   8.147   3.543
24076WAT     H272471   0.450   8.100   3.678
24077WAT      O72472   6.524   7.247   6.529
24077WAT     H172473   6.599   7.278   6.471
24077WAT     H272474   6.508   7.149   6.513
24078WAT      O72475   1.095   5.716   2.398
24078WAT     H172476   0.996   5.734   2.399
24078WAT     H272477   1.113   5.622   2.425
24079WAT      O72478   5.233   3.935   5.492
24079WAT     H172479   5.190   3.848   5.516
24079WAT     H272480   5.314   3.950   5.549
24080WAT      O72481   1.956   8.877   7.103
24080WAT     H172482   1.887   8.804   7.097
24080WAT     H272483   2.023   8.853   7.172
24081WAT      O72484   6.762   6.434   2.322
24081WAT     H172485   6.721   6.461   2.235
24081WAT     H272486   6.690   6.409   2.386
24082WAT      O72487   1.098   4.957   5.062
24082WAT     H172488   1.037   5.004   4.998
24082WAT     H272489   1.047   4.885   5.109
24083WAT      O72490   1.742   2.299   2.898
24083WAT     H172491   1.693   2.339   2.821
24083WAT     H272492   1.753   2.368   2.970
24084WAT      O72493   3.929   2.010   1.798
24084WAT     H172494   3.896   1.917   1.782
24084WAT     H272495   3.860   2.075   1.767
24085WAT      O72496   2.420   2.430   0.650
24085WAT     H172497   2.337   2.479   0.678
24085WAT     H272498   2.492   2.444   0.718
24086WAT      O72499   8.126   0.225   7.030
24086WAT     H172500   8.142   0.230   6.932
24086WAT     H272501   8.182   0.293   7.077
24087WAT      O72502   5.122   3.485   0.494
24087WAT     H172503   5.033   3.445   0.517
24087WAT     H272504   5.139   3.564   0.553
24088WAT      O72505   1.529   1.035   6.812
24088WAT     H172506   1.520   0.952   6.866
24088WAT     H272507   1.601   1.093   6.852
24089WAT      O72508   3.593   8.520   2.352
24089WAT     H172509   3.518   8.583   2.372
24089WAT     H272510   3.587   8.491   2.256
24090WAT      O72511   2.744   2.816   2.254
24090WAT     H172512   2.679   2.777   2.319
24090WAT     H272513   2.705   2.899   2.214
24091WAT      O72514   8.524   8.845   9.065
24091WAT     H172515   8.499   8.761   9.017
24091WAT     H272516   8.603   8.828   9.124
24092WAT      O72517   7.658   7.006   4.724
24092WAT     H172518   7.614   7.055   4.799
24092WAT     H272519   7.757   7.023   4.727
24093WAT      O72520   4.655   9.772   7.654
24093WAT     H172521   4.643   9.699   7.587
24093WAT     H272522   4.750   9.801   7.656
24094WAT      O72523   7.764   8.727   6.524
24094WAT     H172524   7.797   8.815   6.491
24094WAT     H272525   7.830   8.655   6.501
24095WAT      O72526   7.014   8.311   0.406
24095WAT     H172527   7.066   8.261   0.476
24095WAT     H272528   6.922   8.274   0.401
24096WAT      O72529   9.330   4.088   6.671
24096WAT     H172530   9.407   4.029   6.695
24096WAT     H272531   9.360   4.156   6.604
24097WAT      O72532   5.695   1.777   5.038
24097WAT     H172533   5.766   1.788   4.969
24097WAT     H272534   5.616   1.833   5.015
24098WAT      O72535   1.820   7.572   8.606
24098WAT     H172536   1.822   7.660   8.652
24098WAT     H272537   1.911   7.530   8.609
24099WAT      O72538   8.750   0.975   7.596
24099WAT     H172539   8.805   0.975   7.513
24099WAT     H272540   8.663   0.928   7.579
24100WAT      O72541   1.415   6.852   0.483
24100WAT     H172542   1.514   6.852   0.472
24100WAT     H272543   1.389   6.922   0.550
24101WAT      O72544   6.337   4.489   1.126
24101WAT     H172545   6.346   4.522   1.032
24101WAT     H272546   6.417   4.516   1.179
24102WAT      O72547   7.048   6.702   0.573
24102WAT     H172548   7.082   6.699   0.667
24102WAT     H272549   7.092   6.630   0.520
24103WAT      O72550   0.825   1.207   8.544
24103WAT     H172551   0.923   1.199   8.566
24103WAT     H272552   0.803   1.144   8.470
24104WAT      O72553   1.925   9.799   9.083
24104WAT     H172554   2.010   9.807   9.135
24104WAT     H272555   1.860   9.741   9.134
24105WAT      O72556   7.498   6.234   1.310
24105WAT     H172557   7.567   6.169   1.277
24105WAT     H272558   7.417   6.183   1.339
24106WAT      O72559   3.756   2.152   2.672
24106WAT     H172560   3.826   2.212   2.634
24106WAT     H272561   3.676   2.151   2.612
24107WAT      O72562   1.293   0.593   8.354
24107WAT     H172563   1.333   0.562   8.440
24107WAT     H272564   1.316   0.528   8.282
24108WAT      O72565   6.267   7.432   8.715
24108WAT     H172566   6.206   7.438   8.637
24108WAT     H272567   6.345   7.373   8.693
24109WAT      O72568   0.785   7.761   8.990
24109WAT     H172569   0.756   7.760   9.086
24109WAT     H272570   0.843   7.841   8.973
24110WAT      O72571   3.982   1.388   6.378
24110WAT     H172572   3.959   1.297   6.343
24110WAT     H272573   3.906   1.450   6.364
24111WAT      O72574   2.340   5.583   0.116
24111WAT     H172575   2.314   5.493   0.080
24111WAT     H272576   2.422   5.574   0.172
24112WAT      O72577   6.836   7.745   9.215
24112WAT     H172578   6.927   7.770   9.250
24112WAT     H272579   6.767   7.801   9.261
24113WAT      O72580   1.048   3.881   1.097
24113WAT     H172581   0.951   3.898   1.083
24113WAT     H272582   1.074   3.794   1.054
24114WAT      O72583   3.108   9.248   9.494
24114WAT     H172584   3.033   9.295   9.540
24114WAT     H272585   3.169   9.206   9.562
24115WAT      O72586   8.570   5.148   0.683
24115WAT     H172587   8.657   5.175   0.642
24115WAT     H272588   8.499   5.142   0.613
24116WAT      O72589   7.106   8.768   1.542
24116WAT     H172590   7.072   8.838   1.606
24116WAT     H272591   7.090   8.677   1.580
24117WAT      O72592   1.437   7.537   1.967
24117WAT     H172593   1.430   7.496   2.057
24117WAT     H272594   1.533   7.556   1.946
24118WAT      O72595   2.161   4.826   9.187
24118WAT     H172596   2.124   4.801   9.097
24118WAT     H272597   2.176   4.925   9.190
24119WAT      O72598   3.154   3.452   6.935
24119WAT     H172599   3.143   3.425   7.031
24119WAT     H272600   3.251   3.457   6.913
24120WAT      O72601   2.839   9.129   1.048
24120WAT     H172602   2.797   9.177   0.971
24120WAT     H272603   2.768   9.079   1.098
24121WAT      O72604   1.874   9.441   0.924
24121WAT     H172605   1.792   9.469   0.875
24121WAT     H272606   1.954   9.490   0.888
24122WAT      O72607   9.723   5.421   5.012
24122WAT     H172608   9.734   5.513   5.049
24122WAT     H272609   9.806   5.368   5.031
24123WAT      O72610   7.868   3.554   2.042
24123WAT     H172611   7.815   3.619   2.097
24123WAT     H272612   7.962   3.587   2.035
24124WAT      O72613   8.273   0.639   3.870
24124WAT     H172614   8.346   0.656   3.803
24124WAT     H272615   8.203   0.710   3.862
24125WAT      O72616   5.344   5.147   8.944
24125WAT     H172617   5.424   5.190   8.905
24125WAT     H272618   5.369   5.098   9.028
24126WAT      O72619   8.165   1.252   0.063
24126WAT     H172620   8.160   1.209   0.153
24126WAT     H272621   8.190   1.183  -0.005
24127WAT      O72622   2.350   6.573   1.864
24127WAT     H172623   2.364   6.569   1.963
24127WAT     H272624   2.379   6.662   1.829
24128WAT      O72625   1.151   6.898   3.499
24128WAT     H172626   1.120   6.991   3.517
24128WAT     H272627   1.072   6.840   3.476
24129WAT      O72628   4.511   1.734   5.561
24129WAT     H172629   4.601   1.742   5.603
24129WAT     H272630   4.491   1.818   5.509
24130WAT      O72631   7.778   6.067   6.691
24130WAT     H172632   7.766   6.019   6.604
24130WAT     H272633   7.689   6.074   6.737
24131WAT      O72634   1.178   8.164   3.930
24131WAT     H172635   1.261   8.154   3.986
24131WAT     H272636   1.100   8.179   3.990
24132WAT      O72637   4.270   2.759   4.729
24132WAT     H172638   4.298   2.683   4.787
24132WAT     H272639   4.350   2.815   4.707
24133WAT      O72640   4.391   2.562   5.179
24133WAT     H172641   4.305   2.531   5.218
24133WAT     H272642   4.442   2.616   5.247
24134WAT      O72643   1.518   2.704   4.097
24134WAT     H172644   1.601   2.678   4.048
24134WAT     H272645   1.519   2.661   4.188
24135WAT      O72646   3.937   8.769   2.372
24135WAT     H172647   4.027   8.771   2.416
24135WAT     H272648   3.884   8.693   2.409
24136WAT      O72649   8.443   7.959   4.997
24136WAT     H172650   8.503   7.949   4.918
24136WAT     H272651   8.354   7.995   4.967
24137WAT      O72652   7.770   6.633   7.137
24137WAT     H172653   7.786   6.634   7.039
24137WAT     H272654   7.847   6.676   7.184
24138WAT      O72655   7.927   2.294   1.638
24138WAT     H172656   7.887   2.205   1.614
24138WAT     H272657   7.987   2.325   1.565
24139WAT      O72658   8.376   7.196   7.417
24139WAT     H172659   8.440   7.229   7.487
24139WAT     H272660   8.291   7.250   7.422
24140WAT      O72661   6.094   2.803   4.200
24140WAT     H172662   6.136   2.736   4.260
24140WAT     H272663   5.994   2.798   4.209
24141WAT      O72664   5.392   7.379   7.434
24141WAT     H172665   5.368   7.422   7.347
24141WAT     H272666   5.470   7.427   7.474
24142WAT      O72667   3.964   2.786   6.988
24142WAT     H172668   3.983   2.882   7.009
24142WAT     H272669   3.881   2.780   6.933
24143WAT      O72670   3.430   8.319   7.923
24143WAT     H172671   3.456   8.331   8.019
24143WAT     H272672   3.456   8.401   7.871
24144WAT      O72673   4.369   7.131   4.510
24144WAT     H172674   4.357   7.068   4.434
24144WAT     H272675   4.355   7.083   4.597
24145WAT      O72676   7.437   3.207   5.315
24145WAT     H172677   7.528   3.193   5.276
24145WAT     H272678   7.370   3.214   5.241
24146WAT      O72679   1.496   7.609   4.005
24146WAT     H172680   1.552   7.692   4.002
24146WAT     H272681   1.489   7.571   3.913
24147WAT      O72682   7.046   2.186   8.593
24147WAT     H172683   7.139   2.149   8.604
24147WAT     H272684   7.016   2.227   8.679
24148WAT      O72685   4.099   4.798   0.376
24148WAT     H172686   4.183   4.846   0.400
24148WAT     H272687   4.047   4.777   0.459
24149WAT      O72688   4.259   0.289   0.878
24149WAT     H172689   4.179   0.229   0.877
24149WAT     H272690   4.273   0.328   0.787
24150WAT      O72691   2.826   5.579   9.044
24150WAT     H172692   2.755   5.611   9.105
24150WAT     H272693   2.896   5.650   9.033
24151WAT      O72694   7.290   2.130   8.672
24151WAT     H172695   7.361   2.059   8.674
24151WAT     H272696   7.291   2.181   8.758
24152WAT      O72697   8.783   9.227   7.907
24152WAT     H172698   8.822   9.138   7.931
24152WAT     H272699   8.850   9.280   7.855
24153WAT      O72700   4.861   5.807   4.754
24153WAT     H172701   4.957   5.793   4.731
24153WAT     H272702   4.809   5.829   4.671
24154WAT      O72703   9.198   2.609   2.202
24154WAT     H172704   9.219   2.703   2.230
24154WAT     H272705   9.146   2.610   2.117
24155WAT      O72706   5.909   9.494   3.249
24155WAT     H172707   5.912   9.440   3.165
24155WAT     H272708   5.992   9.478   3.303
24156WAT      O72709   1.729   3.491   8.681
24156WAT     H172710   1.632   3.496   8.657
24156WAT     H272711   1.740   3.429   8.758
24157WAT      O72712   2.357   6.827   0.295
24157WAT     H172713   2.451   6.824   0.260
24157WAT     H272714   2.359   6.829   0.395
24158WAT      O72715   1.217   3.756   2.163
24158WAT     H172716   1.208   3.747   2.064
24158WAT     H272717   1.312   3.780   2.185
24159WAT      O72718   5.713   6.104   6.827
24159WAT     H172719   5.732   6.012   6.861
24159WAT     H272720   5.632   6.102   6.768
24160WAT      O72721   7.431   7.913   6.438
24160WAT     H172722   7.342   7.899   6.395
24160WAT     H272723   7.495   7.843   6.405
24161WAT      O72724   9.377   8.940   2.873
24161WAT     H172725   9.451   8.893   2.921
24161WAT     H272726   9.355   9.025   2.921
24162WAT      O72727   9.873   5.758   6.518
24162WAT     H172728   9.800   5.767   6.450
24162WAT     H272729   9.851   5.685   6.583
24163WAT      O72730   6.777   6.104   4.693
24163WAT     H172731   6.700   6.046   4.719
24163WAT     H272732   6.748   6.167   4.621
24164WAT      O72733   2.875   8.651   8.229
24164WAT     H172734   2.922   8.588   8.167
24164WAT     H272735   2.882   8.616   8.323
24165WAT      O72736   4.371   5.327   3.688
24165WAT     H172737   4.415   5.297   3.772
24165WAT     H272738   4.436   5.381   3.634
24166WAT      O72739   2.540   9.331   3.189
24166WAT     H172740   2.521   9.297   3.281
24166WAT     H272741   2.583   9.421   3.194
24167WAT      O72742   6.827   9.786   8.447
24167WAT     H172743   6.824   9.869   8.390
24167WAT     H272744   6.885   9.718   8.403
24168WAT      O72745   7.731   4.063   6.529
24168WAT     H172746   7.749   4.004   6.450
24168WAT     H272747   7.802   4.049   6.598
24169WAT      O72748   5.799   8.657   2.484
24169WAT     H172749   5.754   8.673   2.571
24169WAT     H272750   5.842   8.566   2.484
24170WAT      O72751   6.604   6.597   3.157
24170WAT     H172752   6.542   6.569   3.231
24170WAT     H272753   6.613   6.522   3.092
24171WAT      O72754   1.037   2.671   6.817
24171WAT     H172755   0.979   2.639   6.892
24171WAT     H272756   0.990   2.656   6.730
24172WAT      O72757   1.587   5.880   8.847
24172WAT     H172758   1.652   5.905   8.775
24172WAT     H272759   1.523   5.812   8.811
24173WAT      O72760   5.193   0.549   8.546
24173WAT     H172761   5.113   0.526   8.600
24173WAT     H272762   5.169   0.620   8.480
24174WAT      O72763   9.526   2.573   0.678
24174WAT     H172764   9.486   2.661   0.651
24174WAT     H272765   9.454   2.513   0.712
24175WAT      O72766   0.558   0.618   9.001
24175WAT     H172767   0.637   0.556   9.001
24175WAT     H272768   0.487   0.582   9.062
24176WAT      O72769   8.476   9.703   7.425
24176WAT     H172770   8.571   9.728   7.442
24176WAT     H272771   8.472   9.614   7.379
24177WAT      O72772   2.544   4.037   2.911
24177WAT     H172773   2.600   3.962   2.875
24177WAT     H272774   2.578   4.064   3.001
24178WAT      O72775   3.514   9.250   6.687
24178WAT     H172776   3.507   9.256   6.787
24178WAT     H272777   3.548   9.337   6.651
24179WAT      O72778   2.644   2.217   8.578
24179WAT     H172779   2.632   2.251   8.672
24179WAT     H272780   2.575   2.147   8.559
24180WAT      O72781   8.033   6.913   0.964
24180WAT     H172782   7.961   6.863   0.916
24180WAT     H272783   8.058   6.864   1.048
24181WAT      O72784   2.202   2.449   9.566
24181WAT     H172785   2.222   2.505   9.646
24181WAT     H272786   2.136   2.378   9.590
24182WAT      O72787   9.403   4.609   0.267
24182WAT     H172788   9.320   4.553   0.275
24182WAT     H272789   9.483   4.550   0.270
24183WAT      O72790   4.551   6.010   5.011
24183WAT     H172791   4.588   6.055   5.092
24183WAT     H272792   4.540   6.076   4.937
24184WAT      O72793   7.812   4.321   3.349
24184WAT     H172794   7.740   4.312   3.280
24184WAT     H272795   7.894   4.359   3.307
24185WAT      O72796   5.143   6.761   9.302
24185WAT     H172797   5.213   6.814   9.349
24185WAT     H272798   5.126   6.676   9.353
24186WAT      O72799   6.692   5.511   2.643
24186WAT     H172800   6.632   5.531   2.566
24186WAT     H272801   6.787   5.508   2.612
24187WAT      O72802   5.343   3.004   7.625
24187WAT     H172803   5.316   2.962   7.712
24187WAT     H272804   5.386   3.092   7.643
24188WAT      O72805   6.604   4.933   0.670
24188WAT     H172806   6.609   4.850   0.726
24188WAT     H272807   6.675   4.931   0.600
24189WAT      O72808   3.792   5.701   2.521
24189WAT     H172809   3.871   5.662   2.568
24189WAT     H272810   3.754   5.776   2.575
24190WAT      O72811   9.334   9.821   1.654
24190WAT     H172812   9.346   9.722   1.663
24190WAT     H272813   9.282   9.855   1.732
24191WAT      O72814   2.480   4.906   8.322
24191WAT     H172815   2.470   5.004   8.340
24191WAT     H272816   2.567   4.874   8.359
24192WAT      O72817   7.822   9.225   5.642
24192WAT     H172818   7.760   9.233   5.720
24192WAT     H272819   7.776   9.178   5.567
24193WAT      O72820   0.264   6.954   4.448
24193WAT     H172821   0.286   7.035   4.502
24193WAT     H272822   0.345   6.925   4.397
24194WAT      O72823   9.496   4.341   1.273
24194WAT     H172824   9.505   4.385   1.362
24194WAT     H272825   9.583   4.300   1.246
24195WAT      O72826   8.586   8.208   9.203
24195WAT     H172827   8.557   8.216   9.108
24195WAT     H272828   8.680   8.174   9.206
24196WAT      O72829   9.105   0.151   0.804
24196WAT     H172830   9.145   0.147   0.896
24196WAT     H272831   9.049   0.233   0.797
24197WAT      O72832   6.339   3.428   8.795
24197WAT     H172833   6.274   3.371   8.745
24197WAT     H272834   6.425   3.378   8.808
24198WAT      O72835   3.729   0.798   5.999
24198WAT     H172836   3.716   0.790   5.900
24198WAT     H272837   3.806   0.741   6.027
24199WAT      O72838   4.926   1.637   4.970
24199WAT     H172839   5.004   1.575   4.969
24199WAT     H272840   4.919   1.683   4.881
24200WAT      O72841   8.790   8.813   9.889
24200WAT     H172842   8.711   8.767   9.930
24200WAT     H272843   8.838   8.748   9.830
24201WAT      O72844   8.470   6.828   8.780
24201WAT     H172845   8.556   6.875   8.803
24201WAT     H272846   8.434   6.783   8.862
24202WAT      O72847   1.483   6.744   3.183
24202WAT     H172848   1.458   6.689   3.103
24202WAT     H272849   1.557   6.700   3.233
24203WAT      O72850   6.375   1.012   5.318
24203WAT     H172851   6.424   0.930   5.347
24203WAT     H272852   6.309   1.039   5.388
24204WAT      O72853   5.786   4.829   3.067
24204WAT     H172854   5.692   4.838   3.100
24204WAT     H272855   5.809   4.732   3.057
24205WAT      O72856   0.841   8.284   8.441
24205WAT     H172857   0.875   8.244   8.356
24205WAT     H272858   0.745   8.258   8.455
24206WAT      O72859   7.914   4.409   9.633
24206WAT     H172860   8.013   4.396   9.626
24206WAT     H272861   7.874   4.332   9.684
24207WAT      O72862   2.063   3.988   1.453
24207WAT     H172863   1.982   3.932   1.438
24207WAT     H272864   2.098   4.021   1.365
24208WAT      O72865   6.668   2.729   4.996
24208WAT     H172866   6.654   2.636   4.961
24208WAT     H272867   6.749   2.730   5.055
24209WAT      O72868   6.475   8.658   6.614
24209WAT     H172869   6.544   8.607   6.665
24209WAT     H272870   6.385   8.639   6.654
24210WAT      O72871   8.750  -0.004   4.986
24210WAT     H172872   8.701   0.082   4.970
24210WAT     H272873   8.800   0.002   5.073
24211WAT      O72874   1.524   9.674   0.536
24211WAT     H172875   1.462   9.750   0.557
24211WAT     H272876   1.474   9.587   0.541
24212WAT      O72877   9.057   8.406   0.591
24212WAT     H172878   9.108   8.457   0.661
24212WAT     H272879   8.964   8.391   0.623
24213WAT      O72880   3.926   7.662   3.665
24213WAT     H172881   3.916   7.585   3.602
24213WAT     H272882   4.001   7.720   3.635
24214WAT      O72883   9.240   2.590   3.161
24214WAT     H172884   9.166   2.576   3.095
24214WAT     H272885   9.327   2.601   3.112
24215WAT      O72886   4.880   9.081   3.482
24215WAT     H172887   4.917   9.136   3.557
24215WAT     H272888   4.780   9.083   3.485
24216WAT      O72889   7.483   6.326   4.893
24216WAT     H172890   7.466   6.286   4.803
24216WAT     H272891   7.573   6.296   4.925
24217WAT      O72892   0.068   1.282   1.427
24217WAT     H172893   0.095   1.186   1.434
24217WAT     H272894   0.149   1.340   1.422
24218WAT      O72895   2.346   0.225   1.664
24218WAT     H172896   2.395   0.154   1.713
24218WAT     H272897   2.284   0.183   1.597
24219WAT      O72898   9.780   1.687   2.218
24219WAT     H172899   9.859   1.739   2.185
24219WAT     H272900   9.708   1.751   2.245
24220WAT      O72901   3.447   7.230   9.294
24220WAT     H172902   3.471   7.321   9.329
24220WAT     H272903   3.452   7.230   9.194
24221WAT      O72904   6.984   4.739   7.960
24221WAT     H172905   6.921   4.723   8.037
24221WAT     H272906   7.001   4.652   7.913
24222WAT      O72907   6.904   1.627   4.068
24222WAT     H172908   6.956   1.710   4.086
24222WAT     H272909   6.813   1.652   4.033
24223WAT      O72910   5.439   5.278   9.212
24223WAT     H172911   5.387   5.319   9.137
24223WAT     H272912   5.433   5.336   9.293
24224WAT      O72913   3.704   5.593   2.062
24224WAT     H172914   3.741   5.680   2.095
24224WAT     H272915   3.604   5.596   2.066
24225WAT      O72916   2.779   6.380   2.875
24225WAT     H172917   2.816   6.471   2.858
24225WAT     H272918   2.683   6.376   2.848
24226WAT      O72919   9.864   6.781   0.225
24226WAT     H172920   9.944   6.723   0.208
24226WAT     H272921   9.892   6.877   0.228
24227WAT      O72922   8.578   3.594   5.274
24227WAT     H172923   8.583   3.684   5.231
24227WAT     H272924   8.572   3.524   5.203
24228WAT      O72925   3.373   9.643   7.729
24228WAT     H172926   3.421   9.705   7.792
24228WAT     H272927   3.274   9.654   7.741
24229WAT      O72928   7.379   1.109   9.784
24229WAT     H172929   7.356   1.015   9.808
24229WAT     H272930   7.475   1.127   9.808
24230WAT      O72931   2.400   1.471   1.701
24230WAT     H172932   2.467   1.461   1.628
24230WAT     H272933   2.390   1.385   1.750
24231WAT      O72934   5.906   5.445   8.796
24231WAT     H172935   5.984   5.504   8.773
24231WAT     H272936   5.936   5.349   8.796
24232WAT      O72937   3.433   1.080   2.539
24232WAT     H172938   3.351   1.111   2.587
24232WAT     H272939   3.455   0.987   2.567
24233WAT      O72940   0.742   6.988   8.240
24233WAT     H172941   0.786   6.947   8.319
24233WAT     H272942   0.644   6.967   8.242
24234WAT      O72943   5.168   5.446   2.571
24234WAT     H172944   5.182   5.527   2.516
24234WAT     H272945   5.244   5.435   2.635
24235WAT      O72946   2.871   7.297   2.133
24235WAT     H172947   2.925   7.238   2.073
24235WAT     H272948   2.844   7.245   2.214
24236WAT      O72949   1.306   0.871   3.332
24236WAT     H172950   1.398   0.835   3.320
24236WAT     H272951   1.307   0.971   3.327
24237WAT      O72952   8.768   3.848   2.303
24237WAT     H172953   8.722   3.874   2.219
24237WAT     H272954   8.774   3.748   2.308
24238WAT      O72955   4.275   0.780   5.506
24238WAT     H172956   4.232   0.719   5.572
24238WAT     H272957   4.337   0.728   5.448
24239WAT      O72958   3.119   8.537   2.958
24239WAT     H172959   3.118   8.618   3.018
24239WAT     H272960   3.212   8.521   2.926
24240WAT      O72961   1.265   1.218   3.053
24240WAT     H172962   1.225   1.131   3.022
24240WAT     H272963   1.201   1.292   3.035
24241WAT      O72964   7.020   4.076   5.608
24241WAT     H172965   7.113   4.113   5.609
24241WAT     H272966   7.018   3.990   5.658
24242WAT      O72967   1.793   9.051   0.139
24242WAT     H172968   1.872   9.066   0.079
24242WAT     H272969   1.709   9.076   0.091
24243WAT      O72970   3.729   5.723   8.307
24243WAT     H172971   3.807   5.661   8.315
24243WAT     H272972   3.657   5.679   8.253
24244WAT      O72973   1.324   2.074   3.050
24244WAT     H172974   1.283   2.125   3.126
24244WAT     H272975   1.300   2.117   2.964
24245WAT      O72976   4.133   4.606   4.497
24245WAT     H172977   4.036   4.616   4.520
24245WAT     H272978   4.184   4.576   4.577
24246WAT      O72979   1.304   6.052   9.137
24246WAT     H172980   1.301   5.991   9.057
24246WAT     H272981   1.213   6.063   9.175
24247WAT      O72982   1.855   7.943   8.377
24247WAT     H172983   1.913   7.991   8.442
24247WAT     H272984   1.883   7.847   8.372
24248WAT      O72985   0.944   6.515   7.665
24248WAT     H172986   0.893   6.595   7.696
24248WAT     H272987   0.992   6.536   7.580
24249WAT      O72988   9.125   6.678   2.269
24249WAT     H172989   9.103   6.701   2.364
24249WAT     H272990   9.134   6.578   2.260
24250WAT      O72991   6.325   8.835   2.089
24250WAT     H172992   6.233   8.870   2.108
24250WAT     H272993   6.322   8.775   2.009
24251WAT      O72994   0.787   0.936   9.263
24251WAT     H172995   0.811   0.841   9.283
24251WAT     H272996   0.741   0.940   9.174
24252WAT      O72997   3.531   7.332   2.749
24252WAT     H172998   3.450   7.381   2.716
24252WAT     H272999   3.569   7.278   2.674
24253WAT      O73000   2.296   5.053   0.863
24253WAT     H173001   2.290   5.038   0.765
24253WAT     H273002   2.373   5.115   0.882
24254WAT      O73003   9.851   6.651   9.384
24254WAT     H173004   9.804   6.722   9.332
24254WAT     H273005   9.950   6.658   9.369
24255WAT      O73006   5.435   3.272   7.635
24255WAT     H173007   5.528   3.261   7.668
24255WAT     H273008   5.403   3.365   7.654
24256WAT      O73009   8.594   6.120   0.808
24256WAT     H173010   8.560   6.205   0.850
24256WAT     H273011   8.534   6.044   0.836
24257WAT      O73012   0.823   5.145   8.154
24257WAT     H173013   0.802   5.061   8.202
24257WAT     H273014   0.873   5.207   8.214
24258WAT      O73015   0.578   5.396   1.841
24258WAT     H173016   0.575   5.297   1.847
24258WAT     H273017   0.597   5.434   1.932
24259WAT      O73018   8.497   0.809   3.092
24259WAT     H173019   8.397   0.809   3.088
24259WAT     H273020   8.529   0.902   3.111
24260WAT      O73021   1.711   2.373   5.273
24260WAT     H173022   1.698   2.365   5.174
24260WAT     H273023   1.670   2.294   5.319
24261WAT      O73024   5.960   4.032   5.281
24261WAT     H173025   6.041   3.974   5.294
24261WAT     H273026   5.982   4.105   5.216
24262WAT      O73027   3.465   1.904   0.159
24262WAT     H173028   3.406   1.978   0.126
24262WAT     H273029   3.444   1.886   0.255
24263WAT      O73030   2.318   6.358   7.171
24263WAT     H173031   2.270   6.434   7.126
24263WAT     H273032   2.415   6.362   7.149
24264WAT      O73033   6.541   2.187   3.879
24264WAT     H173034   6.525   2.283   3.901
24264WAT     H273035   6.542   2.176   3.780
24265WAT      O73036   5.242   5.365   9.548
24265WAT     H173037   5.339   5.383   9.532
24265WAT     H273038   5.199   5.334   9.463
24266WAT      O73039   5.720   7.397   5.625
24266WAT     H173040   5.660   7.317   5.618
24266WAT     H273041   5.762   7.415   5.536
24267WAT      O73042   4.816   6.070   4.438
24267WAT     H173043   4.743   6.137   4.445
24267WAT     H273044   4.823   6.038   4.344
24268WAT      O73045   8.852   4.176   0.177
24268WAT     H173046   8.788   4.117   0.225
24268WAT     H273047   8.933   4.190   0.233
24269WAT      O73048   3.437   5.451   9.603
24269WAT     H173049   3.391   5.435   9.515
24269WAT     H273050   3.370   5.447   9.677
24270WAT      O73051   1.758   9.408   2.965
24270WAT     H173052   1.710   9.489   2.998
24270WAT     H273053   1.835   9.387   3.026
24271WAT      O73054   4.382   2.549   5.687
24271WAT     H173055   4.413   2.524   5.779
24271WAT     H273056   4.378   2.648   5.678
24272WAT      O73057   8.880   9.236   0.381
24272WAT     H173058   8.838   9.147   0.399
24272WAT     H273059   8.959   9.249   0.440
24273WAT      O73060   4.736   2.487   7.734
24273WAT     H173061   4.724   2.573   7.685
24273WAT     H273062   4.742   2.411   7.669
24274WAT      O73063   7.383   7.210   3.416
24274WAT     H173064   7.368   7.288   3.356
24274WAT     H273065   7.294   7.176   3.449
24275WAT      O73066   1.185   2.492   0.855
24275WAT     H173067   1.247   2.455   0.925
24275WAT     H273068   1.113   2.546   0.899
24276WAT      O73069   2.443   3.059   0.315
24276WAT     H173070   2.415   2.964   0.301
24276WAT     H273071   2.361   3.115   0.331
24277WAT      O73072   6.448   3.578   5.033
24277WAT     H173073   6.399   3.568   5.120
24277WAT     H273074   6.465   3.487   4.995
24278WAT      O73075   9.640   1.955   5.127
24278WAT     H173076   9.639   1.878   5.191
24278WAT     H273077   9.580   2.028   5.162
24279WAT      O73078   4.514   9.830   5.605
24279WAT     H173079   4.504   9.732   5.587
24279WAT     H273080   4.424   9.873   5.606
24280WAT      O73081   7.814   0.222   7.372
24280WAT     H173082   7.778   0.251   7.461
24280WAT     H273083   7.798   0.124   7.360
24281WAT      O73084   8.649   8.647   1.143
24281WAT     H173085   8.735   8.667   1.191
24281WAT     H273086   8.578   8.709   1.176
24282WAT      O73087   8.562   1.447   6.600
24282WAT     H173088   8.524   1.483   6.685
24282WAT     H273089   8.656   1.418   6.615
24283WAT      O73090   6.469   2.938   8.048
24283WAT     H173091   6.401   2.893   8.106
24283WAT     H273092   6.516   2.869   7.993
24284WAT      O73093   0.821   0.093   6.483
24284WAT     H173094   0.766   0.152   6.543
24284WAT     H273095   0.760   0.032   6.432
24285WAT      O73096   0.750   1.070   2.521
24285WAT     H173097   0.687   1.128   2.470
24285WAT     H273098   0.784   0.997   2.462
24286WAT      O73099   5.125   0.788   1.477
24286WAT     H173100   5.125   0.854   1.552
24286WAT     H273101   5.219   0.770   1.449
24287WAT      O73102   5.871   8.727   1.548
24287WAT     H173103   5.838   8.718   1.642
24287WAT     H273104   5.793   8.718   1.485
24288WAT      O73105   3.710   3.409   8.743
24288WAT     H173106   3.693   3.375   8.835
24288WAT     H273107   3.625   3.407   8.690
24289WAT      O73108   0.023   7.922   6.080
24289WAT     H173109   0.072   7.838   6.057
24289WAT     H273110   0.078   7.978   6.142
24290WAT      O73111   3.258   4.950   5.983
24290WAT     H173112   3.162   4.958   6.009
24290WAT     H273113   3.270   4.873   5.920
24291WAT      O73114   0.836   1.801   9.749
24291WAT     H173115   0.866   1.715   9.708
24291WAT     H273116   0.744   1.822   9.718
24292WAT      O73117   9.588   7.818   8.397
24292WAT     H173118   9.511   7.844   8.454
24292WAT     H273119   9.592   7.877   8.316
24293WAT      O73120   4.458   6.305   9.378
24293WAT     H173121   4.475   6.206   9.380
24293WAT     H273122   4.538   6.351   9.338
24294WAT      O73123   2.397   9.550   4.837
24294WAT     H173124   2.334   9.608   4.890
24294WAT     H273125   2.345   9.487   4.780
24295WAT      O73126   9.010   4.869   0.513
24295WAT     H173127   9.068   4.851   0.434
24295WAT     H273128   9.065   4.858   0.597
24296WAT      O73129   5.152   8.494   1.861
24296WAT     H173130   5.095   8.477   1.781
24296WAT     H273131   5.130   8.426   1.932
24297WAT      O73132   5.046   6.089   0.159
24297WAT     H173133   5.108   6.032   0.105
24297WAT     H273134   5.076   6.089   0.255
24298WAT      O73135   3.542   9.086   7.726
24298WAT     H173136   3.442   9.080   7.733
24298WAT     H273137   3.579   8.998   7.696
24299WAT      O73138   6.401   4.317   7.128
24299WAT     H173139   6.424   4.234   7.076
24299WAT     H273140   6.315   4.302   7.177
24300WAT      O73141   3.885   8.884   7.995
24300WAT     H173142   3.951   8.854   8.065
24300WAT     H273143   3.809   8.930   8.039
24301WAT      O73144   1.444   2.774   5.478
24301WAT     H173145   1.507   2.696   5.483
24301WAT     H273146   1.490   2.850   5.432
24302WAT      O73147   2.123   4.853   6.246
24302WAT     H173148   2.071   4.778   6.288
24302WAT     H273149   2.160   4.824   6.158
24303WAT      O73150   1.296   0.363   2.005
24303WAT     H173151   1.345   0.279   2.027
24303WAT     H273152   1.256   0.355   1.913
24304WAT      O73153   6.405   9.797   5.590
24304WAT     H173154   6.443   9.714   5.549
24304WAT     H273155   6.348   9.772   5.669
24305WAT      O73156   0.212   2.174   2.436
24305WAT     H173157   0.138   2.146   2.498
24305WAT     H273158   0.299   2.140   2.472
24306WAT      O73159   6.019   7.926   9.480
24306WAT     H173160   5.968   7.973   9.551
24306WAT     H273161   6.111   7.904   9.513
24307WAT      O73162   5.936   3.329   5.910
24307WAT     H173163   6.012   3.389   5.885
24307WAT     H273164   5.881   3.310   5.829
24308WAT      O73165   5.832   9.147   5.043
24308WAT     H173166   5.831   9.102   4.954
24308WAT     H273167   5.769   9.100   5.105
24309WAT      O73168   5.430   8.144   4.439
24309WAT     H173169   5.447   8.240   4.416
24309WAT     H273170   5.394   8.137   4.531
24310WAT      O73171   7.651   5.771   2.755
24310WAT     H173172   7.594   5.808   2.682
24310WAT     H273173   7.659   5.672   2.744
24311WAT      O73174   1.043   1.453   3.912
24311WAT     H173175   1.006   1.388   3.979
24311WAT     H273176   1.127   1.416   3.873
24312WAT      O73177   0.382   8.757   1.191
24312WAT     H173178   0.350   8.831   1.250
24312WAT     H273179   0.368   8.783   1.095
24313WAT      O73180   2.986   9.268   8.559
24313WAT     H173181   2.940   9.355   8.577
24313WAT     H273182   3.076   9.268   8.602
24314WAT      O73183   8.596   0.593   1.505
24314WAT     H173184   8.532   0.516   1.501
24314WAT     H273185   8.632   0.601   1.598
24315WAT      O73186   0.998   9.463   4.194
24315WAT     H173187   1.035   9.387   4.248
24315WAT     H273188   1.052   9.475   4.111
24316WAT      O73189   6.459   6.759   8.544
24316WAT     H173190   6.378   6.777   8.600
24316WAT     H273191   6.516   6.689   8.588
24317WAT      O73192   6.848   3.063   1.324
24317WAT     H173193   6.941   3.085   1.295
24317WAT     H273194   6.796   3.028   1.245
24318WAT      O73195   8.062   3.769   7.434
24318WAT     H173196   8.090   3.716   7.354
24318WAT     H273197   8.139   3.775   7.498
24319WAT      O73198   2.886   3.446   9.688
24319WAT     H173199   2.888   3.542   9.659
24319WAT     H273200   2.946   3.433   9.766
24320WAT      O73201   7.768   7.061   6.397
24320WAT     H173202   7.767   7.136   6.331
24320WAT     H273203   7.675   7.028   6.413
24321WAT      O73204   4.361   5.264   4.088
24321WAT     H173205   4.384   5.167   4.095
24321WAT     H273206   4.262   5.274   4.076
24322WAT      O73207   5.302   0.339   1.974
24322WAT     H173208   5.230   0.404   1.997
24322WAT     H273209   5.328   0.351   1.878
24323WAT      O73210   0.542   2.388   9.079
24323WAT     H173211   0.448   2.413   9.101
24323WAT     H273212   0.568   2.430   8.992
24324WAT      O73213   4.179   9.181   2.352
24324WAT     H173214   4.250   9.250   2.341
24324WAT     H273215   4.161   9.137   2.264
24325WAT      O73216   0.900   4.976   2.280
24325WAT     H173217   0.853   5.063   2.298
24325WAT     H273218   0.928   4.972   2.184
24326WAT      O73219   6.381   1.108   3.376
24326WAT     H173220   6.296   1.105   3.429
24326WAT     H273221   6.359   1.116   3.279
24327WAT      O73222   0.533   8.132   5.189
24327WAT     H173223   0.464   8.060   5.177
24327WAT     H273224   0.497   8.202   5.251
24328WAT      O73225   7.713   3.167   4.885
24328WAT     H173226   7.630   3.112   4.898
24328WAT     H273227   7.688   3.264   4.883
24329WAT      O73228   2.316   5.218   8.291
24329WAT     H173229   2.252   5.262   8.353
24329WAT     H273230   2.404   5.207   8.336
24330WAT      O73231   8.787   8.272   4.873
24330WAT     H173232   8.690   8.286   4.851
24330WAT     H273233   8.798   8.256   4.971
24331WAT      O73234   4.513   3.944   3.719
24331WAT     H173235   4.495   3.971   3.625
24331WAT     H273236   4.427   3.922   3.765
24332WAT      O73237   4.388   2.528   7.120
24332WAT     H173238   4.319   2.583   7.073
24332WAT     H273239   4.378   2.539   7.219
24333WAT      O73240   8.938   1.099   6.106
24333WAT     H173241   8.894   1.169   6.049
24333WAT     H273242   8.904   1.108   6.200
24334WAT      O73243   8.838   5.791   5.649
24334WAT     H173244   8.919   5.773   5.705
24334WAT     H273245   8.764   5.730   5.677
24335WAT      O73246   1.083   5.059   4.430
24335WAT     H173247   1.173   5.068   4.472
24335WAT     H273248   1.076   4.970   4.386
24336WAT      O73249   8.727   2.595   6.860
24336WAT     H173250   8.743   2.509   6.812
24336WAT     H273251   8.810   2.651   6.856
24337WAT      O73252   8.496   8.642   0.096
24337WAT     H173253   8.424   8.577   0.070
24337WAT     H273254   8.470   8.687   0.182
24338WAT      O73255   6.174   1.036   4.500
24338WAT     H173256   6.118   1.096   4.555
24338WAT     H273257   6.127   0.948   4.487
24339WAT      O73258   4.374   7.139   2.998
24339WAT     H173259   4.337   7.226   2.965
24339WAT     H273260   4.446   7.107   2.935
24340WAT      O73261   1.753   1.580   1.872
24340WAT     H173262   1.841   1.626   1.868
24340WAT     H273263   1.723   1.556   1.780
24341WAT      O73264   7.716   0.407   7.794
24341WAT     H173265   7.752   0.477   7.733
24341WAT     H273266   7.743   0.317   7.761
24342WAT      O73267   4.542   3.708   6.271
24342WAT     H173268   4.555   3.758   6.356
24342WAT     H273269   4.444   3.691   6.257
24343WAT      O73270   6.406   7.495   4.798
24343WAT     H173271   6.357   7.427   4.743
24343WAT     H273272   6.368   7.496   4.891
24344WAT      O73273   2.268   4.557   8.828
24344WAT     H173274   2.307   4.503   8.903
24344WAT     H273275   2.326   4.548   8.747
24345WAT      O73276   6.616   7.592   5.425
24345WAT     H173277   6.548   7.648   5.376
24345WAT     H273278   6.569   7.520   5.475
24346WAT      O73279   6.928   9.829   0.970
24346WAT     H173280   6.914   9.924   0.942
24346WAT     H273281   6.923   9.769   0.891
24347WAT      O73282   0.183   6.712   2.794
24347WAT     H173283   0.249   6.786   2.787
24347WAT     H273284   0.223   6.627   2.759
24348WAT      O73285   9.783   0.415   2.173
24348WAT     H173286   9.863   0.404   2.114
24348WAT     H273287   9.811   0.457   2.259
24349WAT      O73288   0.286   2.006   0.641
24349WAT     H173289   0.313   2.091   0.686
24349WAT     H273290   0.277   1.933   0.708
24350WAT      O73291   4.993   7.080   5.494
24350WAT     H173292   5.070   7.102   5.553
24350WAT     H273293   4.909   7.117   5.533
24351WAT      O73294   5.801   2.493   9.691
24351WAT     H173295   5.844   2.554   9.625
24351WAT     H273296   5.797   2.539   9.780
24352WAT      O73297   6.432   4.998   2.773
24352WAT     H173298   6.525   5.032   2.759
24352WAT     H273299   6.367   5.057   2.725
24353WAT      O73300   1.380   9.353   1.865
24353WAT     H173301   1.395   9.428   1.801
24353WAT     H273302   1.362   9.391   1.956
24354WAT      O73303   2.283   5.538   5.079
24354WAT     H173304   2.305   5.491   4.993
24354WAT     H273305   2.189   5.516   5.105
24355WAT      O73306   1.582   4.479   2.962
24355WAT     H173307   1.576   4.488   3.062
24355WAT     H273308   1.630   4.395   2.939
24356WAT      O73309   2.243   0.836   5.522
24356WAT     H173310   2.287   0.888   5.595
24356WAT     H273311   2.175   0.774   5.561
24357WAT      O73312   0.782   4.271   2.200
24357WAT     H173313   0.831   4.215   2.266
24357WAT     H273314   0.843   4.296   2.124
24358WAT      O73315   1.297   1.405   5.266
24358WAT     H173316   1.226   1.335   5.275
24358WAT     H273317   1.282   1.458   5.183
24359WAT      O73318   5.913   5.595   1.780
24359WAT     H173319   5.859   5.553   1.853
24359WAT     H273320   6.007   5.609   1.812
24360WAT      O73321   8.127   2.922   2.995
24360WAT     H173322   8.079   2.973   2.924
24360WAT     H273323   8.219   2.898   2.964
24361WAT      O73324   0.058   6.287   7.077
24361WAT     H173325  -0.019   6.230   7.106
24361WAT     H273326   0.030   6.383   7.078
24362WAT      O73327   1.061   0.330   8.153
24362WAT     H173328   1.021   0.300   8.067
24362WAT     H273329   1.078   0.429   8.148
24363WAT      O73330   5.172   9.310   8.286
24363WAT     H173331   5.105   9.263   8.342
24363WAT     H273332   5.198   9.252   8.209
24364WAT      O73333   4.137   7.969   5.832
24364WAT     H173334   4.135   7.906   5.910
24364WAT     H273335   4.048   8.013   5.822
24365WAT      O73336   9.674   5.088   1.724
24365WAT     H173337   9.760   5.134   1.747
24365WAT     H273338   9.597   5.138   1.765
24366WAT      O73339   9.298   1.778   7.613
24366WAT     H173340   9.267   1.773   7.518
24366WAT     H273341   9.223   1.808   7.671
24367WAT      O73342   6.521   5.340   1.140
24367WAT     H173343   6.491   5.417   1.083
24367WAT     H273344   6.441   5.288   1.170
24368WAT      O73345   0.823   2.886   5.289
24368WAT     H173346   0.826   2.859   5.386
24368WAT     H273347   0.733   2.867   5.252
24369WAT      O73348   6.777   1.566   2.416
24369WAT     H173349   6.839   1.636   2.451
24369WAT     H273350   6.825   1.512   2.347
24370WAT      O73351   9.350   9.093   7.308
24370WAT     H173352   9.288   9.017   7.290
24370WAT     H273353   9.444   9.065   7.291
24371WAT      O73354   7.144   4.549   1.261
24371WAT     H173355   7.148   4.477   1.329
24371WAT     H273356   7.055   4.595   1.265
24372WAT      O73357   5.279   9.561   6.380
24372WAT     H173358   5.288   9.590   6.284
24372WAT     H273359   5.228   9.630   6.431
24373WAT      O73360   7.402   8.033   6.020
24373WAT     H173361   7.455   8.067   5.942
24373WAT     H273362   7.461   7.978   6.079
24374WAT      O73363   9.182   2.801   3.309
24374WAT     H173364   9.107   2.803   3.375
24374WAT     H273365   9.193   2.708   3.274
24375WAT      O73366   0.075   7.927   5.547
24375WAT     H173367   0.173   7.924   5.526
24375WAT     H273368   0.034   8.007   5.504
24376WAT      O73369   8.484   8.259   7.453
24376WAT     H173370   8.505   8.226   7.546
24376WAT     H273371   8.395   8.304   7.454
24377WAT      O73372   6.746   6.245   8.965
24377WAT     H173373   6.653   6.275   8.982
24377WAT     H273374   6.790   6.222   9.052
24378WAT      O73375   0.649   6.283   0.977
24378WAT     H173376   0.722   6.226   1.015
24378WAT     H273377   0.659   6.290   0.878
24379WAT      O73378   8.546   4.863   8.256
24379WAT     H173379   8.489   4.939   8.288
24379WAT     H273380   8.490   4.800   8.202
24380WAT      O73381   9.198   8.966   6.536
24380WAT     H173382   9.286   8.975   6.488
24380WAT     H273383   9.207   9.001   6.629
24381WAT      O73384   3.257   2.611   0.985
24381WAT     H173385   3.293   2.704   0.989
24381WAT     H273386   3.202   2.600   0.902
24382WAT      O73387   1.813   4.549   0.262
24382WAT     H173388   1.876   4.538   0.185
24382WAT     H273389   1.774   4.641   0.259
24383WAT      O73390   4.118   3.448   4.066
24383WAT     H173391   4.182   3.522   4.085
24383WAT     H273392   4.163   3.379   4.010
24384WAT      O73393   8.157   1.961   3.466
24384WAT     H173394   8.169   1.874   3.515
24384WAT     H273395   8.245   1.990   3.428
24385WAT      O73396   1.196   4.226   8.908
24385WAT     H173397   1.096   4.222   8.919
24385WAT     H273398   1.237   4.254   8.995
24386WAT      O73399   8.847   2.952   1.377
24386WAT     H173400   8.842   2.998   1.288
24386WAT     H273401   8.882   3.016   1.445
24387WAT      O73402   7.834   8.338   4.975
24387WAT     H173403   7.761   8.271   4.985
24387WAT     H273404   7.870   8.362   5.065
24388WAT      O73405   0.821   4.166   3.742
24388WAT     H173406   0.845   4.150   3.838
24388WAT     H273407   0.762   4.246   3.736
24389WAT      O73408   1.185   2.662   6.465
24389WAT     H173409   1.094   2.637   6.496
24389WAT     H273410   1.203   2.620   6.376
24390WAT      O73411   5.868   1.725   9.577
24390WAT     H173412   5.838   1.797   9.639
24390WAT     H273413   5.924   1.659   9.626
24391WAT      O73414   8.098   4.621   7.023
24391WAT     H173415   8.183   4.651   6.979
24391WAT     H273416   8.023   4.626   6.958
24392WAT      O73417   8.400   3.864   2.629
24392WAT     H173418   8.402   3.765   2.647
24392WAT     H273419   8.457   3.884   2.550
24393WAT      O73420   7.223   4.576   6.387
24393WAT     H173421   7.264   4.485   6.380
24393WAT     H273422   7.168   4.594   6.306
24394WAT      O73423   5.689   8.911   1.138
24394WAT     H173424   5.624   8.982   1.111
24394WAT     H273425   5.740   8.942   1.218
24395WAT      O73426   7.429   7.080   5.284
24395WAT     H173427   7.372   7.089   5.366
24395WAT     H273428   7.520   7.047   5.310
24396WAT      O73429   3.674   2.387   4.555
24396WAT     H173430   3.745   2.458   4.562
24396WAT     H273431   3.646   2.359   4.647
24397WAT      O73432   6.065   8.467   4.254
24397WAT     H173433   6.066   8.535   4.328
24397WAT     H273434   6.105   8.382   4.287
24398WAT      O73435   9.658   5.871   5.322
24398WAT     H173436   9.736   5.922   5.287
24398WAT     H273437   9.629   5.910   5.410
24399WAT      O73438   4.795   1.059   4.968
24399WAT     H173439   4.808   1.024   4.875
24399WAT     H273440   4.698   1.080   4.982
24400WAT      O73441   5.697   6.830   0.358
24400WAT     H173442   5.767   6.898   0.335
24400WAT     H273443   5.694   6.818   0.457
24401WAT      O73444   0.835   7.951   9.516
24401WAT     H173445   0.897   8.026   9.492
24401WAT     H273446   0.884   7.884   9.572
24402WAT      O73447   7.929   1.477   2.179
24402WAT     H173448   7.976   1.561   2.206
24402WAT     H273449   7.855   1.499   2.115
24403WAT      O73450   9.059   7.676   5.945
24403WAT     H173451   9.056   7.602   6.012
24403WAT     H273452   9.152   7.711   5.937
24404WAT      O73453   5.899   9.691   8.857
24404WAT     H173454   5.966   9.659   8.924
24404WAT     H273455   5.934   9.675   8.764
24405WAT      O73456   6.826   1.904   7.590
24405WAT     H173457   6.775   1.944   7.514
24405WAT     H273458   6.769   1.835   7.635
24406WAT      O73459   6.640   9.038   3.209
24406WAT     H173460   6.733   9.013   3.181
24406WAT     H273461   6.628   9.016   3.306
24407WAT      O73462   5.785   1.636   5.464
24407WAT     H173463   5.739   1.675   5.544
24407WAT     H273464   5.747   1.545   5.446
24408WAT      O73465   0.444   0.900   0.440
24408WAT     H173466   0.530   0.900   0.492
24408WAT     H273467   0.464   0.895   0.342
24409WAT      O73468   0.853   4.606   1.070
24409WAT     H173469   0.797   4.599   1.153
24409WAT     H273470   0.793   4.607   0.990
24410WAT      O73471   5.032   8.536   1.393
24410WAT     H173472   5.054   8.626   1.431
24410WAT     H273473   4.938   8.537   1.358
24411WAT      O73474   5.212   6.760   4.863
24411WAT     H173475   5.125   6.799   4.835
24411WAT     H273476   5.246   6.698   4.792
24412WAT      O73477   0.235   9.143   2.706
24412WAT     H173478   0.278   9.153   2.795
24412WAT     H273479   0.139   9.116   2.717
24413WAT      O73480   5.427   7.350   5.337
24413WAT     H173481   5.523   7.322   5.334
24413WAT     H273482   5.407   7.407   5.257
24414WAT      O73483   9.828   1.703   9.091
24414WAT     H173484   9.882   1.660   9.164
24414WAT     H273485   9.828   1.643   9.011
24415WAT      O73486   6.128   3.111   4.166
24415WAT     H173487   6.133   3.012   4.159
24415WAT     H273488   6.041   3.138   4.206
24416WAT      O73489   1.771   1.257   5.817
24416WAT     H173490   1.769   1.352   5.788
24416WAT     H273491   1.779   1.252   5.917
24417WAT      O73492   1.316   5.165   7.387
24417WAT     H173493   1.402   5.194   7.429
24417WAT     H273494   1.240   5.181   7.451
24418WAT      O73495   3.707   9.459   7.787
24418WAT     H173496   3.749   9.375   7.753
24418WAT     H273497   3.766   9.537   7.766
24419WAT      O73498   8.449   4.438   4.956
24419WAT     H173499   8.540   4.415   4.991
24419WAT     H273500   8.424   4.374   4.884
24420WAT      O73501   1.686   4.372   1.407
24420WAT     H173502   1.671   4.471   1.403
24420WAT     H273503   1.753   4.352   1.479
24421WAT      O73504   5.446   1.223   3.545
24421WAT     H173505   5.449   1.222   3.645
24421WAT     H273506   5.538   1.229   3.508
24422WAT      O73507   1.941   7.427   0.505
24422WAT     H173508   1.879   7.476   0.566
24422WAT     H273509   1.984   7.491   0.442
24423WAT      O73510   4.598   4.039   5.904
24423WAT     H173511   4.587   4.011   5.809
24423WAT     H273512   4.693   4.027   5.932
24424WAT      O73513   0.545   0.247   8.790
24424WAT     H173514   0.582   0.258   8.882
24424WAT     H273515   0.455   0.290   8.785
24425WAT      O73516   0.130   9.517   8.870
24425WAT     H173517   0.056   9.458   8.902
24425WAT     H273518   0.217   9.471   8.882
24426WAT      O73519   3.542   9.590   2.209
24426WAT     H173520   3.444   9.602   2.227
24426WAT     H273521   3.563   9.620   2.117
24427WAT      O73522   0.861   9.765   7.706
24427WAT     H173523   0.833   9.711   7.785
24427WAT     H273524   0.803   9.742   7.628
24428WAT      O73525   8.216   9.594   5.469
24428WAT     H173526   8.169   9.506   5.460
24428WAT     H273527   8.148   9.667   5.481
24429WAT      O73528   1.237   8.396   8.689
24429WAT     H173529   1.278   8.342   8.763
24429WAT     H273530   1.180   8.468   8.729
24430WAT      O73531   2.682   7.386   7.558
24430WAT     H173532   2.679   7.466   7.498
24430WAT     H273533   2.622   7.315   7.521
24431WAT      O73534   4.683   3.257   3.993
24431WAT     H173535   4.665   3.342   3.944
24431WAT     H273536   4.625   3.252   4.074
24432WAT      O73537   9.401   6.314   4.916
24432WAT     H173538   9.426   6.317   4.819
24432WAT     H273539   9.410   6.220   4.950
24433WAT      O73540   2.950   4.659   7.203
24433WAT     H173541   2.955   4.644   7.105
24433WAT     H273542   3.026   4.718   7.232
24434WAT      O73543   4.134   6.661   7.143
24434WAT     H173544   4.068   6.597   7.182
24434WAT     H273545   4.125   6.663   7.044
24435WAT      O73546   7.041   4.460   5.946
24435WAT     H173547   7.019   4.385   5.884
24435WAT     H273548   7.125   4.439   5.996
24436WAT      O73549   7.172   2.096   2.232
24436WAT     H173550   7.080   2.063   2.211
24436WAT     H273551   7.181   2.109   2.331
24437WAT      O73552   8.103   8.564   3.438
24437WAT     H173553   8.065   8.474   3.455
24437WAT     H273554   8.070   8.597   3.349
24438WAT      O73555   9.012   7.404   5.378
24438WAT     H173556   9.000   7.351   5.294
24438WAT     H273557   8.980   7.351   5.456
24439WAT      O73558   3.884   3.311   5.008
24439WAT     H173559   3.916   3.222   5.042
24439WAT     H273560   3.795   3.298   4.964
24440WAT      O73561   7.145   6.642   9.731
24440WAT     H173562   7.189   6.727   9.703
24440WAT     H273563   7.216   6.572   9.745
24441WAT      O73564   0.052   5.581   9.651
24441WAT     H173565   0.037   5.490   9.690
24441WAT     H273566   0.094   5.572   9.561
24442WAT      O73567   7.527   0.435   3.767
24442WAT     H173568   7.557   0.361   3.828
24442WAT     H273569   7.546   0.410   3.672
24443WAT      O73570   3.266   2.257   4.973
24443WAT     H173571   3.329   2.230   4.900
24443WAT     H273572   3.239   2.352   4.960
24444WAT      O73573   4.477   2.990   5.379
24444WAT     H173574   4.420   3.030   5.307
24444WAT     H273575   4.563   3.041   5.386
24445WAT      O73576   5.181   0.770   7.355
24445WAT     H173577   5.254   0.838   7.350
24445WAT     H273578   5.096   0.810   7.320
24446WAT      O73579   3.191   1.911   8.567
24446WAT     H173580   3.106   1.934   8.614
24446WAT     H273581   3.204   1.971   8.488
24447WAT      O73582   3.169   2.225   6.560
24447WAT     H173583   3.262   2.192   6.574
24447WAT     H273584   3.152   2.305   6.618
24448WAT      O73585   5.171   3.393   9.775
24448WAT     H173586   5.218   3.352   9.697
24448WAT     H273587   5.231   3.390   9.855
24449WAT      O73588   5.585   8.325   6.807
24449WAT     H173589   5.586   8.373   6.719
24449WAT     H273590   5.491   8.299   6.830
24450WAT      O73591   6.928   9.607   0.243
24450WAT     H173592   6.956   9.636   0.151
24450WAT     H273593   6.984   9.530   0.272
24451WAT      O73594   9.048   2.543   9.241
24451WAT     H173595   9.130   2.586   9.279
24451WAT     H273596   8.978   2.536   9.313
24452WAT      O73597   8.397   3.707   3.901
24452WAT     H173598   8.304   3.678   3.925
24452WAT     H273599   8.452   3.627   3.878
24453WAT      O73600   5.621   0.199   3.852
24453WAT     H173601   5.619   0.268   3.780
24453WAT     H273602   5.528   0.172   3.875
24454WAT      O73603   3.636   4.424   2.106
24454WAT     H173604   3.608   4.444   2.012
24454WAT     H273605   3.729   4.457   2.121
24455WAT      O73606   5.988   8.092   2.126
24455WAT     H173607   6.029   8.059   2.211
24455WAT     H273608   5.924   8.166   2.146
24456WAT      O73609   1.956   6.979   0.304
24456WAT     H173610   1.944   6.900   0.245
24456WAT     H273611   1.952   6.949   0.400
24457WAT      O73612   8.568   3.782   6.951
24457WAT     H173613   8.537   3.865   6.997
24457WAT     H273614   8.615   3.806   6.867
24458WAT      O73615   7.105   8.308   8.260
24458WAT     H173616   7.086   8.377   8.190
24458WAT     H273617   7.081   8.344   8.350
24459WAT      O73618   9.184   0.868   4.486
24459WAT     H173619   9.248   0.793   4.503
24459WAT     H273620   9.114   0.838   4.421
24460WAT      O73621   9.262   5.750   1.610
24460WAT     H173622   9.274   5.662   1.658
24460WAT     H273623   9.166   5.758   1.581
24461WAT      O73624   5.185   5.466   6.454
24461WAT     H173625   5.096   5.422   6.465
24461WAT     H273626   5.201   5.484   6.357
24462WAT      O73627   6.663   5.141   2.455
24462WAT     H173628   6.603   5.151   2.534
24462WAT     H273629   6.757   5.165   2.481
24463WAT      O73630   1.199   3.460   6.096
24463WAT     H173631   1.211   3.391   6.166
24463WAT     H273632   1.213   3.551   6.135
24464WAT      O73633   9.646   3.753   4.478
24464WAT     H173634   9.727   3.802   4.511
24464WAT     H273635   9.636   3.668   4.530
24465WAT      O73636   3.299   0.625   9.192
24465WAT     H173637   3.375   0.619   9.256
24465WAT     H273638   3.262   0.534   9.176
24466WAT      O73639   2.269   8.613   2.747
24466WAT     H173640   2.336   8.551   2.787
24466WAT     H273641   2.315   8.680   2.689
24467WAT      O73642   2.196   2.964   9.405
24467WAT     H173643   2.277   2.981   9.349
24467WAT     H273644   2.114   2.984   9.351
24468WAT      O73645   5.019   8.220   4.361
24468WAT     H173646   5.047   8.132   4.324
24468WAT     H273647   4.921   8.220   4.380
24469WAT      O73648   3.108   0.829   9.153
24469WAT     H173649   3.172   0.753   9.163
24469WAT     H273650   3.115   0.889   9.233
24470WAT      O73651   7.941   6.687   3.059
24470WAT     H173652   7.888   6.606   3.034
24470WAT     H273653   7.900   6.730   3.140
24471WAT      O73654   0.038   0.753   5.475
24471WAT     H173655   0.130   0.756   5.515
24471WAT     H273656  -0.030   0.745   5.548
24472WAT      O73657   0.500   9.424   4.729
24472WAT     H173658   0.481   9.513   4.687
24472WAT     H273659   0.450   9.353   4.679
24473WAT      O73660   7.980   3.341   8.782
24473WAT     H173661   8.009   3.435   8.764
24473WAT     H273662   7.919   3.339   8.861
24474WAT      O73663   5.076   9.665   5.531
24474WAT     H173664   5.086   9.624   5.621
24474WAT     H273665   5.135   9.617   5.465
24475WAT      O73666   3.798   5.428   0.975
24475WAT     H173667   3.777   5.517   0.934
24475WAT     H273668   3.821   5.440   1.071
24476WAT      O73669   0.918   1.099   5.794
24476WAT     H173670   0.945   1.191   5.822
24476WAT     H273671   0.819   1.089   5.804
24477WAT      O73672   9.379   2.286   1.674
24477WAT     H173673   9.355   2.318   1.583
24477WAT     H273674   9.300   2.240   1.714
24478WAT      O73675   0.046   8.286   0.606
24478WAT     H173676  -0.042   8.286   0.653
24478WAT     H273677   0.089   8.196   0.618
24479WAT      O73678   4.744   7.401   4.550
24479WAT     H173679   4.729   7.478   4.612
24479WAT     H273680   4.660   7.381   4.500
24480WAT      O73681   9.336   7.357   6.132
24480WAT     H173682   9.405   7.418   6.094
24480WAT     H273683   9.380   7.292   6.194
24481WAT      O73684   3.120   9.727   7.683
24481WAT     H173685   3.100   9.777   7.767
24481WAT     H273686   3.066   9.764   7.607
24482WAT      O73687   2.870   1.865   6.377
24482WAT     H173688   2.908   1.958   6.374
24482WAT     H273689   2.937   1.801   6.339
24483WAT      O73690   0.872   6.691   2.829
24483WAT     H173691   0.887   6.627   2.754
24483WAT     H273692   0.875   6.643   2.916
24484WAT      O73693   7.106   7.696   0.882
24484WAT     H173694   7.173   7.676   0.810
24484WAT     H273695   7.036   7.758   0.846
24485WAT      O73696   9.602   5.470   2.960
24485WAT     H173697   9.526   5.465   2.894
24485WAT     H273698   9.687   5.488   2.910
24486WAT      O73699   6.816   5.108   8.691
24486WAT     H173700   6.883   5.181   8.707
24486WAT     H273701   6.777   5.079   8.779
24487WAT      O73702   2.265   1.686   6.406
24487WAT     H173703   2.225   1.638   6.484
24487WAT     H273704   2.236   1.641   6.321
24488WAT      O73705   8.431   7.945   8.458
24488WAT     H173706   8.350   7.936   8.400
24488WAT     H273707   8.455   8.042   8.466
24489WAT      O73708   0.732   2.321   2.334
24489WAT     H173709   0.661   2.390   2.322
24489WAT     H273710   0.812   2.362   2.378
24490WAT      O73711   2.647   2.612   2.651
24490WAT     H173712   2.693   2.647   2.733
24490WAT     H273713   2.588   2.535   2.676
24491WAT      O73714   2.646   3.534   3.633
24491WAT     H173715   2.662   3.531   3.732
24491WAT     H273716   2.703   3.606   3.592
24492WAT      O73717   3.598   2.519   1.869
24492WAT     H173718   3.612   2.539   1.966
24492WAT     H273719   3.526   2.579   1.833
24493WAT      O73720   6.948   9.152   0.223
24493WAT     H173721   7.009   9.192   0.292
24493WAT     H273722   6.903   9.225   0.172
24494WAT      O73723   9.369   8.787   8.744
24494WAT     H173724   9.355   8.728   8.824
24494WAT     H273725   9.454   8.763   8.698
24495WAT      O73726   6.838   9.007   0.435
24495WAT     H173727   6.854   9.071   0.360
24495WAT     H273728   6.910   8.937   0.434
24496WAT      O73729   3.931   1.593   3.292
24496WAT     H173730   3.896   1.686   3.299
24496WAT     H273731   3.862   1.534   3.249
24497WAT      O73732   8.553   8.917   4.316
24497WAT     H173733   8.454   8.903   4.315
24497WAT     H273734   8.574   8.994   4.376
24498WAT      O73735   1.538   3.349   8.233
24498WAT     H173736   1.572   3.368   8.141
24498WAT     H273737   1.488   3.428   8.267
24499WAT      O73738   0.770   5.913   1.756
24499WAT     H173739   0.722   5.875   1.677
24499WAT     H273740   0.803   6.005   1.733
24500WAT      O73741   5.373   7.273   3.263
24500WAT     H173742   5.451   7.289   3.323
24500WAT     H273743   5.397   7.301   3.169
24501WAT      O73744   7.076   5.921   1.626
24501WAT     H173745   7.052   5.993   1.561
24501WAT     H273746   7.059   5.954   1.719
24502WAT      O73747   5.255   1.757   4.003
24502WAT     H173748   5.344   1.798   4.020
24502WAT     H273749   5.201   1.818   3.945
24503WAT      O73750   8.984   5.045   9.571
24503WAT     H173751   8.953   5.030   9.664
24503WAT     H273752   9.046   5.123   9.568
24504WAT      O73753   1.360   5.600   2.785
24504WAT     H173754   1.393   5.567   2.696
24504WAT     H273755   1.438   5.624   2.842
24505WAT      O73756   7.061   4.071   7.052
24505WAT     H173757   7.090   4.053   7.146
24505WAT     H273758   7.049   4.170   7.039
24506WAT      O73759   3.312   7.819   7.348
24506WAT     H173760   3.279   7.834   7.441
24506WAT     H273761   3.355   7.903   7.314
24507WAT      O73762   0.600   5.586   7.361
24507WAT     H173763   0.679   5.565   7.302
24507WAT     H273764   0.597   5.685   7.379
24508WAT      O73765   0.042   2.114   0.993
24508WAT     H173766   0.009   2.208   0.985
24508WAT     H273767   0.141   2.114   1.002
24509WAT      O73768   7.659   0.013   5.202
24509WAT     H173769   7.658  -0.087   5.205
24509WAT     H273770   7.575   0.049   5.242
24510WAT      O73771   8.269   8.422   7.461
24510WAT     H173772   8.193   8.422   7.395
24510WAT     H273773   8.232   8.431   7.553
24511WAT      O73774   4.835   1.685   8.786
24511WAT     H173775   4.913   1.740   8.754
24511WAT     H273776   4.839   1.594   8.743
24512WAT      O73777   0.850   2.488   0.828
24512WAT     H173778   0.907   2.410   0.802
24512WAT     H273779   0.833   2.485   0.927
24513WAT      O73780   0.912   0.229   2.509
24513WAT     H173781   0.833   0.261   2.561
24513WAT     H273782   0.883   0.160   2.442
24514WAT      O73783   7.346   6.446   8.518
24514WAT     H173784   7.283   6.378   8.555
24514WAT     H273785   7.436   6.405   8.505
24515WAT      O73786   5.495   2.966   0.084
24515WAT     H173787   5.518   2.877   0.044
24515WAT     H273788   5.397   2.982   0.076
24516WAT      O73789   1.924   4.040   7.123
24516WAT     H173790   1.995   3.970   7.113
24516WAT     H273791   1.889   4.065   7.033
24517WAT      O73792   1.758   5.116   3.338
24517WAT     H173793   1.712   5.051   3.277
24517WAT     H273794   1.775   5.202   3.290
24518WAT      O73795   6.506   9.292   1.590
24518WAT     H173796   6.520   9.331   1.499
24518WAT     H273797   6.419   9.325   1.627
24519WAT      O73798   2.096   0.998   5.271
24519WAT     H173799   2.143   0.931   5.329
24519WAT     H273800   2.159   1.074   5.252
24520WAT      O73801   5.117   1.926   2.834
24520WAT     H173802   5.066   2.005   2.801
24520WAT     H273803   5.188   1.956   2.898
24521WAT      O73804   1.485   3.926   3.950
24521WAT     H173805   1.457   3.842   3.997
24521WAT     H273806   1.555   3.904   3.882
24522WAT      O73807   2.066   4.415   8.572
24522WAT     H173808   2.004   4.402   8.494
24522WAT     H273809   2.109   4.328   8.595
24523WAT      O73810   2.670   8.745   7.277
24523WAT     H173811   2.686   8.836   7.238
24523WAT     H273812   2.758   8.701   7.296
24524WAT      O73813   9.184   9.096   0.454
24524WAT     H173814   9.243   9.036   0.401
24524WAT     H273815   9.127   9.042   0.515
24525WAT      O73816   5.349   9.750   2.966
24525WAT     H173817   5.439   9.708   2.968
24525WAT     H273818   5.281   9.683   2.997
24526WAT      O73819   3.613   9.591   9.156
24526WAT     H173820   3.590   9.493   9.158
24526WAT     H273821   3.543   9.643   9.204
24527WAT      O73822   3.012   6.417   6.570
24527WAT     H173823   3.088   6.360   6.538
24527WAT     H273824   2.926   6.384   6.532
24528WAT      O73825   0.295   7.077   8.248
24528WAT     H173826   0.203   7.056   8.213
24528WAT     H273827   0.299   7.058   8.346
24529WAT      O73828   2.052   6.059   0.631
24529WAT     H173829   2.012   5.989   0.690
24529WAT     H273830   2.124   6.018   0.575
24530WAT      O73831   5.533   0.258   7.283
24530WAT     H173832   5.527   0.165   7.320
24530WAT     H273833   5.445   0.303   7.293
24531WAT      O73834   5.113   2.574   3.500
24531WAT     H173835   5.099   2.622   3.414
24531WAT     H273836   5.027   2.572   3.551
24532WAT      O73837   7.612   7.527   7.885
24532WAT     H173838   7.515   7.525   7.860
24532WAT     H273839   7.627   7.597   7.955
24533WAT      O73840   0.269   3.994   5.123
24533WAT     H173841   0.249   4.081   5.169
24533WAT     H273842   0.346   3.949   5.168
24534WAT      O73843   6.338   7.838   8.066
24534WAT     H173844   6.343   7.850   8.165
24534WAT     H273845   6.265   7.773   8.044
24535WAT      O73846   6.901   9.238   4.550
24535WAT     H173847   6.987   9.257   4.504
24535WAT     H273848   6.918   9.183   4.632
24536WAT      O73849   3.910   3.164   6.575
24536WAT     H173850   3.980   3.212   6.627
24536WAT     H273851   3.931   3.169   6.477
24537WAT      O73852   5.984   3.292   4.528
24537WAT     H173853   6.013   3.200   4.501
24537WAT     H273854   6.055   3.358   4.503
24538WAT      O73855   1.788   7.111   4.960
24538WAT     H173856   1.820   7.034   5.016
24538WAT     H273857   1.777   7.192   5.017
24539WAT      O73858   8.331   5.556   4.915
24539WAT     H173859   8.391   5.527   4.841
24539WAT     H273860   8.326   5.656   4.917
24540WAT      O73861   3.861   0.485   9.564
24540WAT     H173862   3.792   0.426   9.606
24540WAT     H273863   3.935   0.429   9.527
24541WAT      O73864   5.869   3.882   4.207
24541WAT     H173865   5.842   3.966   4.159
24541WAT     H273866   5.814   3.806   4.172
24542WAT      O73867   9.614   6.753   0.113
24542WAT     H173868   9.593   6.827   0.049
24542WAT     H273869   9.708   6.763   0.145
24543WAT      O73870   0.758   7.731   5.769
24543WAT     H173871   0.780   7.634   5.757
24543WAT     H273872   0.713   7.744   5.858
24544WAT      O73873   3.190   7.274   5.568
24544WAT     H173874   3.239   7.233   5.644
24544WAT     H273875   3.094   7.246   5.571
24545WAT      O73876   1.200   8.770   8.235
24545WAT     H173877   1.142   8.690   8.253
24545WAT     H273878   1.144   8.853   8.237
24546WAT      O73879   7.175   2.597   6.282
24546WAT     H173880   7.171   2.511   6.331
24546WAT     H273881   7.197   2.580   6.186
24547WAT      O73882   4.917   0.688   3.466
24547WAT     H173883   4.965   0.673   3.553
24547WAT     H273884   4.834   0.740   3.483
24548WAT      O73885   1.374   6.942   0.191
24548WAT     H173886   1.426   7.028   0.193
24548WAT     H273887   1.412   6.878   0.257
24549WAT      O73888   0.041   7.789   1.742
24549WAT     H173889   0.101   7.869   1.748
24549WAT     H273890   0.065   7.725   1.814
24550WAT      O73891   5.203   6.979   1.455
24550WAT     H173892   5.266   7.018   1.387
24550WAT     H273893   5.121   6.947   1.409
24551WAT      O73894   2.092   3.234   6.141
24551WAT     H173895   2.179   3.220   6.094
24551WAT     H273896   2.096   3.318   6.195
24552WAT      O73897   8.728   2.371   9.702
24552WAT     H173898   8.756   2.415   9.616
24552WAT     H273899   8.670   2.293   9.681
24553WAT      O73900   8.884   3.329   1.759
24553WAT     H173901   8.865   3.364   1.667
24553WAT     H273902   8.918   3.403   1.817
24554WAT      O73903   8.783   7.324   3.081
24554WAT     H173904   8.690   7.305   3.051
24554WAT     H273905   8.786   7.332   3.180
24555WAT      O73906   6.234   8.239   8.378
24555WAT     H173907   6.234   8.319   8.319
24555WAT     H273908   6.169   8.171   8.342
24556WAT      O73909   9.820   1.859   3.921
24556WAT     H173910   9.800   1.780   3.978
24556WAT     H273911   9.743   1.876   3.858
24557WAT      O73912   0.096   9.317   8.196
24557WAT     H173913   0.148   9.324   8.111
24557WAT     H273914   0.001   9.294   8.175
24558WAT      O73915   6.290   7.832   7.002
24558WAT     H173916   6.360   7.785   7.056
24558WAT     H273917   6.247   7.903   7.058
24559WAT      O73918   3.895   1.949   8.999
24559WAT     H173919   3.872   1.854   8.978
24559WAT     H273920   3.811   1.999   9.024
24560WAT      O73921   5.026   1.287   7.403
24560WAT     H173922   5.086   1.363   7.426
24560WAT     H273923   5.059   1.204   7.447
24561WAT      O73924   0.577   4.631   3.343
24561WAT     H173925   0.589   4.551   3.402
24561WAT     H273926   0.624   4.615   3.256
24562WAT      O73927   6.000   7.761   9.866
24562WAT     H173928   5.932   7.792   9.800
24562WAT     H273929   6.076   7.825   9.869
24563WAT      O73930   8.392   9.253   6.395
24563WAT     H173931   8.362   9.253   6.490
24563WAT     H273932   8.342   9.182   6.345
24564WAT      O73933   7.485   1.580   5.066
24564WAT     H173934   7.502   1.535   4.978
24564WAT     H273935   7.389   1.608   5.070
24565WAT      O73936   7.395   7.420   5.693
24565WAT     H173937   7.406   7.444   5.790
24565WAT     H273938   7.336   7.488   5.649
24566WAT      O73939   0.100   5.221   7.761
24566WAT     H173940   0.129   5.198   7.854
24566WAT     H273941   0.001   5.211   7.753
24567WAT      O73942   8.447   7.658   8.539
24567WAT     H173943   8.429   7.584   8.474
24567WAT     H273944   8.480   7.738   8.490
24568WAT      O73945   8.744   5.252   7.515
24568WAT     H173946   8.735   5.154   7.530
24568WAT     H273947   8.829   5.271   7.466
24569WAT      O73948   4.395   1.175   3.693
24569WAT     H173949   4.387   1.090   3.746
24569WAT     H273950   4.308   1.197   3.650
24570WAT      O73951   2.868   0.045   1.297
24570WAT     H173952   2.774   0.079   1.287
24570WAT     H273953   2.877  -0.004   1.383
24571WAT      O73954   7.269   4.378   7.159
24571WAT     H173955   7.184   4.364   7.210
24571WAT     H273956   7.329   4.440   7.209
24572WAT      O73957   6.240   9.031   6.529
24572WAT     H173958   6.153   9.073   6.555
24572WAT     H273959   6.311   9.059   6.594
24573WAT      O73960   0.479   0.909   3.745
24573WAT     H173961   0.557   0.902   3.807
24573WAT     H273962   0.479   0.999   3.702
24574WAT      O73963   0.591   2.561   6.170
24574WAT     H173964   0.601   2.627   6.096
24574WAT     H273965   0.504   2.575   6.216
24575WAT      O73966   8.085   7.770   2.604
24575WAT     H173967   8.047   7.809   2.688
24575WAT     H273968   8.181   7.798   2.595
24576WAT      O73969   3.555   8.400   6.788
24576WAT     H173970   3.614   8.479   6.800
24576WAT     H273971   3.549   8.377   6.691
24577WAT      O73972   3.674   2.336   7.688
24577WAT     H173973   3.708   2.323   7.781
24577WAT     H273974   3.574   2.326   7.687
24578WAT      O73975   0.310   1.950   6.160
24578WAT     H173976   0.225   2.002   6.160
24578WAT     H273977   0.366   1.976   6.238
24579WAT      O73978   9.190   5.204   3.709
24579WAT     H173979   9.112   5.147   3.683
24579WAT     H273980   9.157   5.293   3.739
24580WAT      O73981   8.513   3.935   5.376
24580WAT     H173982   8.419   3.909   5.400
24580WAT     H273983   8.544   4.007   5.438
24581WAT      O73984   4.385   0.427   4.245
24581WAT     H173985   4.324   0.495   4.205
24581WAT     H273986   4.458   0.473   4.295
24582WAT      O73987   5.952   1.538   9.335
24582WAT     H173988   5.894   1.485   9.398
24582WAT     H273989   6.023   1.478   9.298
24583WAT      O73990   0.594   7.627   1.379
24583WAT     H173991   0.585   7.528   1.372
24583WAT     H273992   0.545   7.658   1.461
24584WAT      O73993   4.343   1.256   7.059
24584WAT     H173994   4.344   1.286   6.963
24584WAT     H273995   4.432   1.217   7.083
24585WAT      O73996   7.860   4.531   5.234
24585WAT     H173997   7.898   4.521   5.325
24585WAT     H273998   7.760   4.533   5.239
24586WAT      O73999   7.745   0.455   6.702
24586WAT     H174000   7.645   0.454   6.708
24586WAT     H274001   7.774   0.428   6.610
24587WAT      O74002   0.011   4.486   6.969
24587WAT     H174003  -0.076   4.535   6.959
24587WAT     H274004   0.020   4.419   6.895
24588WAT      O74005   8.843   5.315   5.336
24588WAT     H174006   8.931   5.270   5.321
24588WAT     H274007   8.769   5.249   5.325
24589WAT      O74008   8.688   3.073   0.972
24589WAT     H174009   8.739   2.987   0.964
24589WAT     H274010   8.618   3.076   0.901
24590WAT      O74011   4.841   1.133   2.799
24590WAT     H174012   4.919   1.186   2.831
24590WAT     H274013   4.848   1.118   2.701
24591WAT      O74014   6.705   1.020   4.558
24591WAT     H174015   6.646   1.076   4.615
24591WAT     H274016   6.791   1.069   4.541
24592WAT      O74017   1.655   2.155   0.245
24592WAT     H174018   1.598   2.167   0.327
24592WAT     H274019   1.619   2.080   0.190
24593WAT      O74020   4.159   5.977   4.001
24593WAT     H174021   4.113   6.065   4.016
24593WAT     H274022   4.112   5.928   3.927
24594WAT      O74023   4.724   0.766   7.363
24594WAT     H174024   4.743   0.741   7.458
24594WAT     H274025   4.710   0.682   7.309
24595WAT      O74026   4.750   6.821   6.351
24595WAT     H174027   4.846   6.843   6.332
24595WAT     H274028   4.694   6.845   6.272
24596WAT      O74029   6.033   1.784   8.005
24596WAT     H174030   6.072   1.837   7.930
24596WAT     H274031   6.105   1.758   8.069
24597WAT      O74032   5.522   6.857   2.776
24597WAT     H174033   5.571   6.824   2.696
24597WAT     H274034   5.587   6.891   2.844
24598WAT      O74035   4.182   6.057   1.995
24598WAT     H174036   4.130   6.096   1.919
24598WAT     H274037   4.131   5.980   2.034
24599WAT      O74038   8.349   0.663   7.159
24599WAT     H174039   8.311   0.625   7.075
24599WAT     H274040   8.371   0.760   7.146
24600WAT      O74041   1.968   4.385   7.367
24600WAT     H174042   1.889   4.325   7.373
24600WAT     H274043   2.042   4.351   7.425
24601WAT      O74044   5.751   5.388   2.874
24601WAT     H174045   5.713   5.478   2.897
24601WAT     H274046   5.730   5.366   2.779
24602WAT      O74047   1.668   4.321   0.251
24602WAT     H174048   1.612   4.342   0.171
24602WAT     H274049   1.734   4.396   0.266
24603WAT      O74050   3.994   8.028   6.393
24603WAT     H174051   3.899   7.997   6.399
24603WAT     H274052   4.026   8.021   6.299
24604WAT      O74053   0.541   5.868   7.278
24604WAT     H174054   0.455   5.834   7.239
24604WAT     H274055   0.524   5.954   7.325
24605WAT      O74056   9.514   1.229   5.312
24605WAT     H174057   9.571   1.312   5.305
24605WAT     H274058   9.418   1.256   5.316
24606WAT      O74059   0.321   6.571   2.108
24606WAT     H174060   0.324   6.562   2.207
24606WAT     H274061   0.226   6.584   2.078
24607WAT      O74062   1.999   6.219   8.232
24607WAT     H174063   1.960   6.233   8.141
24607WAT     H274064   2.066   6.291   8.251
24608WAT      O74065   4.954   3.457   9.636
24608WAT     H174066   5.041   3.421   9.672
24608WAT     H274067   4.969   3.495   9.545
24609WAT      O74068   5.742   8.195   0.125
24609WAT     H174069   5.647   8.220   0.109
24609WAT     H274070   5.797   8.223   0.046
24610WAT      O74071   7.310   1.632   8.424
24610WAT     H174072   7.405   1.661   8.436
24610WAT     H274073   7.275   1.670   8.338
24611WAT      O74074   6.192   0.340   5.140
24611WAT     H174075   6.128   0.416   5.151
24611WAT     H274076   6.222   0.334   5.045
24612WAT      O74077   9.673   0.160   7.166
24612WAT     H174078   9.769   0.149   7.142
24612WAT     H274079   9.626   0.211   7.095
24613WAT      O74080   7.773   4.042   4.467
24613WAT     H174081   7.752   4.005   4.376
24613WAT     H274082   7.716   4.122   4.484
24614WAT      O74083   4.258   9.133   2.996
24614WAT     H174084   4.329   9.064   3.011
24614WAT     H274085   4.205   9.110   2.914
24615WAT      O74086   7.944   2.668   1.500
24615WAT     H174087   7.880   2.604   1.543
24615WAT     H274088   7.935   2.758   1.543
24616WAT      O74089   4.973   0.942   3.303
24616WAT     H174090   4.988   0.932   3.402
24616WAT     H274091   4.877   0.926   3.281
24617WAT      O74092   0.506   8.324   6.375
24617WAT     H174093   0.497   8.275   6.289
24617WAT     H274094   0.578   8.394   6.366
24618WAT      O74095   5.259   0.621   4.376
24618WAT     H174096   5.300   0.710   4.397
24618WAT     H274097   5.288   0.592   4.285
24619WAT      O74098   0.672   8.414   1.246
24619WAT     H174099   0.588   8.379   1.204
24619WAT     H274100   0.732   8.338   1.269
24620WAT      O74101   1.683   0.154   1.190
24620WAT     H174102   1.608   0.204   1.234
24620WAT     H274103   1.651   0.119   1.102
24621WAT      O74104   6.728   3.848   9.667
24621WAT     H174105   6.802   3.783   9.649
24621WAT     H274106   6.647   3.820   9.616
24622WAT      O74107   6.633   4.828   6.001
24622WAT     H174108   6.636   4.880   6.087
24622WAT     H274109   6.550   4.773   5.998
24623WAT      O74110   2.029   5.059   2.438
24623WAT     H174111   1.937   5.021   2.448
24623WAT     H274112   2.025   5.146   2.389
24624WAT      O74113   8.744   1.589   2.517
24624WAT     H174114   8.735   1.499   2.475
24624WAT     H274115   8.840   1.617   2.517
24625WAT      O74116   1.628   2.125   7.957
24625WAT     H174117   1.554   2.101   8.021
24625WAT     H274118   1.592   2.126   7.864
24626WAT      O74119   8.130   2.416   2.038
24626WAT     H174120   8.055   2.390   1.977
24626WAT     H274121   8.183   2.334   2.061
24627WAT      O74122   7.171   4.929   5.018
24627WAT     H174123   7.165   4.981   4.933
24627WAT     H274124   7.204   4.989   5.091
24628WAT      O74125   1.513   1.815   6.798
24628WAT     H174126   1.477   1.781   6.886
24628WAT     H274127   1.520   1.739   6.734
24629WAT      O74128   5.780   7.272   1.481
24629WAT     H174129   5.830   7.357   1.496
24629WAT     H274130   5.784   7.215   1.563
24630WAT      O74131   8.356   0.773   4.459
24630WAT     H174132   8.322   0.683   4.430
24630WAT     H274133   8.375   0.770   4.557
24631WAT      O74134   1.596   2.393   2.685
24631WAT     H174135   1.508   2.440   2.691
24631WAT     H274136   1.664   2.456   2.647
24632WAT      O74137   5.154   5.866   7.887
24632WAT     H174138   5.181   5.776   7.853
24632WAT     H274139   5.204   5.936   7.837
24633WAT      O74140   8.777   4.627   5.551
24633WAT     H174141   8.758   4.640   5.454
24633WAT     H274142   8.874   4.607   5.564
24634WAT      O74143   2.438   5.673   5.949
24634WAT     H174144   2.437   5.575   5.968
24634WAT     H274145   2.531   5.709   5.961
24635WAT      O74146   0.241   8.415   6.408
24635WAT     H174147   0.212   8.417   6.503
24635WAT     H274148   0.330   8.370   6.401
24636WAT      O74149   3.586   0.020   2.374
24636WAT     H174150   3.572  -0.077   2.392
24636WAT     H274151   3.528   0.074   2.435
24637WAT      O74152   5.594   9.414   0.007
24637WAT     H174153   5.626   9.320  -0.003
24637WAT     H274154   5.662   9.468   0.055
24638WAT      O74155  -0.000   4.333   4.991
24638WAT     H174156   0.073   4.396   5.019
24638WAT     H274157  -0.065   4.321   5.067
24639WAT      O74158   0.989   5.073   2.864
24639WAT     H174159   0.954   5.068   2.771
24639WAT     H274160   1.089   5.072   2.863
24640WAT      O74161   5.405   8.061   9.765
24640WAT     H174162   5.357   8.064   9.853
24640WAT     H274163   5.370   7.984   9.711
24641WAT      O74164   8.654   7.899   6.790
24641WAT     H174165   8.634   7.819   6.734
24641WAT     H274166   8.569   7.946   6.814
24642WAT      O74167   9.505   2.560   2.952
24642WAT     H174168   9.500   2.474   3.005
24642WAT     H274169   9.529   2.635   3.013
24643WAT      O74170   8.269   9.767   4.345
24643WAT     H174171   8.357   9.813   4.330
24643WAT     H274172   8.211   9.779   4.264
24644WAT      O74173   9.482   3.866   2.985
24644WAT     H174174   9.457   3.962   2.979
24644WAT     H274175   9.411   3.816   3.034
24645WAT      O74176   8.576   1.071   5.305
24645WAT     H174177   8.570   1.169   5.284
24645WAT     H274178   8.485   1.030   5.295
24646WAT      O74179   0.912   8.684   0.708
24646WAT     H174180   0.870   8.616   0.768
24646WAT     H274181   0.877   8.775   0.732
24647WAT      O74182   2.008   7.018   9.126
24647WAT     H174183   2.078   7.075   9.169
24647WAT     H274184   1.919   7.036   9.168
24648WAT      O74185   4.458   1.706   6.516
24648WAT     H174186   4.524   1.769   6.476
24648WAT     H274187   4.437   1.633   6.451
24649WAT      O74188   3.275   0.820   0.827
24649WAT     H174189   3.271   0.744   0.762
24649WAT     H274190   3.370   0.835   0.854
24650WAT      O74191   7.403   1.249   6.790
24650WAT     H174192   7.393   1.326   6.727
24650WAT     H274193   7.327   1.247   6.854
24651WAT      O74194   3.503   4.028   9.079
24651WAT     H174195   3.576   4.089   9.109
24651WAT     H274196   3.502   4.024   8.979
24652WAT      O74197   2.300   9.097   5.546
24652WAT     H174198   2.263   9.184   5.514
24652WAT     H274199   2.398   9.092   5.523
24653WAT      O74200   5.786   2.325   4.585
24653WAT     H174201   5.792   2.403   4.648
24653WAT     H274202   5.699   2.278   4.598
24654WAT      O74203   2.164   2.055   6.571
24654WAT     H174204   2.108   2.039   6.490
24654WAT     H274205   2.150   1.980   6.636
24655WAT      O74206   3.937   6.666   4.321
24655WAT     H174207   3.846   6.673   4.360
24655WAT     H274208   3.999   6.624   4.387
24656WAT      O74209   0.539   3.718   0.274
24656WAT     H174210   0.558   3.648   0.205
24656WAT     H274211   0.504   3.675   0.356
24657WAT      O74212   9.617   3.217   5.344
24657WAT     H174213   9.580   3.293   5.397
24657WAT     H274214   9.545   3.179   5.286
24658WAT      O74215   4.722   8.029   6.378
24658WAT     H174216   4.744   7.935   6.404
24658WAT     H274217   4.624   8.044   6.391
24659WAT      O74218   0.733   3.324   1.380
24659WAT     H174219   0.811   3.289   1.431
24659WAT     H274220   0.653   3.266   1.395
24660WAT      O74221   1.549   8.078   3.154
24660WAT     H174222   1.474   8.066   3.219
24660WAT     H274223   1.560   8.175   3.132
24661WAT      O74224   1.335   4.967   9.632
24661WAT     H174225   1.411   4.992   9.571
24661WAT     H274226   1.252   5.014   9.603
24662WAT      O74227   1.034   3.554   3.621
24662WAT     H174228   1.074   3.475   3.667
24662WAT     H274229   1.031   3.538   3.522
24663WAT      O74230   6.190   6.195   7.898
24663WAT     H174231   6.213   6.234   7.988
24663WAT     H274232   6.216   6.260   7.826
24664WAT      O74233   0.446   3.718   2.883
24664WAT     H174234   0.453   3.734   2.982
24664WAT     H274235   0.349   3.709   2.858
24665WAT      O74236   3.782   7.961   2.745
24665WAT     H174237   3.684   7.965   2.724
24665WAT     H274238   3.797   7.905   2.827
24666WAT      O74239   3.803   6.747   7.100
24666WAT     H174240   3.817   6.763   7.002
24666WAT     H274241   3.868   6.801   7.153
24667WAT      O74242   2.049   7.626   0.823
24667WAT     H174243   1.959   7.609   0.783
24667WAT     H274244   2.088   7.710   0.784
24668WAT      O74245   6.683   7.590   1.160
24668WAT     H174246   6.590   7.624   1.151
24668WAT     H274247   6.681   7.492   1.182
24669WAT      O74248   5.311   6.162   5.270
24669WAT     H174249   5.306   6.063   5.259
24669WAT     H274250   5.243   6.192   5.337
24670WAT      O74251   4.846   0.760   2.524
24670WAT     H174252   4.750   0.772   2.498
24670WAT     H274253   4.897   0.722   2.448
24671WAT      O74254   6.161   8.146   2.917
24671WAT     H174255   6.152   8.206   2.996
24671WAT     H274256   6.223   8.071   2.938
24672WAT      O74257   9.307   6.914   0.850
24672WAT     H174258   9.365   6.973   0.795
24672WAT     H274259   9.359   6.834   0.881
24673WAT      O74260   9.743   0.128   1.625
24673WAT     H174261   9.763   0.051   1.564
24673WAT     H274262   9.657   0.171   1.596
24674WAT      O74263   7.927   4.080   7.082
24674WAT     H174264   7.839   4.106   7.123
24674WAT     H274265   7.993   4.153   7.096
24675WAT      O74266   0.646   3.871   8.945
24675WAT     H174267   0.632   3.821   9.031
24675WAT     H274268   0.666   3.806   8.872
24676WAT      O74269   4.425   0.009   9.571
24676WAT     H174270   4.384   0.025   9.661
24676WAT     H274271   4.371   0.057   9.502
24677WAT      O74272   8.550   0.857   3.432
24677WAT     H174273   8.595   0.784   3.381
24677WAT     H274274   8.459   0.874   3.393
24678WAT      O74275   6.285   7.953   0.160
24678WAT     H174276   6.258   7.938   0.065
24678WAT     H274277   6.306   7.865   0.203
24679WAT      O74278   4.115   2.253   9.280
24679WAT     H174279   4.141   2.269   9.185
24679WAT     H274280   4.159   2.320   9.339
24680WAT      O74281   8.977   3.656   0.944
24680WAT     H174282   9.003   3.595   1.019
24680WAT     H274283   8.946   3.744   0.983
24681WAT      O74284   8.282   8.395   6.586
24681WAT     H174285   8.256   8.345   6.503
24681WAT     H274286   8.343   8.471   6.561
24682WAT      O74287   5.567   5.222   0.232
24682WAT     H174288   5.522   5.134   0.214
24682WAT     H274289   5.624   5.247   0.154
24683WAT      O74290   9.491   3.721   4.235
24683WAT     H174291   9.454   3.811   4.210
24683WAT     H274292   9.518   3.722   4.332
24684WAT      O74293   4.188   4.505   2.159
24684WAT     H174294   4.199   4.471   2.252
24684WAT     H274295   4.180   4.605   2.160
24685WAT      O74296   7.666   0.122   7.656
24685WAT     H174297   7.600   0.114   7.731
24685WAT     H274298   7.627   0.179   7.583
24686WAT      O74299   5.349   3.535   7.647
24686WAT     H174300   5.269   3.515   7.591
24686WAT     H274301   5.324   3.601   7.718
24687WAT      O74302   5.434   9.622   4.027
24687WAT     H174303   5.381   9.706   4.035
24687WAT     H274304   5.391   9.562   3.958
24688WAT      O74305   1.481   5.544   1.579
24688WAT     H174306   1.522   5.635   1.573
24688WAT     H274307   1.537   5.478   1.528
24689WAT      O74308   8.623   4.807   3.490
24689WAT     H174309   8.621   4.893   3.439
24689WAT     H274310   8.541   4.801   3.547
24690WAT      O74311   0.977   9.107   6.055
24690WAT     H174312   0.890   9.136   6.095
24690WAT     H274313   1.039   9.185   6.050
24691WAT      O74314   3.949   7.374   6.774
24691WAT     H174315   3.914   7.467   6.787
24691WAT     H274316   4.049   7.375   6.776
24692WAT      O74317   8.735   6.229   2.992
24692WAT     H174318   8.678   6.148   2.980
24692WAT     H274319   8.731   6.260   3.087
24693WAT      O74320   8.782   3.678   5.432
24693WAT     H174321   8.706   3.626   5.395
24693WAT     H274322   8.792   3.764   5.381
24694WAT      O74323   2.384   5.962   7.749
24694WAT     H174324   2.471   6.012   7.743
24694WAT     H274325   2.355   5.935   7.658
24695WAT      O74326   5.613   3.790   4.863
24695WAT     H174327   5.680   3.795   4.937
24695WAT     H274328   5.604   3.879   4.820
24696WAT      O74329   0.374   1.544   4.586
24696WAT     H174330   0.449   1.572   4.526
24696WAT     H274331   0.396   1.566   4.681
24697WAT      O74332   0.068   7.017   9.830
24697WAT     H174333   0.014   7.078   9.888
24697WAT     H274334   0.161   7.052   9.821
24698WAT      O74335   0.913   7.465   4.910
24698WAT     H174336   0.925   7.385   4.851
24698WAT     H274337   1.002   7.495   4.944
24699WAT      O74338   0.213   5.926   0.151
24699WAT     H174339   0.227   5.840   0.102
24699WAT     H274340   0.198   5.999   0.085
24700WAT      O74341   5.023   2.877   3.461
24700WAT     H174342   4.978   2.870   3.550
24700WAT     H274343   4.958   2.851   3.389
24701WAT      O74344   5.864   2.770   6.373
24701WAT     H174345   5.815   2.683   6.380
24701WAT     H274346   5.850   2.808   6.281
24702WAT      O74347   9.401   6.508   9.270
24702WAT     H174348   9.412   6.570   9.347
24702WAT     H274349   9.491   6.480   9.236
24703WAT      O74350   3.031   3.049   7.082
24703WAT     H174351   2.964   3.106   7.129
24703WAT     H274352   3.002   3.035   6.987
24704WAT      O74353   9.569   7.117   9.273
24704WAT     H174354   9.561   7.094   9.176
24704WAT     H274355   9.507   7.060   9.326
24705WAT      O74356   9.452   4.179   4.930
24705WAT     H174357   9.515   4.133   4.869
24705WAT     H274358   9.467   4.278   4.925
24706WAT      O74359   1.988   1.989   6.335
24706WAT     H174360   2.063   2.036   6.290
24706WAT     H274361   1.988   1.892   6.308
24707WAT      O74362   4.472   8.719   4.654
24707WAT     H174363   4.545   8.763   4.706
24707WAT     H274364   4.391   8.709   4.713
24708WAT      O74365   5.296   1.435   3.037
24708WAT     H174366   5.336   1.345   3.055
24708WAT     H274367   5.217   1.449   3.096
24709WAT      O74368   5.162   1.792   1.453
24709WAT     H174369   5.143   1.725   1.381
24709WAT     H274370   5.081   1.848   1.468
24710WAT      O74371   8.363   0.333   5.607
24710WAT     H174372   8.429   0.271   5.564
24710WAT     H274373   8.379   0.335   5.706
24711WAT      O74374   0.172   3.642   4.844
24711WAT     H174375   0.093   3.604   4.892
24711WAT     H274376   0.176   3.604   4.751
24712WAT      O74377   0.644   7.837   6.003
24712WAT     H174378   0.688   7.760   6.049
24712WAT     H274379   0.548   7.843   6.031
24713WAT      O74380   4.916   9.729   0.702
24713WAT     H174381   4.858   9.704   0.780
24713WAT     H274382   4.858   9.762   0.627
24714WAT      O74383   0.919   0.603   4.415
24714WAT     H174384   0.881   0.560   4.496
24714WAT     H274385   1.015   0.577   4.404
24715WAT      O74386   4.683   0.953   9.026
24715WAT     H174387   4.781   0.932   9.029
24715WAT     H274388   4.666   1.023   8.957
24716WAT      O74389   3.152   3.077   2.170
24716WAT     H174390   3.201   3.150   2.218
24716WAT     H274391   3.080   3.041   2.229
24717WAT      O74392   1.996   2.898   2.856
24717WAT     H174393   2.004   2.957   2.936
24717WAT     H274394   2.036   2.944   2.777
24718WAT      O74395   2.500   4.169   0.619
24718WAT     H174396   2.550   4.091   0.582
24718WAT     H274397   2.544   4.254   0.590
24719WAT      O74398   6.645   1.171   4.040
24719WAT     H174399   6.681   1.253   4.085
24719WAT     H274400   6.563   1.195   3.988
24720WAT      O74401   5.572   1.573   4.765
24720WAT     H174402   5.505   1.611   4.701
24720WAT     H274403   5.650   1.635   4.773
24721WAT      O74404   0.918   3.933   8.972
24721WAT     H174405   0.961   3.847   8.997
24721WAT     H274406   0.819   3.920   8.962
24722WAT      O74407   1.254   8.961   3.411
24722WAT     H174408   1.309   8.913   3.479
24722WAT     H274409   1.158   8.937   3.423
24723WAT      O74410   7.220   9.083   9.094
24723WAT     H174411   7.294   9.047   9.151
24723WAT     H274412   7.211   9.026   9.011
24724WAT      O74413   0.016   7.031   7.450
24724WAT     H174414  -0.045   7.076   7.384
24724WAT     H274415   0.097   7.088   7.464
24725WAT      O74416   6.243   2.126   1.005
24725WAT     H174417   6.166   2.158   0.951
24725WAT     H274418   6.304   2.071   0.948
24726WAT      O74419   0.096   9.420   3.049
24726WAT     H174420   0.164   9.422   2.976
24726WAT     H274421   0.017   9.365   3.020
24727WAT      O74422   4.193   3.895   6.352
24727WAT     H174423   4.227   3.814   6.304
24727WAT     H274424   4.158   3.869   6.442
24728WAT      O74425   7.610   6.789   1.323
24728WAT     H174426   7.525   6.803   1.273
24728WAT     H274427   7.592   6.789   1.422
24729WAT      O74428   3.077   0.288   0.549
24729WAT     H174429   3.003   0.222   0.539
24729WAT     H274430   3.119   0.306   0.460
24730WAT      O74431   5.779   9.398   7.254
24730WAT     H174432   5.817   9.337   7.185
24730WAT     H274433   5.692   9.360   7.287
24731WAT      O74434   9.619   7.403   8.843
24731WAT     H174435   9.719   7.416   8.847
24731WAT     H274436   9.598   7.329   8.779
24732WAT      O74437   3.643   8.730   7.520
24732WAT     H174438   3.572   8.659   7.519
24732WAT     H274439   3.638   8.783   7.435
24733WAT      O74440   3.765   4.633   4.829
24733WAT     H174441   3.843   4.636   4.891
24733WAT     H274442   3.696   4.570   4.866
24734WAT      O74443   8.039   3.423   3.713
24734WAT     H174444   7.946   3.452   3.691
24734WAT     H274445   8.100   3.502   3.709
24735WAT      O74446   4.089   7.895   4.238
24735WAT     H174447   4.022   7.939   4.178
24735WAT     H274448   4.140   7.965   4.287
24736WAT      O74449   5.998   5.400   3.613
24736WAT     H174450   5.915   5.452   3.592
24736WAT     H274451   5.974   5.318   3.664
24737WAT      O74452   0.503   5.879   6.241
24737WAT     H174453   0.518   5.932   6.325
24737WAT     H274454   0.475   5.940   6.167
24738WAT      O74455   0.449   0.495   1.550
24738WAT     H174456   0.430   0.582   1.505
24738WAT     H274457   0.423   0.501   1.646
24739WAT      O74458   7.121   7.273   7.074
24739WAT     H174459   7.073   7.352   7.111
24739WAT     H274460   7.082   7.189   7.114
24740WAT      O74461   8.274   1.240   2.445
24740WAT     H174462   8.226   1.197   2.368
24740WAT     H274463   8.219   1.229   2.528
24741WAT      O74464   0.928   1.702   2.322
24741WAT     H174465   1.004   1.642   2.347
24741WAT     H274466   0.908   1.764   2.397
24742WAT      O74467   4.159   5.265   3.179
24742WAT     H174468   4.227   5.213   3.127
24742WAT     H274469   4.145   5.221   3.268
24743WAT      O74470   2.915   6.052   8.896
24743WAT     H174471   2.863   6.048   8.982
24743WAT     H274472   3.005   6.010   8.910
24744WAT      O74473   4.520   2.824   5.690
24744WAT     H174474   4.485   2.878   5.766
24744WAT     H274475   4.617   2.805   5.705
24745WAT      O74476   6.085   2.012   6.213
24745WAT     H174477   6.008   1.948   6.204
24745WAT     H274478   6.135   2.015   6.126
24746WAT      O74479   0.365   4.226   5.281
24746WAT     H174480   0.313   4.252   5.362
24746WAT     H274481   0.462   4.228   5.301
24747WAT      O74482   0.078   2.444   6.088
24747WAT     H174483   0.037   2.395   6.165
24747WAT     H274484   0.036   2.413   6.002
24748WAT      O74485   0.279   5.606   8.994
24748WAT     H174486   0.222   5.688   8.986
24748WAT     H274487   0.374   5.630   8.973
24749WAT      O74488   2.054   7.603   2.148
24749WAT     H174489   1.981   7.550   2.192
24749WAT     H274490   2.081   7.559   2.062
24750WAT      O74491   5.463   0.654   2.942
24750WAT     H174492   5.552   0.649   2.896
24750WAT     H274493   5.398   0.592   2.897
24751WAT      O74494   8.623   2.975   7.618
24751WAT     H174495   8.703   3.035   7.616
24751WAT     H274496   8.609   2.941   7.711
24752WAT      O74497   2.829   1.844   5.316
24752WAT     H174498   2.884   1.859   5.398
24752WAT     H274499   2.755   1.780   5.338
24753WAT      O74500   0.849   4.767   5.999
24753WAT     H174501   0.817   4.853   5.960
24753WAT     H274502   0.918   4.727   5.938
24754WAT      O74503   7.061   9.516   7.162
24754WAT     H174504   7.028   9.577   7.090
24754WAT     H274505   7.077   9.425   7.124
24755WAT      O74506   5.402   4.338   9.389
24755WAT     H174507   5.434   4.244   9.377
24755WAT     H274508   5.477   4.394   9.424
24756WAT      O74509   7.756   2.131   2.757
24756WAT     H174510   7.777   2.117   2.854
24756WAT     H274511   7.726   2.225   2.743
24757WAT      O74512   4.552   5.498   7.754
24757WAT     H174513   4.543   5.585   7.802
24757WAT     H274514   4.599   5.432   7.813
24758WAT      O74515   5.288   6.905   5.649
24758WAT     H174516   5.324   6.950   5.731
24758WAT     H274517   5.262   6.974   5.581
24759WAT      O74518   0.222   9.338   5.182
24759WAT     H174519   0.251   9.247   5.152
24759WAT     H274520   0.147   9.329   5.248
24760WAT      O74521   5.842   4.359   7.723
24760WAT     H174522   5.907   4.288   7.751
24760WAT     H274523   5.892   4.438   7.688
24761WAT      O74524   0.444   8.846   7.781
24761WAT     H174525   0.417   8.792   7.860
24761WAT     H274526   0.541   8.830   7.762
24762WAT      O74527   5.749   5.446   2.032
24762WAT     H174528   5.802   5.399   2.103
24762WAT     H274529   5.678   5.384   1.999
24763WAT      O74530   4.585   5.559   1.068
24763WAT     H174531   4.506   5.502   1.044
24763WAT     H274532   4.612   5.540   1.163
24764WAT      O74533   4.028   4.962   2.419
24764WAT     H174534   3.948   4.992   2.368
24764WAT     H274535   4.109   4.968   2.361
24765WAT      O74536   8.803   4.901   7.746
24765WAT     H174537   8.860   4.828   7.710
24765WAT     H274538   8.760   4.871   7.831
24766WAT      O74539   1.254   7.491   7.146
24766WAT     H174540   1.192   7.502   7.068
24766WAT     H274541   1.333   7.436   7.118
24767WAT      O74542   3.657   0.137   5.090
24767WAT     H174543   3.695   0.058   5.138
24767WAT     H274544   3.575   0.169   5.137
24768WAT      O74545   3.040   8.007   9.649
24768WAT     H174546   2.968   7.968   9.707
24768WAT     H274547   2.999   8.071   9.584
24769WAT      O74548   6.981   9.541   6.086
24769WAT     H174549   6.889   9.556   6.123
24769WAT     H274550   7.046   9.531   6.161
24770WAT      O74551   6.012   4.027   0.336
24770WAT     H174552   5.956   4.105   0.363
24770WAT     H274553   6.058   3.990   0.417
24771WAT      O74554   5.098   1.369   5.532
24771WAT     H174555   5.120   1.271   5.535
24771WAT     H274556   5.024   1.389   5.596
24772WAT      O74557   3.114   0.226   8.659
24772WAT     H174558   3.025   0.210   8.616
24772WAT     H274559   3.181   0.163   8.619
24773WAT      O74560   6.071   3.111   1.279
24773WAT     H174561   5.980   3.151   1.274
24773WAT     H274562   6.119   3.147   1.359
24774WAT      O74563   3.846   2.974   5.647
24774WAT     H174564   3.930   3.028   5.638
24774WAT     H274565   3.864   2.893   5.702
24775WAT      O74566   4.429   0.956   8.293
24775WAT     H174567   4.346   0.919   8.251
24775WAT     H274568   4.420   1.054   8.305
24776WAT      O74569   6.216   0.103   2.644
24776WAT     H174570   6.200   0.184   2.700
24776WAT     H274571   6.207   0.127   2.547
24777WAT      O74572   8.579   6.518   3.820
24777WAT     H174573   8.619   6.535   3.729
24777WAT     H274574   8.634   6.449   3.867
24778WAT      O74575   5.266   6.837   5.113
24778WAT     H174576   5.212   6.920   5.128
24778WAT     H274577   5.249   6.803   5.021
24779WAT      O74578   7.062   9.175   6.142
24779WAT     H174579   6.980   9.218   6.104
24779WAT     H274580   7.043   9.142   6.235
24780WAT      O74581   8.773   2.756   2.902
24780WAT     H174582   8.748   2.826   2.968
24780WAT     H274583   8.806   2.799   2.818
24781WAT      O74584   9.839   8.119   1.079
24781WAT     H174585   9.798   8.031   1.055
24781WAT     H274586   9.828   8.136   1.177
24782WAT      O74587   1.869   3.348   8.484
24782WAT     H174588   1.799   3.311   8.423
24782WAT     H274589   1.825   3.397   8.559
24783WAT      O74590   2.260   4.230   3.158
24783WAT     H174591   2.278   4.296   3.085
24783WAT     H274592   2.305   4.143   3.136
24784WAT      O74593   2.827   8.846   7.896
24784WAT     H174594   2.799   8.752   7.876
24784WAT     H274595   2.745   8.901   7.911
24785WAT      O74596   0.333   4.444   3.976
24785WAT     H174597   0.396   4.457   4.052
24785WAT     H274598   0.281   4.528   3.960
24786WAT      O74599   0.471   7.257   7.981
24786WAT     H174600   0.471   7.300   8.071
24786WAT     H274601   0.554   7.203   7.969
24787WAT      O74602   9.008   0.604   2.785
24787WAT     H174603   8.920   0.649   2.771
24787WAT     H274604   9.054   0.595   2.697
24788WAT      O74605   7.319   3.230   3.280
24788WAT     H174606   7.367   3.316   3.297
24788WAT     H274607   7.227   3.249   3.246
24789WAT      O74608   1.628   6.215   6.700
24789WAT     H174609   1.563   6.180   6.768
24789WAT     H274610   1.591   6.202   6.608
24790WAT      O74611   3.125   9.416   7.168
24790WAT     H174612   3.167   9.398   7.257
24790WAT     H274613   3.195   9.409   7.097
24791WAT      O74614   6.516   4.643   0.719
24791WAT     H174615   6.596   4.608   0.768
24791WAT     H274616   6.535   4.645   0.621
24792WAT      O74617   0.455   1.003   4.286
24792WAT     H174618   0.411   0.919   4.254
24792WAT     H274619   0.554   0.988   4.293
24793WAT      O74620   2.705   1.190   4.648
24793WAT     H174621   2.729   1.255   4.720
24793WAT     H274622   2.787   1.160   4.600
24794WAT      O74623   7.338   6.800   1.288
24794WAT     H174624   7.267   6.735   1.315
24794WAT     H274625   7.333   6.881   1.345
24795WAT      O74626   0.676   3.233   6.891
24795WAT     H174627   0.629   3.304   6.944
24795WAT     H274628   0.733   3.276   6.821
24796WAT      O74629   1.394   2.615   7.719
24796WAT     H174630   1.477   2.588   7.669
24796WAT     H274631   1.323   2.642   7.655
24797WAT      O74632   2.286   9.342   7.930
24797WAT     H174633   2.353   9.308   7.996
24797WAT     H274634   2.258   9.435   7.955
24798WAT      O74635   3.581   1.398   3.895
24798WAT     H174636   3.608   1.307   3.864
24798WAT     H274637   3.575   1.460   3.817
24799WAT      O74638   9.818   9.035   3.809
24799WAT     H174639   9.898   8.983   3.840
24799WAT     H274640   9.848   9.119   3.765
24800WAT      O74641   4.045   6.964   2.647
24800WAT     H174642   3.964   6.930   2.695
24800WAT     H274643   4.075   7.050   2.689
24801WAT      O74644   9.881   5.422   9.176
24801WAT     H174645   9.841   5.332   9.195
24801WAT     H274646   9.931   5.418   9.090
24802WAT      O74647   0.851   0.017   3.125
24802WAT     H174648   0.930   0.025   3.064
24802WAT     H274649   0.864  -0.061   3.187
24803WAT      O74650   1.973   1.769   0.829
24803WAT     H174651   1.920   1.763   0.914
24803WAT     H274652   1.921   1.819   0.760
24804WAT      O74653   1.924   3.564   7.969
24804WAT     H174654   1.897   3.661   7.965
24804WAT     H274655   1.927   3.535   8.065
24805WAT      O74656   4.814   1.518   2.063
24805WAT     H174657   4.855   1.589   2.121
24805WAT     H274658   4.793   1.557   1.974
24806WAT      O74659   5.401   4.078   1.173
24806WAT     H174660   5.464   4.093   1.250
24806WAT     H274661   5.321   4.027   1.205
24807WAT      O74662   3.587   1.415   9.207
24807WAT     H174663   3.546   1.331   9.170
24807WAT     H274664   3.685   1.402   9.218
24808WAT      O74665   1.464   4.209   8.652
24808WAT     H174666   1.394   4.280   8.646
24808WAT     H274667   1.434   4.128   8.602
24809WAT      O74668   8.097   4.715   0.627
24809WAT     H174669   8.067   4.809   0.612
24809WAT     H274670   8.184   4.700   0.579
24810WAT      O74671   8.435   4.165   6.012
24810WAT     H174672   8.526   4.162   6.053
24810WAT     H274673   8.420   4.083   5.958
24811WAT      O74674   7.582   7.792   8.565
24811WAT     H174675   7.670   7.838   8.550
24811WAT     H274676   7.508   7.851   8.533
24812WAT      O74677   5.252   6.374   2.451
24812WAT     H174678   5.200   6.406   2.530
24812WAT     H274679   5.190   6.358   2.374
24813WAT      O74680   6.368   6.053   5.442
24813WAT     H174681   6.407   5.964   5.466
24813WAT     H274682   6.374   6.066   5.343
24814WAT      O74683   5.334   3.956   7.622
24814WAT     H174684   5.240   3.980   7.648
24814WAT     H274685   5.337   3.935   7.525
24815WAT      O74686   4.628   6.960   8.308
24815WAT     H174687   4.614   6.974   8.210
24815WAT     H274688   4.654   6.866   8.325
24816WAT      O74689   5.087   6.128   4.509
24816WAT     H174690   5.125   6.061   4.445
24816WAT     H274691   4.987   6.127   4.501
24817WAT      O74692   6.009   3.879   9.175
24817WAT     H174693   6.082   3.937   9.210
24817WAT     H274694   5.920   3.915   9.203
24818WAT      O74695   0.490   3.809   2.369
24818WAT     H174696   0.484   3.876   2.295
24818WAT     H274697   0.584   3.776   2.377
24819WAT      O74698   3.962   1.257   3.713
24819WAT     H174699   3.878   1.204   3.699
24819WAT     H274700   4.027   1.236   3.640
24820WAT      O74701   2.006   6.176   6.563
24820WAT     H174702   1.960   6.250   6.514
24820WAT     H274703   1.940   6.103   6.582
24821WAT      O74704   5.339   3.327   6.652
24821WAT     H174705   5.280   3.267   6.597
24821WAT     H274706   5.288   3.408   6.680
24822WAT      O74707   2.305   5.018   0.599
24822WAT     H174708   2.365   4.941   0.580
24822WAT     H274709   2.228   5.017   0.535
24823WAT      O74710   9.315   6.434   6.984
24823WAT     H174711   9.318   6.484   6.897
24823WAT     H274712   9.281   6.494   7.056
24824WAT      O74713   0.034   4.147   3.647
24824WAT     H174714   0.076   4.210   3.713
24824WAT     H274715   0.041   4.187   3.555
24825WAT      O74716   6.848   2.572   1.325
24825WAT     H174717   6.819   2.477   1.323
24825WAT     H274718   6.769   2.632   1.311
24826WAT      O74719   6.928   5.560   3.564
24826WAT     H174720   7.004   5.501   3.592
24826WAT     H274721   6.942   5.652   3.601
24827WAT      O74722   2.251   2.070   6.224
24827WAT     H174723   2.314   2.009   6.271
24827WAT     H274724   2.291   2.161   6.218
24828WAT      O74725   8.058   7.499   6.346
24828WAT     H174726   7.973   7.538   6.310
24828WAT     H274727   8.124   7.573   6.363
24829WAT      O74728   0.424   3.728   4.505
24829WAT     H174729   0.330   3.708   4.534
24829WAT     H274730   0.442   3.683   4.418
24830WAT      O74731   6.565   1.092   1.950
24830WAT     H174732   6.561   0.995   1.976
24830WAT     H274733   6.485   1.115   1.895
24831WAT      O74734   5.903   1.066   5.736
24831WAT     H174735   5.896   1.164   5.752
24831WAT     H274736   5.843   1.040   5.660
24832WAT      O74737   0.346   6.967   4.823
24832WAT     H174738   0.256   6.974   4.866
24832WAT     H274739   0.344   7.010   4.733
24833WAT      O74740   7.668   0.512   3.051
24833WAT     H174741   7.768   0.504   3.057
24833WAT     H274742   7.634   0.454   2.978
24834WAT      O74743   8.175   0.963   8.298
24834WAT     H174744   8.241   0.943   8.225
24834WAT     H274745   8.220   1.013   8.372
24835WAT      O74746   5.317   3.523   5.729
24835WAT     H174747   5.256   3.453   5.768
24835WAT     H274748   5.399   3.479   5.693
24836WAT      O74749   0.950   3.048   3.336
24836WAT     H174750   0.886   3.073   3.408
24836WAT     H274751   0.996   2.963   3.359
24837WAT      O74752   2.916   0.704   6.730
24837WAT     H174753   2.884   0.678   6.639
24837WAT     H274754   2.848   0.764   6.773
24838WAT      O74755   8.951   9.378   9.488
24838WAT     H174756   8.973   9.333   9.575
24838WAT     H274757   8.941   9.308   9.417
24839WAT      O74758   6.914   5.177   6.087
24839WAT     H174759   6.817   5.193   6.104
24839WAT     H274760   6.967   5.209   6.166
24840WAT      O74761   1.845   0.897   1.180
24840WAT     H174762   1.892   0.888   1.268
24840WAT     H274763   1.751   0.927   1.195
24841WAT      O74764   6.547   1.382   6.319
24841WAT     H174765   6.542   1.363   6.220
24841WAT     H274766   6.462   1.426   6.348
24842WAT      O74767   4.308   9.549   7.804
24842WAT     H174768   4.267   9.498   7.879
24842WAT     H274769   4.344   9.636   7.839
24843WAT      O74770   9.802   3.500   5.883
24843WAT     H174771   9.795   3.558   5.964
24843WAT     H274772   9.755   3.414   5.899
24844WAT      O74773   4.032   2.585   5.360
24844WAT     H174774   4.076   2.639   5.432
24844WAT     H274775   3.993   2.646   5.291
24845WAT      O74776   8.743   8.898   6.957
24845WAT     H174777   8.772   8.957   6.882
24845WAT     H274778   8.721   8.954   7.037
24846WAT      O74779   9.731   3.883   2.665
24846WAT     H174780   9.660   3.905   2.598
24846WAT     H274781   9.809   3.842   2.619
24847WAT      O74782   1.445   3.591   6.428
24847WAT     H174783   1.539   3.614   6.451
24847WAT     H274784   1.427   3.495   6.447
24848WAT      O74785   5.620   7.552   2.626
24848WAT     H174786   5.718   7.555   2.647
24848WAT     H274787   5.568   7.562   2.711
24849WAT      O74788   6.050   6.297   2.227
24849WAT     H174789   5.991   6.350   2.166
24849WAT     H274790   6.114   6.244   2.172
24850WAT      O74791   4.069   1.919   0.354
24850WAT     H174792   3.996   1.890   0.417
24850WAT     H274793   4.092   2.015   0.371
24851WAT      O74794   4.206   2.770   4.384
24851WAT     H174795   4.299   2.779   4.420
24851WAT     H274796   4.203   2.695   4.318
24852WAT      O74797   4.090   8.308   5.987
24852WAT     H174798   4.105   8.209   5.983
24852WAT     H274799   4.133   8.345   6.069
24853WAT      O74800   6.936   2.955   2.515
24853WAT     H174801   6.859   2.961   2.451
24853WAT     H274802   7.016   2.917   2.468
24854WAT      O74803   3.313   0.203   2.052
24854WAT     H174804   3.326   0.103   2.051
24854WAT     H274805   3.402   0.248   2.040
24855WAT      O74806   7.931   6.647   4.538
24855WAT     H174807   7.847   6.659   4.485
24855WAT     H274808   7.994   6.722   4.518
24856WAT      O74809   1.710   9.340   7.769
24856WAT     H174810   1.798   9.342   7.816
24856WAT     H274811   1.691   9.247   7.737
24857WAT      O74812   2.634   2.571   1.042
24857WAT     H174813   2.573   2.514   1.097
24857WAT     H274814   2.637   2.663   1.080
24858WAT      O74815   2.361   7.766   6.895
24858WAT     H174816   2.430   7.777   6.966
24858WAT     H274817   2.406   7.768   6.805
24859WAT      O74818   4.287   5.028   0.207
24859WAT     H174819   4.342   5.112   0.208
24859WAT     H274820   4.285   4.989   0.299
24860WAT      O74821   0.780   6.168   6.478
24860WAT     H174822   0.806   6.176   6.382
24860WAT     H274823   0.860   6.187   6.535
24861WAT      O74824   8.931   8.896   5.332
24861WAT     H174825   8.975   8.952   5.263
24861WAT     H274826   8.995   8.826   5.365
24862WAT      O74827   3.742   4.128   3.442
24862WAT     H174828   3.668   4.195   3.444
24862WAT     H274829   3.794   4.133   3.528
24863WAT      O74830   4.915   8.493   2.632
24863WAT     H174831   4.915   8.397   2.659
24863WAT     H274832   4.821   8.524   2.617
24864WAT      O74833   6.945   5.756   3.339
24864WAT     H174834   6.923   5.664   3.308
24864WAT     H274835   6.870   5.818   3.313
24865WAT      O74836   6.768   7.842   1.044
24865WAT     H174837   6.836   7.888   1.101
24865WAT     H274838   6.765   7.744   1.067
24866WAT      O74839   5.999   5.201   8.784
24866WAT     H174840   6.057   5.215   8.704
24866WAT     H274841   5.959   5.109   8.780
24867WAT      O74842   8.985   6.509   3.966
24867WAT     H174843   9.063   6.501   4.028
24867WAT     H274844   8.949   6.602   3.970
24868WAT      O74845   6.314   3.829   1.261
24868WAT     H174846   6.316   3.898   1.333
24868WAT     H274847   6.291   3.740   1.300
24869WAT      O74848   0.612   7.311   3.600
24869WAT     H174849   0.674   7.364   3.658
24869WAT     H274850   0.635   7.328   3.504
24870WAT      O74851   3.641   3.660   8.277
24870WAT     H174852   3.716   3.714   8.241
24870WAT     H274853   3.645   3.567   8.240
24871WAT      O74854   6.275   8.336   2.379
24871WAT     H174855   6.215   8.410   2.351
24871WAT     H274856   6.271   8.326   2.479
24872WAT      O74857   9.645   7.070   8.144
24872WAT     H174858   9.647   7.162   8.104
24872WAT     H274859   9.646   7.078   8.244
24873WAT      O74860   5.185   8.768   3.567
24873WAT     H174861   5.192   8.861   3.532
24873WAT     H274862   5.240   8.759   3.650
24874WAT      O74863   7.921   5.778   9.091
24874WAT     H174864   7.981   5.825   9.157
24874WAT     H274865   7.827   5.806   9.108
24875WAT      O74866   4.308   2.983   9.867
24875WAT     H174867   4.346   3.075   9.859
24875WAT     H274868   4.382   2.917   9.877
24876WAT      O74869   8.570   0.224   4.867
24876WAT     H174870   8.544   0.316   4.895
24876WAT     H274871   8.657   0.227   4.819
24877WAT      O74872   3.215   4.239   3.955
24877WAT     H174873   3.181   4.173   3.889
24877WAT     H274874   3.140   4.298   3.985
24878WAT      O74875   7.566   5.699   8.641
24878WAT     H174876   7.578   5.612   8.689
24878WAT     H274877   7.618   5.770   8.689
24879WAT      O74878   9.251   4.986   0.792
24879WAT     H174879   9.309   5.067   0.787
24879WAT     H274880   9.279   4.920   0.722
24880WAT      O74881   8.355   5.691   8.343
24880WAT     H174882   8.308   5.639   8.414
24880WAT     H274883   8.444   5.649   8.325
24881WAT      O74884   1.795   1.204   2.935
24881WAT     H174885   1.772   1.178   2.841
24881WAT     H274886   1.833   1.297   2.936
24882WAT      O74887   9.158   4.638   8.193
24882WAT     H174888   9.064   4.646   8.161
24882WAT     H274889   9.164   4.565   8.262
24883WAT      O74890   6.151   4.134   2.449
24883WAT     H174891   6.223   4.189   2.407
24883WAT     H274892   6.099   4.087   2.378
24884WAT      O74893   0.308   5.694   0.411
24884WAT     H174894   0.215   5.728   0.418
24884WAT     H274895   0.307   5.599   0.380
24885WAT      O74896   2.622   3.618   1.056
24885WAT     H174897   2.658   3.619   1.149
24885WAT     H274898   2.643   3.706   1.012
24886WAT      O74899   8.346   9.680   7.072
24886WAT     H174900   8.375   9.613   7.141
24886WAT     H274901   8.297   9.754   7.117
24887WAT      O74902   5.320   4.055   8.879
24887WAT     H174903   5.381   4.092   8.809
24887WAT     H274904   5.274   4.130   8.927
24888WAT      O74905   9.865   0.671   2.839
24888WAT     H174906   9.912   0.587   2.813
24888WAT     H274907   9.835   0.665   2.934
24889WAT      O74908   0.328   0.559   5.879
24889WAT     H174909   0.390   0.590   5.807
24889WAT     H274910   0.234   0.569   5.849
24890WAT      O74911   8.310   3.528   6.651
24890WAT     H174912   8.234   3.541   6.586
24890WAT     H274913   8.287   3.572   6.738
24891WAT      O74914   8.721   8.521   8.198
24891WAT     H174915   8.663   8.451   8.156
24891WAT     H274916   8.677   8.610   8.188
24892WAT      O74917   1.339   4.376   2.885
24892WAT     H174918   1.307   4.305   2.947
24892WAT     H274919   1.419   4.422   2.924
24893WAT      O74920   0.956   1.545   5.345
24893WAT     H174921   0.996   1.473   5.289
24893WAT     H274922   1.002   1.550   5.433
24894WAT      O74923   1.844   7.423   3.923
24894WAT     H174924   1.875   7.382   3.838
24894WAT     H274925   1.766   7.372   3.959
24895WAT      O74926   7.032   1.121   3.098
24895WAT     H174927   7.075   1.034   3.124
24895WAT     H274928   7.100   1.194   3.103
24896WAT      O74929   9.847   5.367   3.383
24896WAT     H174930   9.807   5.368   3.291
24896WAT     H274931   9.779   5.331   3.448
24897WAT      O74932   7.312   9.163   7.813
24897WAT     H174933   7.261   9.077   7.815
24897WAT     H274934   7.353   9.176   7.723
24898WAT      O74935   2.985   3.265   6.064
24898WAT     H174936   3.024   3.319   6.139
24898WAT     H274937   3.028   3.175   6.062
24899WAT      O74938   9.516   5.936   5.901
24899WAT     H174939   9.527   6.035   5.906
24899WAT     H274940   9.605   5.892   5.911
24900WAT      O74941   0.670   8.060   5.678
24900WAT     H174942   0.767   8.052   5.699
24900WAT     H274943   0.645   7.992   5.609
24901WAT      O74944   6.946   1.489   7.466
24901WAT     H174945   6.968   1.567   7.407
24901WAT     H274946   7.025   1.427   7.471
24902WAT      O74947   1.798   9.545   3.969
24902WAT     H174948   1.800   9.491   3.885
24902WAT     H274949   1.765   9.489   4.045
24903WAT      O74950   7.608   2.509   3.138
24903WAT     H174951   7.568   2.527   3.048
24903WAT     H274952   7.536   2.508   3.207
24904WAT      O74953   7.289   4.744   8.690
24904WAT     H174954   7.380   4.734   8.650
24904WAT     H274955   7.260   4.840   8.683
24905WAT      O74956   0.160   5.371   7.405
24905WAT     H174957   0.070   5.362   7.446
24905WAT     H274958   0.222   5.305   7.446
24906WAT      O74959   4.285   6.841   5.606
24906WAT     H174960   4.207   6.815   5.664
24906WAT     H274961   4.364   6.860   5.664
24907WAT      O74962   2.113   2.626   5.312
24907WAT     H174963   2.132   2.709   5.259
24907WAT     H274964   2.055   2.565   5.259
24908WAT      O74965   8.137   3.560   5.143
24908WAT     H174966   8.214   3.544   5.081
24908WAT     H274967   8.051   3.554   5.093
24909WAT      O74968   0.747   3.522   5.937
24909WAT     H174969   0.733   3.620   5.947
24909WAT     H274970   0.844   3.502   5.926
24910WAT      O74971   1.264   8.372   5.924
24910WAT     H174972   1.359   8.391   5.946
24910WAT     H274973   1.229   8.442   5.862
24911WAT      O74974   1.166   5.558   9.442
24911WAT     H174975   1.067   5.554   9.453
24911WAT     H274976   1.193   5.648   9.408
24912WAT      O74977   1.214   3.232   9.892
24912WAT     H174978   1.247   3.210   9.800
24912WAT     H274979   1.245   3.162   9.956
24913WAT      O74980   3.570   7.741   2.504
24913WAT     H174981   3.542   7.815   2.564
24913WAT     H274982   3.517   7.658   2.524
24914WAT      O74983   2.267   3.104   7.334
24914WAT     H174984   2.177   3.117   7.376
24914WAT     H274985   2.288   3.183   7.276
24915WAT      O74986   0.841   9.844   9.444
24915WAT     H174987   0.844   9.871   9.348
24915WAT     H274988   0.821   9.746   9.451
24916WAT      O74989   3.321   4.903   8.162
24916WAT     H174990   3.253   4.840   8.126
24916WAT     H274991   3.411   4.879   8.125
24917WAT      O74992   9.753   5.798   8.526
24917WAT     H174993   9.776   5.701   8.533
24917WAT     H274994   9.714   5.830   8.612
24918WAT      O74995   6.358   5.470   8.688
24918WAT     H174996   6.302   5.551   8.704
24918WAT     H274997   6.438   5.495   8.634
24919WAT      O74998   2.785   7.814   9.229
24919WAT     H174999   2.770   7.894   9.286
24919WAT     H275000   2.724   7.740   9.259
24920WAT      O75001   2.905   8.310   0.696
24920WAT     H175002   2.933   8.378   0.763
24920WAT     H275003   2.934   8.339   0.605
24921WAT      O75004   3.406   1.479   1.330
24921WAT     H175005   3.347   1.552   1.364
24921WAT     H275006   3.501   1.511   1.326
24922WAT      O75007   3.514   1.300   4.591
24922WAT     H175008   3.613   1.300   4.609
24922WAT     H275009   3.480   1.206   4.588
24923WAT      O75010   0.958   5.516   3.043
24923WAT     H175011   0.869   5.562   3.035
24923WAT     H275012   1.006   5.521   2.955
24924WAT      O75013   3.285   5.838   7.843
24924WAT     H175014   3.310   5.765   7.907
24924WAT     H275015   3.305   5.810   7.750
24925WAT      O75016   9.841   6.910   0.983
24925WAT     H175017   9.810   6.862   0.901
24925WAT     H275018   9.762   6.946   1.033
24926WAT      O75019   3.298   5.671   6.428
24926WAT     H175020   3.204   5.666   6.460
24926WAT     H275021   3.351   5.730   6.489
24927WAT      O75022   2.536   5.879   4.625
24927WAT     H175023   2.536   5.903   4.721
24927WAT     H275024   2.492   5.790   4.613
24928WAT      O75025   8.984   0.586   0.649
24928WAT     H175026   9.081   0.568   0.659
24928WAT     H275027   8.968   0.685   0.645
24929WAT      O75028   8.600   1.089   3.103
24929WAT     H175029   8.527   1.112   3.168
24929WAT     H275030   8.674   1.156   3.111
24930WAT      O75031   2.209   9.692   0.109
24930WAT     H175032   2.141   9.620   0.127
24930WAT     H275033   2.230   9.695   0.012
24931WAT      O75034   0.832   9.771   6.717
24931WAT     H175035   0.855   9.682   6.678
24931WAT     H275036   0.835   9.840   6.645
24932WAT      O75037   0.791   4.228   5.315
24932WAT     H175038   0.874   4.215   5.262
24932WAT     H275039   0.746   4.313   5.286
24933WAT      O75040   2.559   3.060   5.610
24933WAT     H175041   2.559   3.077   5.511
24933WAT     H275042   2.465   3.060   5.644
24934WAT      O75043   2.988   2.764   6.973
24934WAT     H175044   2.957   2.852   7.011
24934WAT     H275045   2.984   2.768   6.873
24935WAT      O75046   8.692   4.337   0.022
24935WAT     H175047   8.756   4.269   0.059
24935WAT     H275048   8.598   4.307   0.041
24936WAT      O75049   6.815   6.666   6.191
24936WAT     H175050   6.879   6.739   6.216
24936WAT     H275051   6.843   6.625   6.105
24937WAT      O75052   4.406   3.329   1.516
24937WAT     H175053   4.472   3.370   1.578
24937WAT     H275054   4.391   3.234   1.540
24938WAT      O75055   3.169   7.051   6.737
24938WAT     H175056   3.218   6.985   6.794
24938WAT     H275057   3.218   7.065   6.651
24939WAT      O75058   1.782   1.259   6.442
24939WAT     H175059   1.759   1.237   6.537
24939WAT     H275060   1.728   1.202   6.380
24940WAT      O75061   8.930   5.547   7.490
24940WAT     H175062   8.960   5.453   7.474
24940WAT     H275063   8.849   5.548   7.547
24941WAT      O75064   9.230   4.235   2.052
24941WAT     H175065   9.288   4.163   2.087
24941WAT     H275066   9.135   4.218   2.078
24942WAT      O75067   8.509   7.153   0.311
24942WAT     H175068   8.434   7.087   0.317
24942WAT     H275069   8.557   7.157   0.398
24943WAT      O75070   4.354   0.260   9.085
24943WAT     H175071   4.387   0.313   9.007
24943WAT     H275072   4.414   0.181   9.099
24944WAT      O75073   1.606   0.691   4.239
24944WAT     H175074   1.642   0.599   4.223
24944WAT     H275075   1.644   0.728   4.324
24945WAT      O75076   4.853   1.235   6.038
24945WAT     H175077   4.917   1.160   6.022
24945WAT     H275078   4.877   1.313   5.981
24946WAT      O75079   2.560   4.392   3.905
24946WAT     H175080   2.640   4.398   3.845
24946WAT     H275081   2.589   4.379   3.999
24947WAT      O75082   2.140   5.526   4.805
24947WAT     H175083   2.106   5.594   4.870
24947WAT     H275084   2.064   5.489   4.751
24948WAT      O75085   2.023   5.015   5.240
24948WAT     H175086   2.024   4.974   5.149
24948WAT     H275087   2.117   5.030   5.271
24949WAT      O75088   0.380   2.993   2.194
24949WAT     H175089   0.288   2.961   2.176
24949WAT     H275090   0.377   3.067   2.262
24950WAT      O75091   7.353   2.049   5.274
24950WAT     H175092   7.434   2.028   5.328
24950WAT     H275093   7.366   2.019   5.180
24951WAT      O75094   3.812   4.116   8.239
24951WAT     H175095   3.737   4.070   8.287
24951WAT     H275096   3.838   4.199   8.288
24952WAT      O75097   5.106   5.060   2.233
24952WAT     H175098   5.121   4.967   2.197
24952WAT     H275099   5.017   5.094   2.201
24953WAT      O75100   3.877   5.130   0.273
24953WAT     H175101   3.877   5.040   0.228
24953WAT     H275102   3.943   5.189   0.227
24954WAT      O75103   0.624   7.803   4.597
24954WAT     H175104   0.568   7.836   4.673
24954WAT     H275105   0.610   7.862   4.518
24955WAT      O75106   5.022   2.004   5.293
24955WAT     H175107   5.017   2.091   5.343
24955WAT     H275108   5.030   1.929   5.358
24956WAT      O75109   3.213   4.111   9.149
24956WAT     H175110   3.299   4.089   9.104
24956WAT     H275111   3.218   4.082   9.245
24957WAT      O75112   0.176   1.510   5.285
24957WAT     H175113   0.159   1.427   5.339
24957WAT     H275114   0.089   1.557   5.269
24958WAT      O75115   5.124   5.446   7.959
24958WAT     H175116   5.155   5.353   7.976
24958WAT     H275117   5.188   5.491   7.896
24959WAT      O75118   6.767   7.098   9.580
24959WAT     H175119   6.825   7.170   9.543
24959WAT     H275120   6.796   7.076   9.673
24960WAT      O75121   2.269   1.157   7.429
24960WAT     H175122   2.300   1.167   7.335
24960WAT     H275123   2.264   1.060   7.453
24961WAT      O75124   8.094   7.701   0.777
24961WAT     H175125   8.138   7.657   0.855
24961WAT     H275126   8.116   7.652   0.693
24962WAT      O75127   8.334   6.922   4.660
24962WAT     H175128   8.267   6.945   4.730
24962WAT     H275129   8.420   6.894   4.704
24963WAT      O75130   9.198   8.632   3.354
24963WAT     H175131   9.188   8.551   3.296
24963WAT     H275132   9.173   8.609   3.448
24964WAT      O75133   3.032   3.564   3.996
24964WAT     H175134   3.004   3.473   4.027
24964WAT     H275135   3.057   3.559   3.899
24965WAT      O75136   6.582   5.110   9.777
24965WAT     H175137   6.560   5.207   9.788
24965WAT     H275138   6.654   5.100   9.708
24966WAT      O75139   2.556   7.444   5.903
24966WAT     H175140   2.532   7.448   5.806
24966WAT     H275141   2.634   7.504   5.921
24967WAT      O75142   6.800   0.507   4.707
24967WAT     H175143   6.776   0.592   4.660
24967WAT     H275144   6.757   0.430   4.659
24968WAT      O75145   2.595   4.609   3.572
24968WAT     H175146   2.669   4.675   3.566
24968WAT     H275147   2.578   4.586   3.668
24969WAT      O75148   3.548   7.108   8.208
24969WAT     H175149   3.493   7.060   8.139
24969WAT     H275150   3.639   7.067   8.212
24970WAT      O75151   3.404   4.114   4.863
24970WAT     H175152   3.377   4.095   4.957
24970WAT     H275153   3.354   4.195   4.831
24971WAT      O75154   4.873   9.089   8.882
24971WAT     H175155   4.957   9.035   8.890
24971WAT     H275156   4.845   9.094   8.787
24972WAT      O75157   1.872   0.156   0.873
24972WAT     H175158   1.933   0.084   0.908
24972WAT     H275159   1.871   0.232   0.938
24973WAT      O75160   8.242   6.123   8.549
24973WAT     H175161   8.262   6.053   8.481
24973WAT     H275162   8.144   6.123   8.569
24974WAT      O75163   8.848   2.735   9.622
24974WAT     H175164   8.922   2.769   9.564
24974WAT     H275165   8.880   2.724   9.716
24975WAT      O75166   2.662   1.297   2.244
24975WAT     H175167   2.745   1.251   2.212
24975WAT     H275168   2.621   1.348   2.168
24976WAT      O75169   7.761   9.773   0.277
24976WAT     H175170   7.837   9.831   0.306
24976WAT     H275171   7.788   9.723   0.194
24977WAT      O75172   2.005   0.241   1.675
24977WAT     H175173   2.068   0.186   1.620
24977WAT     H275174   1.911   0.219   1.649
24978WAT      O75175   4.839   7.979   4.089
24978WAT     H175176   4.934   8.004   4.071
24978WAT     H275177   4.827   7.965   4.188
24979WAT      O75178   3.281   1.819   4.518
24979WAT     H175179   3.250   1.797   4.425
24979WAT     H275180   3.355   1.887   4.513
24980WAT      O75181   7.452   8.490   4.299
24980WAT     H175182   7.536   8.530   4.336
24980WAT     H275183   7.417   8.549   4.226
24981WAT      O75184   2.631   5.801   7.194
24981WAT     H175185   2.606   5.818   7.099
24981WAT     H275186   2.650   5.704   7.207
24982WAT      O75187   3.608   1.878   9.275
24982WAT     H175188   3.530   1.850   9.219
24982WAT     H275189   3.655   1.954   9.231
24983WAT      O75190   7.531   6.343   7.775
24983WAT     H175191   7.605   6.403   7.745
24983WAT     H275192   7.492   6.378   7.860
24984WAT      O75193   3.801   7.428   6.073
24984WAT     H175194   3.866   7.372   6.123
24984WAT     H275195   3.785   7.389   5.982
24985WAT      O75196   1.644   0.129   3.437
24985WAT     H175197   1.584   0.194   3.392
24985WAT     H275198   1.737   0.165   3.440
24986WAT      O75199   8.471   7.564   2.150
24986WAT     H175200   8.453   7.534   2.244
24986WAT     H275201   8.501   7.485   2.095
24987WAT      O75202   5.297   8.411   5.987
24987WAT     H175203   5.385   8.446   5.955
24987WAT     H275204   5.313   8.330   6.044
24988WAT      O75205   3.925   0.249   6.593
24988WAT     H175206   3.959   0.238   6.686
24988WAT     H275207   3.877   0.165   6.565
24989WAT      O75208   0.513   4.281   8.712
24989WAT     H175209   0.416   4.275   8.737
24989WAT     H275210   0.569   4.239   8.783
24990WAT      O75211   6.121   0.451   3.208
24990WAT     H175212   6.032   0.422   3.244
24990WAT     H275213   6.193   0.394   3.246
24991WAT      O75214   8.865   5.562   8.965
24991WAT     H175215   8.909   5.477   8.935
24991WAT     H275216   8.812   5.545   9.048
24992WAT      O75217   5.461   0.475   6.293
24992WAT     H175218   5.423   0.386   6.268
24992WAT     H275219   5.475   0.479   6.392
24993WAT      O75220   0.166   4.298   7.606
24993WAT     H175221   0.180   4.308   7.705
24993WAT     H275222   0.071   4.273   7.588
24994WAT      O75223   8.621   9.783   2.784
24994WAT     H175224   8.691   9.715   2.806
24994WAT     H275225   8.661   9.855   2.728
24995WAT      O75226   2.662   2.522   0.775
24995WAT     H175227   2.656   2.537   0.874
24995WAT     H275228   2.707   2.601   0.732
24996WAT      O75229   3.824   9.140   0.800
24996WAT     H175230   3.780   9.143   0.710
24996WAT     H275231   3.917   9.178   0.792
24997WAT      O75232   4.404   4.676   9.283
24997WAT     H175233   4.307   4.656   9.298
24997WAT     H275234   4.459   4.603   9.321
24998WAT      O75235   0.111   1.644   1.484
24998WAT     H175236   0.085   1.633   1.580
24998WAT     H275237   0.211   1.653   1.477
24999WAT      O75238   9.890   9.140   4.202
24999WAT     H175239   9.879   9.222   4.258
24999WAT     H275240   9.817   9.136   4.134
25000WAT      O75241   2.023   8.424   0.233
25000WAT     H175242   1.966   8.478   0.296
25000WAT     H275243   1.966   8.359   0.184
25001WAT      O75244   4.476   8.412   4.337
25001WAT     H175245   4.523   8.465   4.266
25001WAT     H275246   4.457   8.320   4.302
25002WAT      O75247   0.734   3.031   3.976
25002WAT     H175248   0.779   3.035   4.066
25002WAT     H275249   0.657   2.967   3.979
25003WAT      O75250   0.871   5.840   8.669
25003WAT     H175251   0.885   5.900   8.590
25003WAT     H275252   0.900   5.887   8.752
25004WAT      O75253   2.868   7.322   5.489
25004WAT     H175254   2.886   7.419   5.471
25004WAT     H275255   2.850   7.276   5.402
25005WAT      O75256   8.409   5.828   6.148
25005WAT     H175257   8.395   5.846   6.050
25005WAT     H275258   8.406   5.914   6.198
25006WAT      O75259   7.406   0.145   2.836
25006WAT     H175260   7.393   0.109   2.744
25006WAT     H275261   7.326   0.199   2.863
25007WAT      O75262   7.458   1.229   3.842
25007WAT     H175263   7.534   1.179   3.883
25007WAT     H275264   7.382   1.167   3.826
25008WAT      O75265   3.880   7.376   7.188
25008WAT     H175266   3.895   7.278   7.173
25008WAT     H275267   3.909   7.401   7.280
25009WAT      O75268   5.584   6.499   4.448
25009WAT     H175269   5.649   6.562   4.405
25009WAT     H275270   5.604   6.405   4.420
25010WAT      O75271   0.146   6.227   3.534
25010WAT     H175272   0.118   6.320   3.557
25010WAT     H275273   0.166   6.177   3.618
25011WAT      O75274   3.815   2.979   9.296
25011WAT     H175275   3.756   2.996   9.217
25011WAT     H275276   3.833   2.881   9.304
25012WAT      O75277   8.941   8.731   6.226
25012WAT     H175278   9.012   8.802   6.232
25012WAT     H275279   8.897   8.720   6.316
25013WAT      O75280   9.552   1.218   4.439
25013WAT     H175281   9.637   1.257   4.404
25013WAT     H275282   9.567   1.184   4.532
25014WAT      O75283   8.891   0.752   0.425
25014WAT     H175284   8.970   0.791   0.472
25014WAT     H275285   8.914   0.662   0.388
25015WAT      O75286   3.329   6.397   0.354
25015WAT     H175287   3.231   6.380   0.365
25015WAT     H275288   3.365   6.342   0.279
25016WAT      O75289   5.027   4.299   6.112
25016WAT     H175290   5.065   4.262   6.027
25016WAT     H275291   5.019   4.225   6.179
25017WAT      O75292   8.203   9.375   4.542
25017WAT     H175293   8.157   9.458   4.575
25017WAT     H275294   8.271   9.400   4.473
25018WAT      O75295   6.558   8.994   5.166
25018WAT     H175296   6.536   9.083   5.125
25018WAT     H275297   6.569   9.005   5.265
25019WAT      O75298   1.800   7.195   5.984
25019WAT     H175299   1.789   7.171   5.887
25019WAT     H275300   1.725   7.157   6.037
25020WAT      O75301   2.763   9.474   0.924
25020WAT     H175302   2.793   9.524   1.005
25020WAT     H275303   2.703   9.532   0.869
25021WAT      O75304   8.318   1.382   1.965
25021WAT     H175305   8.314   1.480   1.984
25021WAT     H275306   8.227   1.342   1.979
25022WAT      O75307   6.548   4.829   5.472
25022WAT     H175308   6.472   4.802   5.413
25022WAT     H275309   6.513   4.859   5.560
25023WAT      O75310   9.343   2.652   4.043
25023WAT     H175311   9.395   2.668   3.958
25023WAT     H275312   9.266   2.592   4.024
25024WAT      O75313   8.045   4.903   8.012
25024WAT     H175314   7.980   4.846   7.963
25024WAT     H275315   8.023   4.999   7.997
25025WAT      O75316   3.368   6.742   5.949
25025WAT     H175317   3.439   6.796   5.994
25025WAT     H275318   3.278   6.774   5.979
25026WAT      O75319   0.034   0.729   3.579
25026WAT     H175320   0.074   0.663   3.643
25026WAT     H275321   0.008   0.811   3.629
25027WAT      O75322   5.989   8.409   0.879
25027WAT     H175323   6.059   8.480   0.879
25027WAT     H275324   6.021   8.330   0.827
25028WAT      O75325   8.998   6.117   2.209
25028WAT     H175326   9.064   6.148   2.141
25028WAT     H275327   8.915   6.172   2.203
25029WAT      O75328   5.088   9.569   5.783
25029WAT     H175329   5.173   9.549   5.830
25029WAT     H275330   5.022   9.606   5.848
25030WAT      O75331   8.594   3.421   8.972
25030WAT     H175332   8.594   3.500   9.033
25030WAT     H275333   8.675   3.424   8.914
25031WAT      O75334   5.122   4.677   4.190
25031WAT     H175335   5.213   4.641   4.168
25031WAT     H275336   5.080   4.714   4.107
25032WAT      O75337   7.092   9.309   7.649
25032WAT     H175338   7.081   9.210   7.639
25032WAT     H275339   7.156   9.343   7.580
25033WAT      O75340   3.713   6.317   4.842
25033WAT     H175341   3.749   6.252   4.775
25033WAT     H275342   3.657   6.386   4.794
25034WAT      O75343   1.038   8.324   4.668
25034WAT     H175344   1.062   8.260   4.595
25034WAT     H275345   1.095   8.304   4.748
25035WAT      O75346   0.760   7.373   7.681
25035WAT     H175347   0.736   7.350   7.587
25035WAT     H275348   0.840   7.432   7.682
25036WAT      O75349   8.575   2.871   3.799
25036WAT     H175350   8.574   2.950   3.861
25036WAT     H275351   8.484   2.829   3.798
25037WAT      O75352   2.027   0.183   5.235
25037WAT     H175353   2.065   0.180   5.142
25037WAT     H275354   2.067   0.108   5.289
25038WAT      O75355   0.452   9.138   1.504
25038WAT     H175356   0.520   9.065   1.489
25038WAT     H275357   0.436   9.149   1.602
25039WAT      O75358   2.429   0.340   3.765
25039WAT     H175359   2.408   0.410   3.697
25039WAT     H275360   2.431   0.250   3.720
25040WAT      O75361   2.723   4.375   5.282
25040WAT     H175362   2.658   4.319   5.232
25040WAT     H275363   2.761   4.445   5.221
25041WAT      O75364   7.337   1.560   7.624
25041WAT     H175365   7.378   1.486   7.678
25041WAT     H275366   7.259   1.598   7.673
25042WAT      O75367   8.199   8.049   2.921
25042WAT     H175368   8.163   8.124   2.977
25042WAT     H275369   8.126   7.983   2.904
25043WAT      O75370   2.885   2.447   0.404
25043WAT     H175371   2.944   2.371   0.375
25043WAT     H275372   2.824   2.415   0.476
25044WAT      O75373   8.691   1.674   7.906
25044WAT     H175374   8.704   1.705   7.811
25044WAT     H275375   8.663   1.578   7.907
25045WAT      O75376   6.293   1.485   8.225
25045WAT     H175377   6.250   1.447   8.143
25045WAT     H275378   6.225   1.496   8.297
25046WAT      O75379   2.377   3.466   0.044
25046WAT     H175380   2.466   3.434   0.080
25046WAT     H275381   2.387   3.558   0.007
25047WAT      O75382   2.262   4.472   5.728
25047WAT     H175383   2.162   4.466   5.718
25047WAT     H275384   2.287   4.566   5.752
25048WAT      O75385   1.335   0.811   5.737
25048WAT     H175386   1.402   0.825   5.810
25048WAT     H275387   1.274   0.890   5.732
25049WAT      O75388   7.719   1.373   9.123
25049WAT     H175389   7.713   1.304   9.195
25049WAT     H275390   7.777   1.449   9.154
25050WAT      O75391   6.648   6.835   8.831
25050WAT     H175392   6.725   6.886   8.792
25050WAT     H275393   6.680   6.749   8.870
25051WAT      O75394   7.684   2.527   9.777
25051WAT     H175395   7.736   2.591   9.834
25051WAT     H275396   7.621   2.578   9.719
25052WAT      O75397   7.986   7.718   7.932
25052WAT     H175398   7.902   7.733   7.985
25052WAT     H275399   8.047   7.797   7.944
25053WAT      O75400   0.897   4.251   7.014
25053WAT     H175401   0.981   4.235   7.065
25053WAT     H275402   0.829   4.182   7.040
25054WAT      O75403   9.592   1.785   1.410
25054WAT     H175404   9.626   1.764   1.318
25054WAT     H275405   9.655   1.848   1.455
25055WAT      O75406   0.975   0.155   9.634
25055WAT     H175407   0.925   0.095   9.571
25055WAT     H275408   0.936   0.147   9.726
25056WAT      O75409   3.661   3.212   0.882
25056WAT     H175410   3.579   3.233   0.935
25056WAT     H275411   3.641   3.222   0.784
25057WAT      O75412   9.795   3.402   4.353
25057WAT     H175413   9.738   3.389   4.434
25057WAT     H275414   9.865   3.471   4.372
25058WAT      O75415   2.104   9.478   1.275
25058WAT     H175416   2.028   9.539   1.255
25058WAT     H275417   2.150   9.453   1.189
25059WAT      O75418   5.588   5.994   3.875
25059WAT     H175419   5.490   5.990   3.898
25059WAT     H275420   5.622   6.086   3.893
25060WAT      O75421   8.680   3.644   1.544
25060WAT     H175422   8.667   3.725   1.601
25060WAT     H275423   8.628   3.567   1.581
25061WAT      O75424   2.007   6.467   6.718
25061WAT     H175425   2.001   6.446   6.620
25061WAT     H275426   2.082   6.531   6.734
25062WAT      O75427   7.588   5.211   4.118
25062WAT     H175428   7.634   5.172   4.038
25062WAT     H275429   7.628   5.173   4.201
25063WAT      O75430   9.721   2.836   9.055
25063WAT     H175431   9.685   2.897   9.125
25063WAT     H275432   9.683   2.745   9.067
25064WAT      O75433   9.318   1.691   6.150
25064WAT     H175434   9.325   1.762   6.220
25064WAT     H275435   9.403   1.688   6.097
25065WAT      O75436   8.415   2.324   0.819
25065WAT     H175437   8.426   2.246   0.882
25065WAT     H275438   8.440   2.408   0.866
25066WAT      O75439   6.430   7.111   5.642
25066WAT     H175440   6.483   7.186   5.602
25066WAT     H275441   6.450   7.026   5.592
25067WAT      O75442   7.707   5.441   1.189
25067WAT     H175443   7.668   5.437   1.097
25067WAT     H275444   7.783   5.506   1.190
25068WAT      O75445   5.390   5.794   6.520
25068WAT     H175446   5.450   5.784   6.600
25068WAT     H275447   5.402   5.715   6.460
25069WAT      O75448   0.512   4.338   6.200
25069WAT     H175449   0.496   4.354   6.102
25069WAT     H275450   0.488   4.420   6.251
25070WAT      O75451   2.437   4.566   5.106
25070WAT     H175452   2.525   4.610   5.090
25070WAT     H275453   2.369   4.604   5.044
25071WAT      O75454   3.094   0.220   4.975
25071WAT     H175455   3.157   0.246   5.048
25071WAT     H275456   3.004   0.260   4.992
25072WAT      O75457   0.554   0.643   6.652
25072WAT     H175458   0.481   0.694   6.698
25072WAT     H275459   0.639   0.652   6.704
25073WAT      O75460   7.851   2.665   8.182
25073WAT     H175461   7.877   2.663   8.085
25073WAT     H275462   7.757   2.698   8.190
25074WAT      O75463   4.899   2.229   6.080
25074WAT     H175464   4.988   2.187   6.098
25074WAT     H275465   4.858   2.260   6.166
25075WAT      O75466   3.369   8.179   8.883
25075WAT     H175467   3.322   8.092   8.901
25075WAT     H275468   3.302   8.254   8.890
25076WAT      O75469   6.553   0.378   3.496
25076WAT     H175470   6.476   0.387   3.560
25076WAT     H275471   6.589   0.285   3.500
25077WAT      O75472   7.009   6.627   1.879
25077WAT     H175473   7.089   6.686   1.891
25077WAT     H275474   7.039   6.533   1.864
25078WAT      O75475   8.639   2.042   4.163
25078WAT     H175476   8.686   2.076   4.081
25078WAT     H275477   8.617   1.946   4.151
25079WAT      O75478   4.972   6.093   5.421
25079WAT     H175479   5.064   6.094   5.460
25079WAT     H275480   4.968   6.024   5.349
25080WAT      O75481   2.016   8.704   8.633
25080WAT     H175482   2.068   8.620   8.647
25080WAT     H275483   2.080   8.779   8.615
25081WAT      O75484   6.724   8.467   4.477
25081WAT     H175485   6.632   8.459   4.516
25081WAT     H275486   6.717   8.480   4.378
25082WAT      O75487   5.127   7.561   7.286
25082WAT     H175488   5.067   7.482   7.281
25082WAT     H275489   5.214   7.540   7.241
25083WAT      O75490   9.646   1.908   7.137
25083WAT     H175491   9.682   1.880   7.226
25083WAT     H275492   9.721   1.936   7.078
25084WAT      O75493   1.735   7.177   4.697
25084WAT     H175494   1.650   7.136   4.665
25084WAT     H275495   1.760   7.139   4.786
25085WAT      O75496   4.082   8.612   1.992
25085WAT     H175497   3.993   8.607   2.038
25085WAT     H275498   4.091   8.702   1.949
25086WAT      O75499   3.382   1.605   2.864
25086WAT     H175500   3.365   1.672   2.937
25086WAT     H275501   3.343   1.639   2.778
25087WAT      O75502   2.401   4.307   9.868
25087WAT     H175503   2.432   4.368   9.941
25087WAT     H275504   2.302   4.314   9.859
25088WAT      O75505   4.479   7.847   1.047
25088WAT     H175506   4.478   7.864   0.949
25088WAT     H275507   4.502   7.751   1.064
25089WAT      O75508   6.569   6.047   1.441
25089WAT     H175509   6.604   5.971   1.385
25089WAT     H275510   6.481   6.021   1.481
25090WAT      O75511   1.201   3.208   7.419
25090WAT     H175512   1.112   3.226   7.377
25090WAT     H275513   1.260   3.159   7.355
25091WAT      O75514   3.937   0.634   6.488
25091WAT     H175515   3.925   0.702   6.561
25091WAT     H275516   3.855   0.578   6.481
25092WAT      O75517   8.174   1.375   6.362
25092WAT     H175518   8.263   1.337   6.338
25092WAT     H275519   8.134   1.419   6.281
25093WAT      O75520   3.916   4.175   2.926
25093WAT     H175521   4.012   4.151   2.919
25093WAT     H275522   3.900   4.265   2.885
25094WAT      O75523   8.014   5.989   8.363
25094WAT     H175524   7.974   5.998   8.272
25094WAT     H275525   7.961   6.042   8.429
25095WAT      O75526   4.122   9.035   1.009
25095WAT     H175527   4.176   8.977   1.070
25095WAT     H275528   4.026   9.005   1.010
25096WAT      O75529   7.799   8.557   4.231
25096WAT     H175530   7.817   8.467   4.193
25096WAT     H275531   7.795   8.624   4.157
25097WAT      O75532   5.993   6.487   5.754
25097WAT     H175533   5.979   6.391   5.776
25097WAT     H275534   6.075   6.521   5.801
25098WAT      O75535   0.602   6.964   3.335
25098WAT     H175536   0.679   6.958   3.273
25098WAT     H275537   0.517   6.976   3.283
25099WAT      O75538   4.386   1.228   5.911
25099WAT     H175539   4.331   1.300   5.954
25099WAT     H275540   4.330   1.146   5.899
25100WAT      O75541   6.135   3.079   2.960
25100WAT     H175542   6.159   3.172   2.989
25100WAT     H275543   6.036   3.073   2.944
25101WAT      O75544   1.006   6.017   5.839
25101WAT     H175545   1.023   5.963   5.757
25101WAT     H275546   1.023   6.114   5.819
25102WAT      O75547   2.354   1.180   7.182
25102WAT     H175548   2.339   1.103   7.120
25102WAT     H275549   2.435   1.232   7.152
25103WAT      O75550   3.685   9.507   6.912
25103WAT     H175551   3.636   9.491   6.998
25103WAT     H275552   3.779   9.477   6.921
25104WAT      O75553   1.140   7.433   1.602
25104WAT     H175554   1.123   7.334   1.599
25104WAT     H275555   1.238   7.450   1.599
25105WAT      O75556   0.816   6.266   3.709
25105WAT     H175557   0.831   6.362   3.731
25105WAT     H275558   0.766   6.259   3.622
25106WAT      O75559   1.215   6.222   5.309
25106WAT     H175560   1.284   6.270   5.254
25106WAT     H275561   1.127   6.269   5.301
25107WAT      O75562   5.193   8.518   8.286
25107WAT     H175563   5.139   8.585   8.336
25107WAT     H275564   5.290   8.539   8.297
25108WAT      O75565   8.931   6.451   3.248
25108WAT     H175566   8.862   6.381   3.268
25108WAT     H275567   8.899   6.508   3.173
25109WAT      O75568   0.738   0.427   1.469
25109WAT     H175569   0.655   0.450   1.520
25109WAT     H275570   0.807   0.498   1.484
25110WAT      O75571   7.312   4.247   6.940
25110WAT     H175572   7.392   4.189   6.951
25110WAT     H275573   7.290   4.291   7.027
25111WAT      O75574   5.541   8.991   7.265
25111WAT     H175575   5.449   9.014   7.233
25111WAT     H275576   5.600   8.972   7.187
25112WAT      O75577   0.010   7.751   3.791
25112WAT     H175578  -0.061   7.820   3.785
25112WAT     H275579  -0.006   7.681   3.721
25113WAT      O75580   0.116   3.129   5.525
25113WAT     H175581   0.130   3.212   5.578
25113WAT     H275582   0.022   3.098   5.535
25114WAT      O75583   5.812   7.972   6.403
25114WAT     H175584   5.833   8.029   6.482
25114WAT     H275585   5.896   7.927   6.370
25115WAT      O75586   2.187   0.215   9.881
25115WAT     H175587   2.136   0.288   9.926
25115WAT     H275588   2.282   0.242   9.871
25116WAT      O75589   5.777   8.148   6.618
25116WAT     H175590   5.716   8.225   6.601
25116WAT     H275591   5.835   8.168   6.698
25117WAT      O75592   0.766   4.368   6.258
25117WAT     H175593   0.788   4.357   6.355
25117WAT     H275594   0.670   4.344   6.243
25118WAT      O75595   3.526   6.979   9.721
25118WAT     H175596   3.529   7.008   9.626
25118WAT     H275597   3.436   6.942   9.742
25119WAT      O75598   8.709   0.350   7.671
25119WAT     H175599   8.705   0.386   7.577
25119WAT     H275600   8.659   0.411   7.732
25120WAT      O75601   6.301   7.929   1.063
25120WAT     H175602   6.343   8.018   1.046
25120WAT     H275603   6.202   7.941   1.076
25121WAT      O75604   4.473   8.006   5.453
25121WAT     H175605   4.458   8.017   5.551
25121WAT     H275606   4.537   7.931   5.438
25122WAT      O75607   1.927   4.621   4.451
25122WAT     H175608   1.954   4.703   4.401
25122WAT     H275609   1.970   4.620   4.541
25123WAT      O75610   4.465   7.584   1.036
25123WAT     H175611   4.407   7.607   0.957
25123WAT     H275612   4.533   7.516   1.008
25124WAT      O75613   9.520   3.580   4.670
25124WAT     H175614   9.470   3.554   4.753
25124WAT     H275615   9.592   3.512   4.653
25125WAT      O75616   6.862   1.033   4.153
25125WAT     H175617   6.936   1.066   4.095
25125WAT     H275618   6.775   1.075   4.124
25126WAT      O75619   5.784   9.084   1.606
25126WAT     H175620   5.783   9.048   1.700
25126WAT     H275621   5.817   9.012   1.544
25127WAT      O75622   0.211   8.608   7.629
25127WAT     H175623   0.284   8.663   7.587
25127WAT     H275624   0.246   8.565   7.712
25128WAT      O75625   8.357   9.147   9.018
25128WAT     H175626   8.265   9.120   8.988
25128WAT     H275627   8.421   9.133   8.943
25129WAT      O75628   9.489   4.601   2.942
25129WAT     H175629   9.474   4.700   2.950
25129WAT     H275630   9.444   4.567   2.860
25130WAT      O75631   7.592   5.034   9.618
25130WAT     H175632   7.512   4.975   9.630
25130WAT     H275633   7.675   4.983   9.639
25131WAT      O75634   0.758   1.813   2.116
25131WAT     H175635   0.679   1.837   2.172
25131WAT     H275636   0.832   1.781   2.175
25132WAT      O75637   0.143   5.386   4.218
25132WAT     H175638   0.218   5.449   4.197
25132WAT     H275639   0.129   5.383   4.317
25133WAT      O75640   0.192   5.802   0.737
25133WAT     H175641   0.166   5.853   0.655
25133WAT     H275642   0.288   5.822   0.759
25134WAT      O75643   8.899   5.762   5.242
25134WAT     H175644   8.917   5.837   5.305
25134WAT     H275645   8.890   5.676   5.293
25135WAT      O75646   1.240   1.151   3.353
25135WAT     H175647   1.322   1.206   3.337
25135WAT     H275648   1.163   1.191   3.305
25136WAT      O75649   7.643   6.293   3.292
25136WAT     H175650   7.730   6.261   3.331
25136WAT     H275651   7.577   6.308   3.366
25137WAT      O75652   5.196   1.703   1.706
25137WAT     H175653   5.175   1.719   1.609
25137WAT     H275654   5.205   1.791   1.753
25138WAT      O75655   3.731   6.498   7.184
25138WAT     H175656   3.763   6.582   7.139
25138WAT     H275657   3.647   6.517   7.234
25139WAT      O75658   2.427   9.838   8.625
25139WAT     H175659   2.378   9.873   8.705
25139WAT     H275660   2.362   9.811   8.554
25140WAT      O75661   9.123   7.460   1.140
25140WAT     H175662   9.132   7.387   1.207
25140WAT     H275663   9.091   7.543   1.185
25141WAT      O75664   9.740   9.549   0.541
25141WAT     H175665   9.836   9.577   0.540
25141WAT     H275666   9.694   9.589   0.620
25142WAT      O75667   0.269   8.932   6.383
25142WAT     H175668   0.205   8.976   6.320
25142WAT     H275669   0.343   8.890   6.331
25143WAT      O75670   7.557   2.414   2.266
25143WAT     H175671   7.483   2.396   2.331
25143WAT     H275672   7.609   2.494   2.295
25144WAT      O75673   4.055   5.011   7.722
25144WAT     H175674   4.080   4.951   7.645
25144WAT     H275675   4.081   4.966   7.808
25145WAT      O75676   1.161   3.757   7.651
25145WAT     H175677   1.155   3.819   7.728
25145WAT     H275678   1.185   3.665   7.683
25146WAT      O75679   5.354   4.945   6.279
25146WAT     H175680   5.346   4.929   6.377
25146WAT     H275681   5.329   5.039   6.258
25147WAT      O75682   2.112   5.044   8.901
25147WAT     H175683   2.101   5.099   8.819
25147WAT     H275684   2.170   5.093   8.966
25148WAT      O75685   8.371   8.688   1.664
25148WAT     H175686   8.449   8.750   1.655
25148WAT     H275687   8.387   8.605   1.610
25149WAT      O75688   2.659   0.120   8.874
25149WAT     H175689   2.560   0.119   8.889
25149WAT     H275690   2.681   0.084   8.784
25150WAT      O75691   7.825   6.602   8.668
25150WAT     H175692   7.874   6.517   8.687
25150WAT     H275693   7.727   6.588   8.680
25151WAT      O75694   8.533   4.454   8.636
25151WAT     H175695   8.557   4.477   8.731
25151WAT     H275696   8.598   4.498   8.574
25152WAT      O75697   5.504   1.840   6.727
25152WAT     H175698   5.465   1.882   6.645
25152WAT     H275699   5.547   1.753   6.703
25153WAT      O75700   3.020   7.324   0.699
25153WAT     H175701   3.005   7.227   0.679
25153WAT     H275702   3.055   7.333   0.792
25154WAT      O75703   7.350   2.632   4.068
25154WAT     H175704   7.449   2.621   4.063
25154WAT     H275705   7.325   2.663   4.159
25155WAT      O75706   9.417   2.607   8.406
25155WAT     H175707   9.361   2.598   8.489
25155WAT     H275708   9.500   2.658   8.428
25156WAT      O75709   2.471   1.078   3.070
25156WAT     H175710   2.517   1.046   2.987
25156WAT     H275711   2.501   1.023   3.148
25157WAT      O75712   5.178   7.356   3.503
25157WAT     H175713   5.252   7.306   3.459
25157WAT     H275714   5.142   7.425   3.439
25158WAT      O75715   5.395   3.203   0.248
25158WAT     H175716   5.483   3.160   0.267
25158WAT     H275717   5.355   3.163   0.166
25159WAT      O75718   7.142   3.801   0.726
25159WAT     H175719   7.209   3.861   0.769
25159WAT     H275720   7.189   3.726   0.679
25160WAT      O75721   9.716   8.930   9.000
25160WAT     H175722   9.741   8.834   9.008
25160WAT     H275723   9.713   8.972   9.090
25161WAT      O75724   1.367   8.059   8.678
25161WAT     H175725   1.455   8.018   8.653
25161WAT     H275726   1.377   8.112   8.762
25162WAT      O75727   8.312   7.801   5.630
25162WAT     H175728   8.368   7.875   5.591
25162WAT     H275729   8.362   7.757   5.704
25163WAT      O75730   4.398   1.445   8.678
25163WAT     H175731   4.448   1.514   8.626
25163WAT     H275732   4.343   1.390   8.615
25164WAT      O75733   4.182   3.692   5.980
25164WAT     H175734   4.142   3.745   5.905
25164WAT     H275735   4.233   3.615   5.942
25165WAT      O75736   8.430   7.541   1.107
25165WAT     H175737   8.482   7.550   1.192
25165WAT     H275738   8.427   7.629   1.059
25166WAT      O75739   7.471   7.202   6.090
25166WAT     H175740   7.433   7.285   6.049
25166WAT     H275741   7.548   7.226   6.148
25167WAT      O75742   2.348   1.104   2.085
25167WAT     H175743   2.434   1.094   2.135
25167WAT     H275744   2.282   1.152   2.142
25168WAT      O75745   4.148   9.477   0.358
25168WAT     H175746   4.147   9.476   0.458
25168WAT     H275747   4.239   9.452   0.325
25169WAT      O75748   7.736   5.173   1.215
25169WAT     H175749   7.737   5.272   1.229
25169WAT     H275750   7.721   5.127   1.302
25170WAT      O75751   0.386   3.856   1.549
25170WAT     H175752   0.447   3.806   1.487
25170WAT     H275753   0.294   3.818   1.542
25171WAT      O75754   9.334   5.180   1.106
25171WAT     H175755   9.355   5.224   1.194
25171WAT     H275756   9.324   5.082   1.120
25172WAT      O75757   5.857   8.917   7.151
25172WAT     H175758   5.847   8.884   7.245
25172WAT     H275759   5.953   8.942   7.134
25173WAT      O75760   9.549   1.916   6.441
25173WAT     H175761   9.499   1.901   6.526
25173WAT     H275762   9.628   1.854   6.438
25174WAT      O75763   6.027   0.553   5.116
25174WAT     H175764   6.025   0.632   5.176
25174WAT     H275765   5.936   0.540   5.076
25175WAT      O75766   7.688   6.584   0.967
25175WAT     H175767   7.629   6.630   1.033
25175WAT     H275768   7.755   6.527   1.015
25176WAT      O75769   1.821   6.358   7.577
25176WAT     H175770   1.908   6.363   7.530
25176WAT     H275771   1.812   6.269   7.622
25177WAT      O75772   4.503   2.623   4.033
25177WAT     H175773   4.438   2.636   3.958
25177WAT     H275774   4.471   2.549   4.092
25178WAT      O75775   0.149   3.949   4.303
25178WAT     H175776   0.158   4.004   4.220
25178WAT     H275777   0.218   3.876   4.302
25179WAT      O75778   7.953   7.937   0.805
25179WAT     H175779   7.985   7.859   0.751
25179WAT     H275780   8.021   7.958   0.876
25180WAT      O75781   8.534   6.906   6.164
25180WAT     H175782   8.501   6.917   6.258
25180WAT     H275783   8.456   6.899   6.102
25181WAT      O75784   8.449   4.593   2.377
25181WAT     H175785   8.363   4.601   2.426
25181WAT     H275786   8.503   4.518   2.417
25182WAT      O75787   9.321   3.190   7.136
25182WAT     H175788   9.409   3.148   7.156
25182WAT     H275789   9.322   3.285   7.166
25183WAT      O75790   7.959   8.262   0.405
25183WAT     H175791   7.919   8.179   0.445
25183WAT     H275792   7.966   8.333   0.474
25184WAT      O75793   5.852   8.266   5.740
25184WAT     H175794   5.904   8.272   5.655
25184WAT     H275795   5.860   8.352   5.791
25185WAT      O75796   8.908   8.072   0.767
25185WAT     H175797   8.907   8.158   0.716
25185WAT     H275798   8.938   8.089   0.861
25186WAT      O75799   2.436   9.189   6.019
25186WAT     H175800   2.509   9.192   6.088
25186WAT     H275801   2.351   9.221   6.060
25187WAT      O75802   2.918   2.809   1.383
25187WAT     H175803   2.894   2.901   1.352
25187WAT     H275804   2.966   2.761   1.309
25188WAT      O75805   3.321   6.719   4.477
25188WAT     H175806   3.233   6.766   4.473
25188WAT     H275807   3.341   6.679   4.388
25189WAT      O75808   6.885   4.235   4.197
25189WAT     H175809   6.806   4.183   4.230
25189WAT     H275810   6.917   4.296   4.269
25190WAT      O75811   8.211   4.844   7.568
25190WAT     H175812   8.138   4.907   7.595
25190WAT     H275813   8.175   4.751   7.561
25191WAT      O75814   6.693   1.659   3.705
25191WAT     H175815   6.711   1.752   3.674
25191WAT     H275816   6.729   1.594   3.639
25192WAT      O75817   8.873   2.865   2.690
25192WAT     H175818   8.963   2.862   2.732
25192WAT     H275819   8.856   2.956   2.654
25193WAT      O75820   8.616   2.838   9.312
25193WAT     H175821   8.557   2.899   9.259
25193WAT     H275822   8.582   2.744   9.304
25194WAT      O75823   8.009   0.031   6.644
25194WAT     H175824   7.980  -0.035   6.575
25194WAT     H275825   8.013   0.122   6.602
25195WAT      O75826   7.038   7.879   4.334
25195WAT     H175827   6.961   7.910   4.390
25195WAT     H275828   7.054   7.781   4.349
25196WAT      O75829   1.725   3.629   3.160
25196WAT     H175830   1.628   3.635   3.181
25196WAT     H275831   1.749   3.699   3.092
25197WAT      O75832   8.118   4.146   6.630
25197WAT     H175833   8.199   4.192   6.666
25197WAT     H275834   8.140   4.051   6.610
25198WAT      O75835   3.411   3.088   5.328
25198WAT     H175836   3.429   3.101   5.230
25198WAT     H275837   3.497   3.069   5.375
25199WAT      O75838   2.490   2.402   1.185
25199WAT     H175839   2.484   2.313   1.141
25199WAT     H275840   2.548   2.395   1.267
25200WAT      O75841   5.678   3.385   0.369
25200WAT     H175842   5.686   3.303   0.425
25200WAT     H275843   5.625   3.454   0.419
25201WAT      O75844   8.507   2.112   9.296
25201WAT     H175845   8.577   2.053   9.257
25201WAT     H275846   8.420   2.094   9.251
25202WAT      O75847   3.507   1.580   5.515
25202WAT     H175848   3.607   1.579   5.522
25202WAT     H275849   3.467   1.591   5.606
25203WAT      O75850   1.291   5.316   1.275
25203WAT     H175851   1.299   5.248   1.202
25203WAT     H275852   1.352   5.393   1.255
25204WAT      O75853   6.047   2.579   0.071
25204WAT     H175854   6.012   2.487   0.089
25204WAT     H275855   6.144   2.573   0.046
25205WAT      O75856   3.127   8.603   0.113
25205WAT     H175857   3.145   8.642   0.203
25205WAT     H275858   3.186   8.647   0.045
25206WAT      O75859   8.472   8.676   3.049
25206WAT     H175860   8.375   8.675   3.022
25206WAT     H275861   8.519   8.748   2.999
25207WAT      O75862   6.925   6.969   8.339
25207WAT     H175863   6.989   7.024   8.284
25207WAT     H275864   6.964   6.878   8.353
25208WAT      O75865   3.738   0.594   2.703
25208WAT     H175866   3.697   0.506   2.725
25208WAT     H275867   3.742   0.650   2.786
25209WAT      O75868   5.906   0.423   4.765
25209WAT     H175869   5.861   0.468   4.842
25209WAT     H275870   5.844   0.422   4.686
25210WAT      O75871   5.932   9.230   9.193
25210WAT     H175872   5.988   9.262   9.269
25210WAT     H275873   5.861   9.169   9.227
25211WAT      O75874   2.186   2.487   6.727
25211WAT     H175875   2.165   2.390   6.712
25211WAT     H275876   2.272   2.510   6.682
25212WAT      O75877   7.919   5.126   1.023
25212WAT     H175878   8.007   5.163   1.055
25212WAT     H275879   7.849   5.143   1.093
25213WAT      O75880   6.507   6.933   6.193
25213WAT     H175881   6.491   6.926   6.095
25213WAT     H275882   6.429   6.895   6.242
25214WAT      O75883   7.953   6.189   8.558
25214WAT     H175884   7.982   6.274   8.603
25214WAT     H275885   7.887   6.142   8.616
25215WAT      O75886   5.132   1.645   6.566
25215WAT     H175887   5.097   1.715   6.628
25215WAT     H275888   5.123   1.677   6.472
25216WAT      O75889   0.878   2.097   1.462
25216WAT     H175890   0.817   2.171   1.434
25216WAT     H275891   0.928   2.124   1.544
25217WAT      O75892   6.601   1.270   2.188
25217WAT     H175893   6.701   1.269   2.178
25217WAT     H275894   6.572   1.359   2.221
25218WAT      O75895   4.594   3.443   6.042
25218WAT     H175896   4.561   3.407   5.955
25218WAT     H275897   4.530   3.418   6.115
25219WAT      O75898   7.618   9.010   3.092
25219WAT     H175899   7.542   9.075   3.085
25219WAT     H275900   7.689   9.049   3.151
25220WAT      O75901   1.099   8.154   7.728
25220WAT     H175902   1.165   8.089   7.690
25220WAT     H275903   1.028   8.104   7.778
25221WAT      O75904   7.400   4.733   4.235
25221WAT     H175905   7.496   4.706   4.235
25221WAT     H275906   7.391   4.821   4.187
25222WAT      O75907   5.828   2.290   1.153
25222WAT     H175908   5.762   2.334   1.091
25222WAT     H275909   5.883   2.361   1.197
25223WAT      O75910   5.282   3.822   4.861
25223WAT     H175911   5.378   3.851   4.861
25223WAT     H275912   5.258   3.788   4.770
25224WAT      O75913   8.174   9.149   4.671
25224WAT     H175914   8.183   9.241   4.632
25224WAT     H275915   8.127   9.090   4.605
25225WAT      O75916   5.872   7.231   8.279
25225WAT     H175917   5.895   7.296   8.352
25225WAT     H275918   5.780   7.195   8.295
25226WAT      O75919   0.200   6.620   0.138
25226WAT     H175920   0.185   6.522   0.125
25226WAT     H275921   0.280   6.634   0.197
25227WAT      O75922   2.270   9.354   1.083
25227WAT     H175923   2.252   9.261   1.054
25227WAT     H275924   2.365   9.361   1.115
25228WAT      O75925   8.712   7.978   2.971
25228WAT     H175926   8.716   8.075   2.995
25228WAT     H275927   8.620   7.956   2.938
25229WAT      O75928   9.204   1.902   4.361
25229WAT     H175929   9.265   1.981   4.369
25229WAT     H275930   9.136   1.919   4.290
25230WAT      O75931   2.819   0.276   5.041
25230WAT     H175932   2.759   0.247   4.967
25230WAT     H275933   2.823   0.204   5.110
25231WAT      O75934   9.031   2.577   1.993
25231WAT     H175935   9.039   2.488   1.949
25231WAT     H275936   9.044   2.649   1.925
25232WAT      O75937   9.751   8.447   5.968
25232WAT     H175938   9.735   8.353   5.938
25232WAT     H275939   9.663   8.493   5.979
25233WAT      O75940   6.089   7.304   1.390
25233WAT     H175941   6.123   7.284   1.298
25233WAT     H275942   6.023   7.379   1.385
25234WAT      O75943   0.724   6.335   9.700
25234WAT     H175944   0.812   6.367   9.733
25234WAT     H275945   0.683   6.403   9.640
25235WAT      O75946   6.288   2.843   7.562
25235WAT     H175947   6.385   2.829   7.579
25235WAT     H275948   6.263   2.801   7.474
25236WAT      O75949   1.928   7.345   4.591
25236WAT     H175950   1.998   7.392   4.645
25236WAT     H275951   1.880   7.278   4.648
25237WAT      O75952   7.122   8.156   1.442
25237WAT     H175953   7.092   8.246   1.410
25237WAT     H275954   7.123   8.155   1.542
25238WAT      O75955   3.711   2.203   0.936
25238WAT     H175956   3.676   2.197   0.842
25238WAT     H275957   3.763   2.288   0.946
25239WAT      O75958   4.787   5.298   9.367
25239WAT     H175959   4.760   5.300   9.463
25239WAT     H275960   4.791   5.203   9.335
25240WAT      O75961   5.623   4.096   2.214
25240WAT     H175962   5.617   4.001   2.186
25240WAT     H275963   5.679   4.104   2.296
25241WAT      O75964   2.182   1.641   0.889
25241WAT     H175965   2.266   1.694   0.882
25241WAT     H275966   2.105   1.697   0.857
25242WAT      O75967   4.864   4.218   0.426
25242WAT     H175968   4.938   4.267   0.472
25242WAT     H275969   4.878   4.220   0.327
25243WAT      O75970   0.310   3.907   0.533
25243WAT     H175971   0.293   3.896   0.434
25243WAT     H275972   0.285   3.822   0.580
25244WAT      O75973   8.043   3.792   3.166
25244WAT     H175974   8.095   3.707   3.158
25244WAT     H275975   7.972   3.781   3.235
25245WAT      O75976   4.986   0.457   0.081
25245WAT     H175977   5.014   0.478  -0.012
25245WAT     H275978   4.943   0.367   0.084
25246WAT      O75979   4.675   5.069   8.655
25246WAT     H175980   4.622   5.050   8.572
25246WAT     H275981   4.768   5.093   8.630
25247WAT      O75982   9.811   6.660   7.665
25247WAT     H175983   9.731   6.713   7.693
25247WAT     H275984   9.886   6.723   7.643
25248WAT      O75985   3.947   0.118   7.513
25248WAT     H175986   3.917   0.190   7.452
25248WAT     H275987   4.024   0.151   7.568
25249WAT      O75988   2.004   2.572   4.708
25249WAT     H175989   2.017   2.486   4.659
25249WAT     H275990   1.917   2.570   4.757
25250WAT      O75991   6.940   1.671   0.108
25250WAT     H175992   6.918   1.607   0.034
25250WAT     H275993   6.869   1.741   0.113
25251WAT      O75994   8.803   5.411   7.717
25251WAT     H175995   8.783   5.335   7.655
25251WAT     H275996   8.765   5.391   7.807
25252WAT      O75997   6.922   6.971   0.131
25252WAT     H175998   7.013   6.930   0.132
25252WAT     H275999   6.913   7.035   0.208
25253WAT      O76000   5.228   7.487   9.121
25253WAT     H176001   5.146   7.528   9.161
25253WAT     H276002   5.216   7.387   9.115
25254WAT      O76003   3.185   5.224   0.039
25254WAT     H176004   3.277   5.222  -0.000
25254WAT     H276005   3.178   5.154   0.110
25255WAT      O76006   9.790   7.232   2.839
25255WAT     H176007   9.787   7.184   2.751
25255WAT     H276008   9.882   7.269   2.853
25256WAT      O76009   7.063   9.211   8.087
25256WAT     H176010   7.083   9.297   8.135
25256WAT     H276011   7.149   9.164   8.067
25257WAT      O76012   6.557   2.619   6.622
25257WAT     H176013   6.499   2.541   6.646
25257WAT     H276014   6.652   2.598   6.647
25258WAT      O76015   5.295   0.899   7.631
25258WAT     H176016   5.279   0.800   7.639
25258WAT     H276017   5.233   0.938   7.563
25259WAT      O76018   7.069   1.959   1.160
25259WAT     H176019   7.036   1.879   1.110
25259WAT     H276020   7.077   2.037   1.097
25260WAT      O76021   1.396   0.134   4.110
25260WAT     H176022   1.474   0.154   4.170
25260WAT     H276023   1.346   0.219   4.091
25261WAT      O76024   7.147   5.509   2.346
25261WAT     H176025   7.192   5.537   2.431
25261WAT     H276026   7.054   5.479   2.366
25262WAT      O76027   0.806   3.951   0.530
25262WAT     H176028   0.902   3.976   0.542
25262WAT     H276029   0.794   3.906   0.442
25263WAT      O76030   6.468   5.233   1.610
25263WAT     H176031   6.446   5.206   1.703
25263WAT     H276032   6.513   5.323   1.611
25264WAT      O76033   2.385   8.497   6.267
25264WAT     H176034   2.348   8.556   6.195
25264WAT     H276035   2.402   8.406   6.230
25265WAT      O76036   8.762   1.955   5.754
25265WAT     H176037   8.740   1.872   5.806
25265WAT     H276038   8.678   2.009   5.742
25266WAT      O76039   9.091   4.880   8.285
25266WAT     H176040   9.150   4.954   8.255
25266WAT     H276041   9.127   4.792   8.252
25267WAT      O76042   4.683   5.747   4.963
25267WAT     H176043   4.626   5.823   4.998
25267WAT     H276044   4.757   5.784   4.908
25268WAT      O76045   5.517   8.106   7.899
25268WAT     H176046   5.472   8.072   7.982
25268WAT     H276047   5.601   8.155   7.924
25269WAT      O76048   8.000   5.341   6.625
25269WAT     H176049   7.961   5.296   6.544
25269WAT     H276050   8.098   5.323   6.629
25270WAT      O76051   0.964   2.808   1.570
25270WAT     H176052   0.980   2.824   1.667
25270WAT     H276053   1.005   2.881   1.516
25271WAT      O76054   3.456   3.157   4.436
25271WAT     H176055   3.483   3.206   4.519
25271WAT     H276056   3.379   3.205   4.393
25272WAT      O76057   5.708   9.290   6.791
25272WAT     H176058   5.640   9.216   6.792
25272WAT     H276059   5.759   9.287   6.705
25273WAT      O76060   0.262   0.526   7.221
25273WAT     H176061   0.335   0.587   7.193
25273WAT     H276062   0.219   0.485   7.140
25274WAT      O76063   2.058   8.051   1.028
25274WAT     H176064   2.070   7.992   0.948
25274WAT     H276065   2.146   8.089   1.056
25275WAT      O76066   6.354   7.082   8.262
25275WAT     H176067   6.291   7.152   8.296
25275WAT     H276068   6.403   7.040   8.338
25276WAT      O76069   1.967   2.344   3.399
25276WAT     H176070   2.005   2.290   3.324
25276WAT     H276071   1.868   2.333   3.401
25277WAT      O76072   9.250   4.294   0.050
25277WAT     H176073   9.321   4.235   0.011
25277WAT     H276074   9.242   4.378  -0.004
25278WAT      O76075   8.543   3.587   6.520
25278WAT     H176076   8.531   3.569   6.423
25278WAT     H276077   8.458   3.564   6.569
25279WAT      O76078   8.084   7.575   2.166
25279WAT     H176079   7.987   7.550   2.167
25279WAT     H276080   8.120   7.567   2.073
25280WAT      O76081   5.552   7.784   3.890
25280WAT     H176082   5.640   7.821   3.860
25280WAT     H276083   5.484   7.795   3.817
25281WAT      O76084   9.176   9.302   5.280
25281WAT     H176085   9.148   9.388   5.322
25281WAT     H276086   9.245   9.258   5.338
25282WAT      O76087   4.122   7.283   1.603
25282WAT     H176088   4.068   7.356   1.560
25282WAT     H276089   4.190   7.323   1.665
25283WAT      O76090   1.197   3.713   9.305
25283WAT     H176091   1.253   3.791   9.276
25283WAT     H276092   1.226   3.631   9.257
25284WAT      O76093   4.061   8.838   8.223
25284WAT     H176094   4.056   8.937   8.240
25284WAT     H276095   4.033   8.789   8.305
25285WAT      O76096   8.356   6.068   4.924
25285WAT     H176097   8.437   6.122   4.904
25285WAT     H276098   8.382   5.973   4.941
25286WAT      O76099   3.082   5.622   2.849
25286WAT     H176100   3.009   5.610   2.781
25286WAT     H276101   3.147   5.690   2.815
25287WAT      O76102   5.926   0.681   0.952
25287WAT     H176103   5.968   0.748   0.891
25287WAT     H276104   5.860   0.726   1.011
25288WAT      O76105   6.628   0.673   9.376
25288WAT     H176106   6.625   0.679   9.476
25288WAT     H276107   6.536   0.676   9.339
25289WAT      O76108   2.938   4.621   2.092
25289WAT     H176109   3.019   4.611   2.034
25289WAT     H276110   2.860   4.648   2.035
25290WAT      O76111   2.037   5.570   2.203
25290WAT     H176112   2.082   5.645   2.252
25290WAT     H276113   2.106   5.511   2.162
25291WAT      O76114   7.746   2.717   6.181
25291WAT     H176115   7.766   2.663   6.099
25291WAT     H276116   7.820   2.782   6.196
25292WAT      O76117   3.722   8.626   7.944
25292WAT     H176118   3.681   8.535   7.939
25292WAT     H276119   3.822   8.617   7.949
25293WAT      O76120   5.028   0.551   6.015
25293WAT     H176121   4.954   0.615   5.992
25293WAT     H276122   5.104   0.562   5.951
25294WAT      O76123   9.673   0.088   8.733
25294WAT     H176124   9.705   0.017   8.671
25294WAT     H276125   9.677   0.177   8.688
25295WAT      O76126   9.498   3.964   8.728
25295WAT     H176127   9.475   3.930   8.819
25295WAT     H276128   9.473   3.895   8.660
25296WAT      O76129   6.914   8.338   6.797
25296WAT     H176130   7.005   8.305   6.771
25296WAT     H276131   6.922   8.403   6.872
25297WAT      O76132   5.784   0.941   5.519
25297WAT     H176133   5.776   0.842   5.524
25297WAT     H276134   5.734   0.975   5.439
25298WAT      O76135   2.548   6.476   2.206
25298WAT     H176136   2.465   6.531   2.204
25298WAT     H276137   2.608   6.509   2.279
25299WAT      O76138   5.630   9.357   4.972
25299WAT     H176139   5.709   9.324   5.022
25299WAT     H276140   5.595   9.440   5.016
25300WAT      O76141   7.641   2.111   0.592
25300WAT     H176142   7.588   2.180   0.542
25300WAT     H276143   7.707   2.069   0.530
25301WAT      O76144   7.300   3.370   1.439
25301WAT     H176145   7.339   3.402   1.525
25301WAT     H276146   7.312   3.271   1.431
25302WAT      O76147   0.254   3.555   3.378
25302WAT     H176148   0.313   3.632   3.402
25302WAT     H276149   0.310   3.479   3.347
25303WAT      O76150   1.586   8.522   6.831
25303WAT     H176151   1.570   8.495   6.736
25303WAT     H276152   1.668   8.475   6.866
25304WAT      O76153   2.017   1.893   4.202
25304WAT     H176154   2.087   1.888   4.130
25304WAT     H276155   2.004   1.989   4.228
25305WAT      O76156   0.576   4.114   5.398
25305WAT     H176157   0.541   4.194   5.447
25305WAT     H276158   0.668   4.131   5.365
25306WAT      O76159   8.279   9.603   1.658
25306WAT     H176160   8.306   9.515   1.696
25306WAT     H276161   8.326   9.617   1.571
25307WAT      O76162   6.172   6.527   7.370
25307WAT     H176163   6.107   6.520   7.445
25307WAT     H276164   6.165   6.446   7.312
25308WAT      O76165   5.350   7.597   1.755
25308WAT     H176166   5.366   7.644   1.842
25308WAT     H276167   5.346   7.663   1.681
25309WAT      O76168   3.102   9.021   1.011
25309WAT     H176169   3.019   9.076   1.013
25309WAT     H276170   3.080   8.927   1.038
25310WAT      O76171   1.649   2.536   7.913
25310WAT     H176172   1.634   2.635   7.905
25310WAT     H276173   1.564   2.488   7.896
25311WAT      O76174   9.461   2.492   9.196
25311WAT     H176175   9.387   2.545   9.154
25311WAT     H276176   9.442   2.479   9.293
25312WAT      O76177   7.936   0.332   8.240
25312WAT     H176178   8.032   0.358   8.249
25312WAT     H276179   7.895   0.322   8.331
25313WAT      O76180   3.986   9.468   9.303
25313WAT     H176181   3.993   9.368   9.295
25313WAT     H276182   4.003   9.495   9.398
25314WAT      O76183   3.346   7.341   1.910
25314WAT     H176184   3.304   7.354   2.000
25314WAT     H276185   3.400   7.421   1.887
25315WAT      O76186   4.898   5.484   7.386
25315WAT     H176187   4.827   5.416   7.403
25315WAT     H276188   4.889   5.518   7.292
25316WAT      O76189   6.069   4.721   3.271
25316WAT     H176190   6.142   4.698   3.335
25316WAT     H276191   6.009   4.789   3.312
25317WAT      O76192   1.214   8.890   7.961
25317WAT     H176193   1.242   8.924   8.051
25317WAT     H276194   1.198   8.792   7.966
25318WAT      O76195   1.216   2.178   8.763
25318WAT     H176196   1.305   2.222   8.761
25318WAT     H276197   1.193   2.145   8.671
25319WAT      O76198   3.733   1.686   0.212
25319WAT     H176199   3.815   1.641   0.247
25319WAT     H276200   3.673   1.709   0.288
25320WAT      O76201   4.392   2.804   1.330
25320WAT     H176202   4.365   2.765   1.418
25320WAT     H276203   4.377   2.737   1.258
25321WAT      O76204   6.478   7.688   2.290
25321WAT     H176205   6.509   7.664   2.382
25321WAT     H276206   6.546   7.746   2.246
25322WAT      O76207   2.909   7.456   8.631
25322WAT     H176208   2.972   7.422   8.561
25322WAT     H276209   2.830   7.395   8.636
25323WAT      O76210   2.570   2.596   6.884
25323WAT     H176211   2.590   2.650   6.802
25323WAT     H276212   2.653   2.589   6.940
25324WAT      O76213   2.958   2.703   7.735
25324WAT     H176214   2.959   2.751   7.647
25324WAT     H276215   2.949   2.770   7.809
25325WAT      O76216   6.995   1.751   1.929
25325WAT     H176217   6.927   1.824   1.932
25325WAT     H276218   7.085   1.789   1.952
25326WAT      O76219   7.411   4.982   4.094
25326WAT     H176220   7.383   5.066   4.140
25326WAT     H276221   7.490   5.000   4.036
25327WAT      O76222   8.642   4.070   0.289
25327WAT     H176223   8.548   4.101   0.300
25327WAT     H276224   8.665   4.007   0.363
25328WAT      O76225   8.299   5.661   9.408
25328WAT     H176226   8.262   5.604   9.482
25328WAT     H276227   8.398   5.647   9.403
25329WAT      O76228   0.913   7.305   0.992
25329WAT     H176229   0.892   7.363   1.072
25329WAT     H276230   0.853   7.331   0.916
25330WAT      O76231   4.878   8.838   8.380
25330WAT     H176232   4.798   8.845   8.321
25330WAT     H276233   4.850   8.811   8.472
25331WAT      O76234   2.385   2.808   6.133
25331WAT     H176235   2.358   2.789   6.228
25331WAT     H276236   2.464   2.752   6.108
25332WAT      O76237   0.703   2.674   1.856
25332WAT     H176238   0.652   2.601   1.902
25332WAT     H276239   0.769   2.714   1.920
25333WAT      O76240   6.008   3.097   0.967
25333WAT     H176241   5.934   3.161   0.948
25333WAT     H276242   6.053   3.123   1.053
25334WAT      O76243   0.515   2.336   6.944
25334WAT     H176244   0.488   2.415   6.889
25334WAT     H276245   0.498   2.252   6.892
25335WAT      O76246   1.389   2.076   4.597
25335WAT     H176247   1.415   1.991   4.642
25335WAT     H276248   1.351   2.054   4.506
25336WAT      O76249   4.095   0.864   1.375
25336WAT     H176250   4.077   0.874   1.277
25336WAT     H276251   4.163   0.792   1.389
25337WAT      O76252   9.807   4.029   1.418
25337WAT     H176253   9.865   3.962   1.372
25337WAT     H276254   9.861   4.075   1.489
25338WAT      O76255   7.648   9.214   2.151
25338WAT     H176256   7.663   9.284   2.081
25338WAT     H276257   7.734   9.169   2.172
25339WAT      O76258   4.768   2.084   3.783
25339WAT     H176259   4.736   2.144   3.857
25339WAT     H276260   4.771   2.136   3.698
25340WAT      O76261   8.571   1.750   1.981
25340WAT     H176262   8.557   1.682   2.053
25340WAT     H276263   8.558   1.842   2.019
25341WAT      O76264   4.047   1.080   4.462
25341WAT     H176265   4.013   1.133   4.385
25341WAT     H276266   4.062   0.986   4.434
25342WAT      O76267   8.369   5.839   3.083
25342WAT     H176268   8.335   5.776   3.152
25342WAT     H276269   8.367   5.932   3.119
25343WAT      O76270   7.262   4.679   5.433
25343WAT     H176271   7.214   4.729   5.505
25343WAT     H276272   7.292   4.591   5.469
25344WAT      O76273   1.122   7.318   3.901
25344WAT     H176274   1.216   7.290   3.918
25344WAT     H276275   1.068   7.238   3.873
25345WAT      O76276   7.313   8.607   1.667
25345WAT     H176277   7.274   8.642   1.752
25345WAT     H276278   7.247   8.547   1.622
25346WAT      O76279   7.411   1.164   8.189
25346WAT     H176280   7.417   1.069   8.159
25346WAT     H276281   7.498   1.210   8.170
25347WAT      O76282   5.789   7.573   3.098
25347WAT     H176283   5.780   7.656   3.044
25347WAT     H276284   5.774   7.493   3.040
25348WAT      O76285   3.750   0.465   4.307
25348WAT     H176286   3.670   0.420   4.268
25348WAT     H276287   3.800   0.400   4.364
25349WAT      O76288   7.558   9.450   1.370
25349WAT     H176289   7.515   9.521   1.425
25349WAT     H276290   7.489   9.402   1.317
25350WAT      O76291   5.126   5.556   4.947
25350WAT     H176292   5.204   5.493   4.940
25350WAT     H276293   5.056   5.530   4.880
25351WAT      O76294   0.645   5.377   8.882
25351WAT     H176295   0.736   5.414   8.868
25351WAT     H276296   0.639   5.286   8.840
25352WAT      O76297   7.167   9.689   6.573
25352WAT     H176298   7.068   9.682   6.583
25352WAT     H276299   7.210   9.668   6.661
25353WAT      O76300   7.631   1.399   8.490
25353WAT     H176301   7.636   1.302   8.469
25353WAT     H276302   7.543   1.419   8.534
25354WAT      O76303   1.703   3.495   4.954
25354WAT     H176304   1.603   3.496   4.950
25354WAT     H276305   1.733   3.408   4.993
25355WAT      O76306   8.274   0.584   6.879
25355WAT     H176307   8.356   0.527   6.884
25355WAT     H276308   8.300   0.677   6.854
25356WAT      O76309   4.475   8.717   5.202
25356WAT     H176310   4.545   8.698   5.133
25356WAT     H276311   4.498   8.801   5.251
25357WAT      O76312   0.867   4.095   1.427
25357WAT     H176313   0.928   4.129   1.498
25357WAT     H276314   0.870   4.158   1.349
25358WAT      O76315   9.706   1.506   6.813
25358WAT     H176316   9.752   1.418   6.826
25358WAT     H276317   9.694   1.551   6.901
25359WAT      O76318   0.706   3.015   9.855
25359WAT     H176319   0.680   2.948   9.786
25359WAT     H276320   0.804   3.012   9.870
25360WAT      O76321   2.896   0.774   3.207
25360WAT     H176322   2.961   0.756   3.281
25360WAT     H276323   2.824   0.705   3.208
25361WAT      O76324   2.299   1.882   2.177
25361WAT     H176325   2.330   1.965   2.132
25361WAT     H276326   2.215   1.849   2.134
25362WAT      O76327   0.160   4.610   5.977
25362WAT     H176328   0.202   4.611   5.886
25362WAT     H276329   0.108   4.526   5.989
25363WAT      O76330   5.684   7.565   7.244
25363WAT     H176331   5.687   7.603   7.336
25363WAT     H276332   5.663   7.468   7.248
25364WAT      O76333   8.101   0.298   7.401
25364WAT     H176334   8.002   0.282   7.392
25364WAT     H276335   8.140   0.316   7.311
25365WAT      O76336   6.130   7.666   3.304
25365WAT     H176337   6.141   7.578   3.259
25365WAT     H276338   6.081   7.729   3.243
25366WAT      O76339   8.492   8.305   4.851
25366WAT     H176340   8.394   8.306   4.867
25366WAT     H276341   8.527   8.399   4.852
25367WAT      O76342   3.050   1.283   4.930
25367WAT     H176343   3.089   1.258   4.841
25367WAT     H276344   3.112   1.345   4.978
25368WAT      O76345   4.453   5.227   6.924
25368WAT     H176346   4.456   5.162   6.848
25368WAT     H276347   4.515   5.197   6.996
25369WAT      O76348   3.260   3.063   9.615
25369WAT     H176349   3.359   3.074   9.626
25369WAT     H276350   3.230   3.107   9.530
25370WAT      O76351   9.320   9.751   0.243
25370WAT     H176352   9.264   9.709   0.314
25370WAT     H276353   9.336   9.848   0.265
25371WAT      O76354   0.848   8.636   3.432
25371WAT     H176355   0.762   8.604   3.472
25371WAT     H276356   0.863   8.589   3.345
25372WAT      O76357   6.924   4.297   3.006
25372WAT     H176358   6.947   4.339   3.093
25372WAT     H276359   6.921   4.367   2.935
25373WAT      O76360   2.474   2.051   5.537
25373WAT     H176361   2.531   2.123   5.498
25373WAT     H276362   2.433   2.084   5.622
25374WAT      O76363   6.999   2.768   1.644
25374WAT     H176364   6.932   2.842   1.630
25374WAT     H276365   7.070   2.799   1.707
25375WAT      O76366   2.413   5.692   9.456
25375WAT     H176367   2.399   5.791   9.448
25375WAT     H276368   2.328   5.650   9.487
25376WAT      O76369   6.202   3.479   3.767
25376WAT     H176370   6.160   3.505   3.854
25376WAT     H276371   6.233   3.384   3.772
25377WAT      O76372   9.624   8.370   8.348
25377WAT     H176373   9.581   8.397   8.434
25377WAT     H276374   9.625   8.448   8.286
25378WAT      O76375   5.465   4.148   6.164
25378WAT     H176376   5.447   4.243   6.187
25378WAT     H276377   5.381   4.103   6.134
25379WAT      O76378   7.861   9.489   8.535
25379WAT     H176379   7.928   9.456   8.602
25379WAT     H276380   7.854   9.425   8.459
25380WAT      O76381   4.644   8.428   2.991
25380WAT     H176382   4.715   8.370   3.031
25380WAT     H276383   4.631   8.403   2.895
25381WAT      O76384   7.729   5.551   8.268
25381WAT     H176385   7.641   5.587   8.299
25381WAT     H276386   7.731   5.551   8.168
25382WAT      O76387   5.519   9.153   4.830
25382WAT     H176388   5.441   9.180   4.772
25382WAT     H276389   5.560   9.235   4.869
25383WAT      O76390   8.167   7.524   2.437
25383WAT     H176391   8.121   7.592   2.493
25383WAT     H276392   8.141   7.536   2.341
25384WAT      O76393   5.385   2.585   5.487
25384WAT     H176394   5.424   2.594   5.395
25384WAT     H276395   5.382   2.489   5.513
25385WAT      O76396   3.557   2.216   6.898
25385WAT     H176397   3.638   2.276   6.896
25385WAT     H276398   3.557   2.165   6.985
25386WAT      O76399   7.642   2.043   5.930
25386WAT     H176400   7.601   2.001   5.849
25386WAT     H276401   7.582   2.029   6.009
25387WAT      O76402   3.595   6.223   1.136
25387WAT     H176403   3.569   6.313   1.171
25387WAT     H276404   3.514   6.177   1.099
25388WAT      O76405   9.597   6.094   1.698
25388WAT     H176406   9.685   6.054   1.722
25388WAT     H276407   9.610   6.186   1.662
25389WAT      O76408   1.079   3.385   8.602
25389WAT     H176409   1.043   3.478   8.605
25389WAT     H276410   1.152   3.379   8.534
25390WAT      O76411   7.799   3.750   2.808
25390WAT     H176412   7.800   3.701   2.895
25390WAT     H276413   7.708   3.788   2.791
25391WAT      O76414   8.019   7.592   8.602
25391WAT     H176415   8.099   7.651   8.616
25391WAT     H276416   7.954   7.637   8.540
25392WAT      O76417   1.029   2.519   3.989
25392WAT     H176418   1.019   2.618   3.990
25392WAT     H276419   1.009   2.482   4.080
25393WAT      O76420   5.229   2.023   7.616
25393WAT     H176421   5.303   1.964   7.650
25393WAT     H276422   5.265   2.085   7.546
25394WAT      O76423   0.980   6.580   2.123
25394WAT     H176424   1.000   6.527   2.040
25394WAT     H276425   0.907   6.535   2.174
25395WAT      O76426   2.082   4.090   2.057
25395WAT     H176427   2.168   4.112   2.011
25395WAT     H276428   2.094   4.006   2.112
25396WAT      O76429   4.793   1.233   9.587
25396WAT     H176430   4.742   1.258   9.505
25396WAT     H276431   4.837   1.144   9.573
25397WAT      O76432   2.320   7.335   6.426
25397WAT     H176433   2.293   7.248   6.384
25397WAT     H276434   2.278   7.343   6.516
25398WAT      O76435   2.435   9.763   2.352
25398WAT     H176436   2.494   9.790   2.276
25398WAT     H276437   2.461   9.813   2.434
25399WAT      O76438   2.159   7.973   6.236
25399WAT     H176439   2.249   7.939   6.210
25399WAT     H276440   2.089   7.909   6.204
25400WAT      O76441   5.735   6.429   1.313
25400WAT     H176442   5.745   6.511   1.368
25400WAT     H276443   5.640   6.399   1.314
25401WAT      O76444   2.014   3.452   8.204
25401WAT     H176445   2.048   3.421   8.294
25401WAT     H276446   2.024   3.378   8.138
25402WAT      O76447   3.525   8.896   2.262
25402WAT     H176448   3.608   8.943   2.289
25402WAT     H276449   3.465   8.959   2.212
25403WAT      O76450   5.648   5.892   4.515
25403WAT     H176451   5.624   5.987   4.538
25403WAT     H276452   5.576   5.831   4.549
25404WAT      O76453   2.062   8.934   8.894
25404WAT     H176454   2.027   9.012   8.842
25404WAT     H276455   2.128   8.884   8.839
25405WAT      O76456   2.252   5.740   4.136
25405WAT     H176457   2.162   5.726   4.095
25405WAT     H276458   2.273   5.664   4.198
25406WAT      O76459   5.740   5.894   1.865
25406WAT     H176460   5.719   5.834   1.942
25406WAT     H276461   5.669   5.963   1.856
25407WAT      O76462   4.365   7.046   4.776
25407WAT     H176463   4.346   7.111   4.850
25407WAT     H276464   4.348   6.953   4.809
25408WAT      O76465   7.859   8.271   3.899
25408WAT     H176466   7.804   8.221   3.966
25408WAT     H276467   7.900   8.351   3.942
25409WAT      O76468   9.520   5.267   9.307
25409WAT     H176469   9.522   5.189   9.368
25409WAT     H276470   9.485   5.347   9.355
25410WAT      O76471   6.330   2.604   0.456
25410WAT     H176472   6.372   2.602   0.365
25410WAT     H276473   6.271   2.524   0.467
25411WAT      O76474   4.285   8.538   2.166
25411WAT     H176475   4.232   8.560   2.084
25411WAT     H276476   4.366   8.486   2.140
25412WAT      O76477   1.220   9.106   0.361
25412WAT     H176478   1.147   9.154   0.411
25412WAT     H276479   1.203   9.115   0.262
25413WAT      O76480   8.126   9.345   8.332
25413WAT     H176481   8.147   9.248   8.343
25413WAT     H276482   8.141   9.371   8.237
25414WAT      O76483   5.108   7.452   2.670
25414WAT     H176484   5.039   7.383   2.648
25414WAT     H276485   5.128   7.506   2.588
25415WAT      O76486   0.067   3.597   3.575
25415WAT     H176487   0.133   3.576   3.503
25415WAT     H276488   0.080   3.691   3.606
25416WAT      O76489   0.094   9.422   9.531
25416WAT     H176490   0.075   9.342   9.587
25416WAT     H276491   0.174   9.404   9.474
25417WAT      O76492   1.370   4.222   1.752
25417WAT     H176493   1.351   4.262   1.663
25417WAT     H276494   1.295   4.161   1.777
25418WAT      O76495   3.320   4.076   0.012
25418WAT     H176496   3.231   4.080  -0.035
25418WAT     H276497   3.345   3.980   0.026
25419WAT      O76498   9.236   6.175   6.534
25419WAT     H176499   9.311   6.229   6.497
25419WAT     H276500   9.205   6.215   6.620
25420WAT      O76501   5.282   3.226   1.574
25420WAT     H176502   5.296   3.325   1.573
25420WAT     H276503   5.207   3.204   1.636
25421WAT      O76504   2.875   3.213   4.744
25421WAT     H176505   2.957   3.254   4.784
25421WAT     H276506   2.886   3.206   4.645
25422WAT      O76507   8.502   3.236   9.689
25422WAT     H176508   8.453   3.163   9.642
25422WAT     H276509   8.450   3.265   9.770
25423WAT      O76510   8.964   7.153   9.127
25423WAT     H176511   9.010   7.191   9.208
25423WAT     H276512   8.957   7.223   9.057
25424WAT      O76513   7.836   3.551   2.594
25424WAT     H176514   7.917   3.529   2.539
25424WAT     H276515   7.861   3.619   2.663
25425WAT      O76516   4.470   6.110   4.378
25425WAT     H176517   4.454   6.039   4.446
25425WAT     H276518   4.540   6.174   4.412
25426WAT      O76519   3.914   2.487   2.114
25426WAT     H176520   3.868   2.399   2.129
25426WAT     H276521   3.970   2.481   2.031
25427WAT      O76522   5.903   0.915   7.672
25427WAT     H176523   5.818   0.910   7.726
25427WAT     H276524   5.916   1.009   7.640
25428WAT      O76525   1.692   6.993   8.049
25428WAT     H176526   1.642   6.944   7.978
25428WAT     H276527   1.775   6.942   8.072
25429WAT      O76528   0.179   8.420   5.152
25429WAT     H176529   0.143   8.480   5.081
25429WAT     H276530   0.271   8.389   5.127
25430WAT      O76531   9.446   2.045   3.016
25430WAT     H176532   9.429   1.946   3.016
25430WAT     H276533   9.544   2.062   3.012
25431WAT      O76534   4.362   2.882   0.375
25431WAT     H176535   4.327   2.882   0.469
25431WAT     H276536   4.369   2.976   0.343
25432WAT      O76537   0.056   3.532   0.822
25432WAT     H176538  -0.034   3.509   0.787
25432WAT     H276539   0.120   3.458   0.802
25433WAT      O76540   6.969   0.333   1.877
25433WAT     H176541   6.911   0.394   1.931
25433WAT     H276542   6.913   0.283   1.811
25434WAT      O76543   6.088   6.579   8.022
25434WAT     H176544   6.133   6.552   8.107
25434WAT     H276545   6.156   6.614   7.957
25435WAT      O76546   0.675   0.339   0.047
25435WAT     H176547   0.707   0.336   0.142
25435WAT     H276548   0.614   0.262   0.030
25436WAT      O76549   2.941   1.073   3.614
25436WAT     H176550   3.007   1.094   3.686
25436WAT     H276551   2.896   1.158   3.584
25437WAT      O76552   5.802   7.847   7.876
25437WAT     H176553   5.864   7.906   7.926
25437WAT     H276554   5.853   7.791   7.811
25438WAT      O76555   8.467   3.589   2.628
25438WAT     H176556   8.464   3.578   2.528
25438WAT     H276557   8.384   3.551   2.668
25439WAT      O76558   6.611   7.133   4.419
25439WAT     H176559   6.685   7.097   4.476
25439WAT     H276560   6.605   7.080   4.334
25440WAT      O76561   0.099   7.886   9.418
25440WAT     H176562   0.020   7.833   9.448
25440WAT     H276563   0.182   7.834   9.436
25441WAT      O76564   6.746   5.270   9.402
25441WAT     H176565   6.677   5.319   9.455
25441WAT     H276566   6.796   5.208   9.463
25442WAT      O76567   1.114   7.942   0.515
25442WAT     H176568   1.089   8.029   0.557
25442WAT     H276569   1.126   7.873   0.586
25443WAT      O76570   2.369   6.852   1.161
25443WAT     H176571   2.388   6.763   1.119
25443WAT     H276572   2.402   6.925   1.101
25444WAT      O76573   7.387   1.266   4.318
25444WAT     H176574   7.442   1.290   4.238
25444WAT     H276575   7.387   1.167   4.329
25445WAT      O76576   3.884   4.734   4.095
25445WAT     H176577   3.860   4.748   3.999
25445WAT     H276578   3.954   4.663   4.102
25446WAT      O76579   1.426   3.606   0.077
25446WAT     H176580   1.430   3.649  -0.013
25446WAT     H276581   1.333   3.577   0.097
25447WAT      O76582   0.782   4.591   0.223
25447WAT     H176583   0.766   4.673   0.277
25447WAT     H276584   0.728   4.595   0.139
25448WAT      O76585   7.636   8.489   0.181
25448WAT     H176586   7.694   8.409   0.165
25448WAT     H276587   7.555   8.483   0.122
25449WAT      O76588   7.789   3.827   7.204
25449WAT     H176589   7.715   3.801   7.142
25449WAT     H276590   7.822   3.919   7.180
25450WAT      O76591   0.617   7.465   4.607
25450WAT     H176592   0.657   7.404   4.539
25450WAT     H276593   0.528   7.498   4.574
25451WAT      O76594   6.393   7.976   8.515
25451WAT     H176595   6.381   8.064   8.469
25451WAT     H276596   6.465   7.984   8.584
25452WAT      O76597   9.047   4.621   5.609
25452WAT     H176598   9.087   4.664   5.690
25452WAT     H276599   9.092   4.533   5.592
25453WAT      O76600   7.277   5.287   5.565
25453WAT     H176601   7.367   5.248   5.585
25453WAT     H276602   7.284   5.354   5.492
25454WAT      O76603   7.928   3.454   5.623
25454WAT     H176604   8.009   3.431   5.570
25454WAT     H276605   7.878   3.528   5.577
25455WAT      O76606   7.783   5.680   7.736
25455WAT     H176607   7.732   5.742   7.676
25455WAT     H276608   7.821   5.605   7.682
25456WAT      O76609   9.729   1.480   3.718
25456WAT     H176610   9.822   1.511   3.738
25456WAT     H276611   9.721   1.383   3.739
25457WAT      O76612   7.242   0.968   2.688
25457WAT     H176613   7.285   0.974   2.598
25457WAT     H276614   7.289   1.028   2.752
25458WAT      O76615   7.776   3.830   2.455
25458WAT     H176616   7.852   3.816   2.391
25458WAT     H276617   7.753   3.743   2.498
25459WAT      O76618   9.441   2.057   0.702
25459WAT     H176619   9.366   1.994   0.721
25459WAT     H276620   9.506   2.013   0.640
25460WAT      O76621   1.077   1.598   6.276
25460WAT     H176622   1.011   1.633   6.209
25460WAT     H276623   1.053   1.631   6.367
25461WAT      O76624   1.111   7.764   0.288
25461WAT     H176625   1.126   7.804   0.378
25461WAT     H276626   1.085   7.668   0.298
25462WAT      O76627   2.552   4.659   7.469
25462WAT     H176628   2.548   4.652   7.370
25462WAT     H276629   2.573   4.569   7.509
25463WAT      O76630   5.268   7.216   1.066
25463WAT     H176631   5.204   7.269   1.122
25463WAT     H276632   5.216   7.164   0.997
25464WAT      O76633   8.640   7.288   7.929
25464WAT     H176634   8.576   7.212   7.936
25464WAT     H276635   8.693   7.295   8.014
25465WAT      O76636   3.894   7.240   2.953
25465WAT     H176637   3.895   7.301   3.032
25465WAT     H276638   3.920   7.148   2.981
25466WAT      O76639   7.216   2.155   1.846
25466WAT     H176640   7.127   2.181   1.810
25466WAT     H276641   7.212   2.060   1.879
25467WAT      O76642   1.440   2.597   7.111
25467WAT     H176643   1.508   2.648   7.059
25467WAT     H276644   1.485   2.548   7.186
25468WAT      O76645   6.020   7.816   3.106
25468WAT     H176646   5.937   7.816   3.050
25468WAT     H276647   6.099   7.797   3.048
25469WAT      O76648   2.145   1.433   3.042
25469WAT     H176649   2.159   1.336   3.061
25469WAT     H276650   2.233   1.481   3.051
25470WAT      O76651   7.388   6.103   7.141
25470WAT     H176652   7.412   6.160   7.063
25470WAT     H276653   7.289   6.104   7.155
25471WAT      O76654   8.794   7.957   8.406
25471WAT     H176655   8.891   7.976   8.397
25471WAT     H276656   8.765   7.971   8.501
25472WAT      O76657   1.356   4.133   6.768
25472WAT     H176658   1.443   4.094   6.737
25472WAT     H276659   1.281   4.096   6.713
25473WAT      O76660   2.338   1.836   2.476
25473WAT     H176661   2.305   1.877   2.391
25473WAT     H276662   2.350   1.907   2.545
25474WAT      O76663   4.892   9.349   4.371
25474WAT     H176664   4.918   9.254   4.354
25474WAT     H276665   4.803   9.368   4.329
25475WAT      O76666   2.865   3.501   8.755
25475WAT     H176667   2.809   3.568   8.705
25475WAT     H276668   2.809   3.421   8.777
25476WAT      O76669   1.654   2.270   8.349
25476WAT     H176670   1.651   2.331   8.269
25476WAT     H276671   1.720   2.197   8.332
25477WAT      O76672   7.692   7.641   3.136
25477WAT     H176673   7.771   7.661   3.193
25477WAT     H276674   7.711   7.669   3.042
25478WAT      O76675   2.932   8.919   7.503
25478WAT     H176676   2.975   8.829   7.495
25478WAT     H276677   2.849   8.911   7.558
25479WAT      O76678   9.287   2.569   7.739
25479WAT     H176679   9.379   2.545   7.769
25479WAT     H276680   9.278   2.669   7.738
25480WAT      O76681   8.691   6.918   4.044
25480WAT     H176682   8.636   6.987   3.997
25480WAT     H276683   8.682   6.930   4.143
25481WAT      O76684   3.226   5.850   0.879
25481WAT     H176685   3.225   5.917   0.953
25481WAT     H276686   3.213   5.897   0.792
25482WAT      O76687   6.837   6.684   2.542
25482WAT     H176688   6.796   6.604   2.586
25482WAT     H276689   6.824   6.764   2.601
25483WAT      O76690   7.118   5.026   7.366
25483WAT     H176691   7.036   5.053   7.316
25483WAT     H276692   7.157   5.105   7.412
25484WAT      O76693   4.615   4.353   4.657
25484WAT     H176694   4.581   4.286   4.724
25484WAT     H276695   4.568   4.440   4.671
25485WAT      O76696   0.466   4.649   2.335
25485WAT     H176697   0.396   4.707   2.378
25485WAT     H276698   0.518   4.601   2.405
25486WAT      O76699   4.428   8.225   8.485
25486WAT     H176700   4.432   8.301   8.420
25486WAT     H276701   4.487   8.151   8.453
25487WAT      O76702   6.357   7.207   9.077
25487WAT     H176703   6.424   7.202   9.151
25487WAT     H276704   6.390   7.155   8.998
25488WAT      O76705   4.275   4.481   8.910
25488WAT     H176706   4.295   4.479   8.812
25488WAT     H276707   4.296   4.572   8.946
25489WAT      O76708   9.606   4.241   7.210
25489WAT     H176709   9.608   4.225   7.111
25489WAT     H276710   9.520   4.209   7.247
25490WAT      O76711   7.629   5.719   6.545
25490WAT     H176712   7.587   5.688   6.630
25490WAT     H276713   7.621   5.646   6.476
25491WAT      O76714   8.490   8.124   6.839
25491WAT     H176715   8.412   8.073   6.802
25491WAT     H276716   8.502   8.208   6.787
25492WAT      O76717   2.278   8.249   2.481
25492WAT     H176718   2.327   8.253   2.394
25492WAT     H276719   2.339   8.214   2.552
25493WAT      O76720   8.933   1.523   8.010
25493WAT     H176721   8.882   1.598   8.052
25493WAT     H276722   8.945   1.449   8.077
25494WAT      O76723   4.228   3.668   0.506
25494WAT     H176724   4.215   3.575   0.472
25494WAT     H276725   4.306   3.671   0.568
25495WAT      O76726   6.708   8.225   7.847
25495WAT     H176727   6.688   8.308   7.794
25495WAT     H276728   6.757   8.160   7.789
25496WAT      O76729   5.389   3.530   9.551
25496WAT     H176730   5.456   3.470   9.506
25496WAT     H276731   5.338   3.580   9.481
25497WAT      O76732   6.064   9.697   3.585
25497WAT     H176733   6.010   9.618   3.556
25497WAT     H276734   6.062   9.766   3.513
25498WAT      O76735   4.847   7.599   1.241
25498WAT     H176736   4.946   7.584   1.236
25498WAT     H276737   4.813   7.630   1.152
25499WAT      O76738   2.950   8.631   6.938
25499WAT     H176739   2.908   8.694   6.873
25499WAT     H276740   2.879   8.573   6.978
25500WAT      O76741   0.248   6.644   9.405
25500WAT     H176742   0.298   6.606   9.326
25500WAT     H276743   0.257   6.743   9.404
25501WAT      O76744   8.767   2.118   8.823
25501WAT     H176745   8.764   2.199   8.882
25501WAT     H276746   8.786   2.037   8.878
25502WAT      O76747   8.463   9.526   0.952
25502WAT     H176748   8.394   9.581   1.000
25502WAT     H276749   8.431   9.432   0.943
25503WAT      O76750   5.253   2.953   0.946
25503WAT     H176751   5.250   2.928   1.043
25503WAT     H276752   5.218   3.046   0.934
25504WAT      O76753   9.690   1.506   7.481
25504WAT     H176754   9.786   1.520   7.455
25504WAT     H276755   9.679   1.526   7.578
25505WAT      O76756   3.580   0.161   7.636
25505WAT     H176757   3.663   0.204   7.672
25505WAT     H276758   3.503   0.226   7.645
25506WAT      O76759   9.877   9.400   5.500
25506WAT     H176760   9.870   9.488   5.452
25506WAT     H276761   9.865   9.326   5.434
25507WAT      O76762   4.836   9.810   8.027
25507WAT     H176763   4.924   9.796   7.981
25507WAT     H276764   4.788   9.723   8.035
25508WAT      O76765   0.352   8.440   2.484
25508WAT     H176766   0.270   8.492   2.509
25508WAT     H276767   0.360   8.359   2.543
25509WAT      O76768   8.618   6.335   4.826
25509WAT     H176769   8.718   6.333   4.833
25509WAT     H276770   8.590   6.298   4.737
25510WAT      O76771   3.739   0.324   8.922
25510WAT     H176772   3.716   0.270   9.004
25510WAT     H276773   3.673   0.305   8.850
25511WAT      O76774   8.150   3.445   6.010
25511WAT     H176775   8.118   3.534   6.043
25511WAT     H276776   8.239   3.456   5.966
25512WAT      O76777   6.038   5.528   8.500
25512WAT     H176778   6.053   5.555   8.404
25512WAT     H276779   6.090   5.445   8.520
25513WAT      O76780   9.876   7.073   7.740
25513WAT     H176781   9.963   7.117   7.764
25513WAT     H276782   9.855   7.093   7.644
25514WAT      O76783   3.852   7.388   5.122
25514WAT     H176784   3.776   7.449   5.100
25514WAT     H276785   3.934   7.418   5.073
25515WAT      O76786   9.076   6.265   8.803
25515WAT     H176787   9.097   6.222   8.891
25515WAT     H276788   9.146   6.334   8.783
25516WAT      O76789   0.055   7.019   8.491
25516WAT     H176790  -0.038   7.052   8.510
25516WAT     H276791   0.051   6.940   8.430
25517WAT      O76792   3.182   9.459   4.735
25517WAT     H176793   3.107   9.455   4.800
25517WAT     H276794   3.228   9.370   4.732
25518WAT      O76795   9.769   2.464   7.815
25518WAT     H176796   9.810   2.494   7.902
25518WAT     H276797   9.834   2.480   7.740
25519WAT      O76798   0.038   6.877   1.248
25519WAT     H176799   0.022   6.848   1.154
25519WAT     H276800   0.055   6.797   1.305
25520WAT      O76801   2.292   0.049   2.678
25520WAT     H176802   2.383   0.028   2.642
25520WAT     H276803   2.255   0.128   2.629
25521WAT      O76804   9.802   8.984   5.789
25521WAT     H176805   9.717   8.993   5.841
25521WAT     H276806   9.878   8.967   5.853
25522WAT      O76807   4.422   7.404   1.273
25522WAT     H176808   4.409   7.478   1.206
25522WAT     H276809   4.519   7.398   1.297
25523WAT      O76810   3.153   2.319   1.586
25523WAT     H176811   3.156   2.336   1.685
25523WAT     H276812   3.065   2.349   1.550
25524WAT      O76813   5.392   2.092   8.869
25524WAT     H176814   5.295   2.068   8.874
25524WAT     H276815   5.404   2.172   8.810
25525WAT      O76816   3.122   1.304   9.054
25525WAT     H176817   3.126   1.204   9.048
25525WAT     H276818   3.191   1.337   9.118
25526WAT      O76819   7.284   5.401   4.146
25526WAT     H176820   7.200   5.414   4.197
25526WAT     H276821   7.348   5.345   4.200
25527WAT      O76822   0.667   4.354   4.710
25527WAT     H176823   0.626   4.444   4.696
25527WAT     H276824   0.614   4.303   4.777
25528WAT      O76825   8.889   2.961   5.224
25528WAT     H176826   8.811   2.989   5.169
25528WAT     H276827   8.915   2.867   5.199
25529WAT      O76828   3.893   1.963   4.704
25529WAT     H176829   3.833   2.036   4.672
25529WAT     H276830   3.937   1.992   4.789
25530WAT      O76831   8.302   2.447   1.569
25530WAT     H176832   8.308   2.359   1.616
25530WAT     H276833   8.311   2.521   1.635
25531WAT      O76834   0.537   6.706   0.684
25531WAT     H176835   0.553   6.758   0.769
25531WAT     H276836   0.520   6.770   0.609
25532WAT      O76837   6.741   8.165   8.361
25532WAT     H176838   6.682   8.238   8.396
25532WAT     H276839   6.767   8.186   8.266
25533WAT      O76840   8.634   0.222   2.110
25533WAT     H176841   8.734   0.228   2.116
25533WAT     H276842   8.607   0.132   2.078
25534WAT      O76843   9.074   2.414   6.416
25534WAT     H176844   8.978   2.394   6.435
25534WAT     H276845   9.084   2.438   6.319
25535WAT      O76846   3.674   1.247   4.944
25535WAT     H176847   3.580   1.267   4.916
25535WAT     H276848   3.733   1.247   4.864
25536WAT      O76849   3.926   3.946   0.025
25536WAT     H176850   4.016   3.915  -0.008
25536WAT     H276851   3.939   4.015   0.097
25537WAT      O76852   2.745   8.115   6.823
25537WAT     H176853   2.761   8.045   6.892
25537WAT     H276854   2.673   8.177   6.855
25538WAT      O76855   0.221   1.936   6.990
25538WAT     H176856   0.127   1.967   6.974
25538WAT     H276857   0.247   1.872   6.918
25539WAT      O76858   0.040   4.363   9.375
25539WAT     H176859   0.031   4.452   9.420
25539WAT     H276860   0.012   4.372   9.279
25540WAT      O76861   2.643   7.868   7.321
25540WAT     H176862   2.741   7.886   7.317
25540WAT     H276863   2.602   7.922   7.394
25541WAT      O76864   6.091   8.616   8.659
25541WAT     H176865   6.037   8.646   8.738
25541WAT     H276866   6.121   8.695   8.607
25542WAT      O76867   4.146   3.637   9.866
25542WAT     H176868   4.233   3.595   9.892
25542WAT     H276869   4.156   3.737   9.863
25543WAT      O76870   3.711   2.359   2.849
25543WAT     H176871   3.773   2.433   2.821
25543WAT     H276872   3.760   2.272   2.846
25544WAT      O76873   1.212   5.850   8.932
25544WAT     H176874   1.239   5.857   8.837
25544WAT     H276875   1.114   5.868   8.940
25545WAT      O76876   5.187   7.641   3.080
25545WAT     H176877   5.206   7.607   2.988
25545WAT     H276878   5.095   7.680   3.083
25546WAT      O76879   4.063   8.928   6.006
25546WAT     H176880   4.124   8.938   6.085
25546WAT     H276881   3.969   8.945   6.035
25547WAT      O76882   1.856   9.074   5.904
25547WAT     H176883   1.761   9.107   5.897
25547WAT     H276884   1.900   9.081   5.815
25548WAT      O76885   9.535   1.005   2.453
25548WAT     H176886   9.582   1.091   2.432
25548WAT     H276887   9.586   0.929   2.412
25549WAT      O76888   8.316   4.816   8.607
25549WAT     H176889   8.242   4.854   8.663
25549WAT     H276890   8.289   4.816   8.511
25550WAT      O76891   1.608   8.611   9.168
25550WAT     H176892   1.697   8.568   9.180
25550WAT     H276893   1.621   8.710   9.155
25551WAT      O76894   1.648   4.165   3.455
25551WAT     H176895   1.611   4.224   3.383
25551WAT     H276896   1.645   4.212   3.542
25552WAT      O76897   5.414   1.114   7.088
25552WAT     H176898   5.365   1.091   7.004
25552WAT     H276899   5.513   1.110   7.070
25553WAT      O76900   5.323   3.601   4.137
25553WAT     H176901   5.233   3.618   4.175
25553WAT     H276902   5.382   3.560   4.206
25554WAT      O76903   3.023   8.533   4.553
25554WAT     H176904   3.060   8.475   4.481
25554WAT     H276905   2.992   8.477   4.629
25555WAT      O76906   3.580   1.909   6.011
25555WAT     H176907   3.527   1.981   6.057
25555WAT     H276908   3.533   1.821   6.023
25556WAT      O76909   0.929   8.775   1.230
25556WAT     H176910   0.830   8.766   1.242
25556WAT     H276911   0.976   8.740   1.310
25557WAT      O76912   6.090   8.066   8.207
25557WAT     H176913   6.045   8.012   8.279
25557WAT     H276914   6.085   8.016   8.121
25558WAT      O76915   8.423   2.919   3.159
25558WAT     H176916   8.369   3.004   3.154
25558WAT     H276917   8.503   2.934   3.216
25559WAT      O76918   9.349   0.421   1.731
25559WAT     H176919   9.396   0.440   1.817
25559WAT     H276920   9.358   0.499   1.670
25560WAT      O76921   1.426   6.450   8.745
25560WAT     H176922   1.416   6.365   8.796
25560WAT     H276923   1.517   6.453   8.703
25561WAT      O76924   5.896   6.740   8.142
25561WAT     H176925   5.911   6.660   8.201
25561WAT     H276926   5.943   6.727   8.055
25562WAT      O76927   0.030   1.508   3.321
25562WAT     H176928  -0.057   1.499   3.371
25562WAT     H276929   0.090   1.432   3.344
25563WAT      O76930   7.720   9.691   8.447
25563WAT     H176931   7.794   9.759   8.446
25563WAT     H276932   7.756   9.604   8.479
25564WAT      O76933   3.738   3.272   0.605
25564WAT     H176934   3.726   3.363   0.645
25564WAT     H276935   3.710   3.273   0.509
25565WAT      O76936   2.298   6.409   0.450
25565WAT     H176937   2.387   6.419   0.494
25565WAT     H276938   2.225   6.431   0.514
25566WAT      O76939   8.865   7.968   1.731
25566WAT     H176940   8.857   8.007   1.639
25566WAT     H276941   8.785   7.912   1.751
25567WAT      O76942   5.476   2.463   5.240
25567WAT     H176943   5.410   2.394   5.211
25567WAT     H276944   5.568   2.424   5.239
25568WAT      O76945   9.592   3.212   3.104
25568WAT     H176946   9.533   3.258   3.037
25568WAT     H276947   9.541   3.196   3.188
25569WAT      O76948   9.595   6.578   6.032
25569WAT     H176949   9.660   6.583   6.108
25569WAT     H276950   9.514   6.527   6.061
25570WAT      O76951   5.874   4.357   7.401
25570WAT     H176952   5.910   4.372   7.309
25570WAT     H276953   5.939   4.301   7.454
25571WAT      O76954   3.160   1.946   6.417
25571WAT     H176955   3.257   1.970   6.420
25571WAT     H276956   3.141   1.893   6.334
25572WAT      O76957   3.052   6.841   4.470
25572WAT     H176958   3.014   6.765   4.418
25572WAT     H276959   2.995   6.922   4.458
25573WAT      O76960   1.824   6.583   7.973
25573WAT     H176961   1.757   6.508   7.967
25573WAT     H276962   1.817   6.641   7.892
25574WAT      O76963   9.124   4.731   3.882
25574WAT     H176964   9.067   4.692   3.955
25574WAT     H276965   9.220   4.729   3.910
25575WAT      O76966   3.694   1.956   3.686
25575WAT     H176967   3.619   1.977   3.749
25575WAT     H276968   3.741   2.040   3.660
25576WAT      O76969   9.850   7.974   7.688
25576WAT     H176970   9.920   7.994   7.619
25576WAT     H276971   9.812   8.059   7.723
25577WAT      O76972   7.179   5.380   2.123
25577WAT     H176973   7.174   5.411   2.217
25577WAT     H276974   7.273   5.358   2.099
25578WAT      O76975   9.728   0.735   3.404
25578WAT     H176976   9.796   0.735   3.477
25578WAT     H276977   9.638   0.715   3.442
25579WAT      O76978   6.358   1.184   1.820
25579WAT     H176979   6.362   1.259   1.754
25579WAT     H276980   6.289   1.117   1.790
25580WAT      O76981   1.045   2.889   1.863
25580WAT     H176982   0.964   2.855   1.911
25580WAT     H276983   1.109   2.929   1.928
25581WAT      O76984   9.060   6.808   8.151
25581WAT     H176985   9.037   6.712   8.138
25581WAT     H276986   9.006   6.846   8.226
25582WAT      O76987   3.630   9.744   9.518
25582WAT     H176988   3.715   9.790   9.496
25582WAT     H276989   3.572   9.740   9.437
25583WAT      O76990   3.500   3.358   9.346
25583WAT     H176991   3.466   3.444   9.382
25583WAT     H276992   3.591   3.339   9.383
25584WAT      O76993   8.715   6.141   4.145
25584WAT     H176994   8.745   6.121   4.238
25584WAT     H276995   8.627   6.096   4.128
25585WAT      O76996   7.976   4.401   3.143
25585WAT     H176997   7.981   4.353   3.056
25585WAT     H276998   8.044   4.363   3.206
25586WAT      O76999   3.795   7.429   3.798
25586WAT     H177000   3.704   7.468   3.783
25586WAT     H277001   3.789   7.355   3.865
25587WAT      O77002   3.873   1.089   1.992
25587WAT     H177003   3.904   1.078   1.898
25587WAT     H277004   3.915   1.171   2.031
25588WAT      O77005   1.229   6.004   0.151
25588WAT     H177006   1.281   5.932   0.104
25588WAT     H277007   1.134   6.002   0.120
25589WAT      O77008   7.251   9.293   1.534
25589WAT     H177009   7.292   9.289   1.443
25589WAT     H277010   7.322   9.279   1.603
25590WAT      O77011   8.048   3.100   2.805
25590WAT     H177012   8.086   3.038   2.737
25590WAT     H277013   7.960   3.136   2.773
25591WAT      O77014   7.046   0.039   6.069
25591WAT     H177015   7.056   0.051   5.970
25591WAT     H277016   6.980  -0.033   6.087
25592WAT      O77017   9.296   3.994   4.295
25592WAT     H177018   9.297   4.075   4.236
25592WAT     H277019   9.274   4.020   4.389
25593WAT      O77020   2.957   2.213   7.645
25593WAT     H177021   2.993   2.304   7.665
25593WAT     H277022   3.017   2.144   7.686
25594WAT      O77023   1.679   7.669   6.042
25594WAT     H177024   1.637   7.588   6.082
25594WAT     H277025   1.719   7.647   5.953
25595WAT      O77026   3.019   4.450   0.378
25595WAT     H177027   2.973   4.389   0.443
25595WAT     H277028   3.010   4.411   0.286
25596WAT      O77029   3.013   4.657   4.349
25596WAT     H177030   2.994   4.618   4.439
25596WAT     H277031   3.071   4.737   4.360
25597WAT      O77032   4.683   3.714   3.362
25597WAT     H177033   4.674   3.671   3.273
25597WAT     H277034   4.723   3.806   3.351
25598WAT      O77035   0.946   6.509   0.774
25598WAT     H177036   0.862   6.524   0.825
25598WAT     H277037   0.925   6.503   0.676
25599WAT      O77038   9.131   2.863   1.045
25599WAT     H177039   9.147   2.811   1.129
25599WAT     H277040   9.035   2.855   1.019
25600WAT      O77041   5.337   2.017   4.621
25600WAT     H177042   5.285   2.050   4.543
25600WAT     H277043   5.292   1.936   4.659
25601WAT      O77044   1.087   2.522   3.382
25601WAT     H177045   1.112   2.450   3.446
25601WAT     H277046   1.010   2.491   3.325
25602WAT      O77047   1.180   8.731   6.489
25602WAT     H177048   1.191   8.694   6.397
25602WAT     H277049   1.268   8.769   6.520
25603WAT      O77050   3.939   9.324   6.942
25603WAT     H177051   3.881   9.244   6.960
25603WAT     H277052   3.979   9.315   6.850
25604WAT      O77053   2.737   9.393   7.893
25604WAT     H177054   2.809   9.432   7.836
25604WAT     H277055   2.673   9.342   7.836
25605WAT      O77056   4.083   0.421   3.657
25605WAT     H177057   4.150   0.447   3.727
25605WAT     H277058   4.001   0.477   3.667
25606WAT      O77059   2.447   7.910   8.060
25606WAT     H177060   2.516   7.982   8.065
25606WAT     H277061   2.471   7.847   7.985
25607WAT      O77062   8.124   2.668   9.231
25607WAT     H177063   8.087   2.725   9.157
25607WAT     H277064   8.161   2.583   9.193
25608WAT      O77065   0.737   0.646   6.343
25608WAT     H177066   0.798   0.637   6.264
25608WAT     H277067   0.662   0.581   6.335
25609WAT      O77068   4.013   6.134   9.451
25609WAT     H177069   4.037   6.056   9.509
25609WAT     H277070   4.086   6.202   9.454
25610WAT      O77071   7.711   8.954   2.319
25610WAT     H177072   7.615   8.936   2.297
25610WAT     H277073   7.752   9.011   2.248
25611WAT      O77074   0.858   0.568   1.977
25611WAT     H177075   0.848   0.489   2.038
25611WAT     H277076   0.825   0.543   1.885
25612WAT      O77077   1.132   7.294   9.439
25612WAT     H177078   1.127   7.258   9.346
25612WAT     H277079   1.144   7.394   9.436
25613WAT      O77080   1.474   8.643   9.410
25613WAT     H177081   1.499   8.717   9.473
25613WAT     H277082   1.533   8.645   9.330
25614WAT      O77083   4.533   9.215   0.054
25614WAT     H177084   4.597   9.285   0.022
25614WAT     H277085   4.487   9.174  -0.025
25615WAT      O77086   9.114   3.768   7.845
25615WAT     H177087   9.201   3.787   7.890
25615WAT     H277088   9.055   3.716   7.906
25616WAT      O77089   7.214   9.821   4.239
25616WAT     H177090   7.270   9.811   4.322
25616WAT     H277091   7.252   9.764   4.166
25617WAT      O77092   1.048   8.968   2.397
25617WAT     H177093   0.975   8.905   2.371
25617WAT     H277094   1.115   8.975   2.323
25618WAT      O77095   1.807   9.779   7.331
25618WAT     H177096   1.736   9.848   7.338
25618WAT     H277097   1.820   9.735   7.420
25619WAT      O77098   7.485   0.246   2.526
25619WAT     H177099   7.572   0.245   2.477
25619WAT     H277100   7.441   0.156   2.518
25620WAT      O77101   0.852   2.917   1.229
25620WAT     H177102   0.944   2.910   1.189
25620WAT     H277103   0.842   2.848   1.301
25621WAT      O77104   7.583   3.743   5.364
25621WAT     H177105   7.669   3.727   5.413
25621WAT     H277106   7.558   3.839   5.370
25622WAT      O77107   7.151   7.328   9.375
25622WAT     H177108   7.244   7.306   9.404
25622WAT     H277109   7.146   7.326   9.275
25623WAT      O77110   4.775   2.356   3.102
25623WAT     H177111   4.816   2.264   3.102
25623WAT     H277112   4.809   2.407   3.181
25624WAT      O77113   0.817   4.576   9.169
25624WAT     H177114   0.855   4.640   9.103
25624WAT     H277115   0.772   4.627   9.243
25625WAT      O77116   8.439   5.322   2.496
25625WAT     H177117   8.400   5.378   2.569
25625WAT     H277118   8.524   5.280   2.527
25626WAT      O77119   2.518   3.290   3.588
25626WAT     H177120   2.600   3.234   3.579
25626WAT     H277121   2.545   3.384   3.612
25627WAT      O77122   4.873   7.602   3.988
25627WAT     H177123   4.941   7.594   3.915
25627WAT     H277124   4.912   7.568   4.074
25628WAT      O77125   0.797   4.434   8.850
25628WAT     H177126   0.700   4.429   8.828
25628WAT     H277127   0.834   4.342   8.860
25629WAT      O77128   7.189   9.154   0.518
25629WAT     H177129   7.228   9.069   0.482
25629WAT     H277130   7.261   9.224   0.524
25630WAT      O77131   2.282   4.253   8.335
25630WAT     H177132   2.270   4.206   8.422
25630WAT     H277133   2.348   4.204   8.279
25631WAT      O77134   7.952   5.485   9.594
25631WAT     H177135   7.997   5.527   9.673
25631WAT     H277136   8.020   5.434   9.540
25632WAT      O77137   0.686   2.326   1.174
25632WAT     H177138   0.732   2.245   1.138
25632WAT     H277139   0.740   2.407   1.152
25633WAT      O77140   4.687   9.486   2.888
25633WAT     H177141   4.728   9.568   2.928
25633WAT     H277142   4.612   9.455   2.946
25634WAT      O77143   9.108   4.175   1.603
25634WAT     H177144   9.127   4.079   1.580
25634WAT     H277145   9.047   4.178   1.682
25635WAT      O77146   1.446   8.961   0.183
25635WAT     H177147   1.400   8.993   0.266
25635WAT     H277148   1.487   9.039   0.135
25636WAT      O77149   6.362   7.521   6.842
25636WAT     H177150   6.272   7.503   6.804
25636WAT     H277151   6.411   7.434   6.855
25637WAT      O77152   8.670   8.222   3.107
25637WAT     H177153   8.612   8.201   3.186
25637WAT     H277154   8.626   8.294   3.053
25638WAT      O77155   3.979   7.299   0.830
25638WAT     H177156   3.889   7.274   0.864
25638WAT     H277157   4.005   7.237   0.756
25639WAT      O77158   6.295   1.814   4.040
25639WAT     H177159   6.373   1.873   4.017
25639WAT     H277160   6.313   1.768   4.127
25640WAT      O77161   4.776   2.034   4.304
25640WAT     H177162   4.709   2.083   4.249
25640WAT     H277163   4.776   2.071   4.397
25641WAT      O77164   3.432   9.566   4.008
25641WAT     H177165   3.362   9.637   4.021
25641WAT     H277166   3.509   9.584   4.069
25642WAT      O77167   8.232   2.444   5.642
25642WAT     H177168   8.152   2.495   5.674
25642WAT     H277169   8.223   2.348   5.666
25643WAT      O77170   8.336   1.637   5.042
25643WAT     H177171   8.393   1.687   5.107
25643WAT     H277172   8.355   1.539   5.050
25644WAT      O77173   6.793   6.839   8.091
25644WAT     H177174   6.732   6.908   8.128
25644WAT     H277175   6.822   6.777   8.164
25645WAT      O77176   6.133   1.374   7.579
25645WAT     H177177   6.167   1.410   7.492
25645WAT     H277178   6.197   1.398   7.652
25646WAT      O77179   6.608   1.610   9.189
25646WAT     H177180   6.586   1.703   9.157
25646WAT     H277181   6.655   1.615   9.277
25647WAT      O77182   1.219   0.163   3.400
25647WAT     H177183   1.252   0.212   3.319
25647WAT     H277184   1.198   0.069   3.375
25648WAT      O77185   3.577   6.300   4.512
25648WAT     H177186   3.605   6.377   4.455
25648WAT     H277187   3.618   6.216   4.478
25649WAT      O77188   7.190   7.911   1.319
25649WAT     H177189   7.274   7.920   1.266
25649WAT     H277190   7.156   8.002   1.343
25650WAT      O77191   6.181   4.425   7.927
25650WAT     H177192   6.242   4.500   7.953
25650WAT     H277193   6.170   4.423   7.828
25651WAT      O77194   4.020   7.566   9.583
25651WAT     H177195   4.040   7.473   9.554
25651WAT     H277196   3.953   7.607   9.521
25652WAT      O77197   2.140   5.165   1.572
25652WAT     H177198   2.189   5.128   1.493
25652WAT     H277199   2.197   5.157   1.653
25653WAT      O77200   1.970   3.577   0.647
25653WAT     H177201   2.019   3.577   0.734
25653WAT     H277202   2.013   3.642   0.584
25654WAT      O77203   8.608   0.739   4.342
25654WAT     H177204   8.613   0.779   4.251
25654WAT     H277205   8.529   0.774   4.391
25655WAT      O77206   9.308   4.862   9.027
25655WAT     H177207   9.245   4.798   9.071
25655WAT     H277208   9.377   4.892   9.093
25656WAT      O77209   7.480   4.231   5.001
25656WAT     H177210   7.509   4.326   4.995
25656WAT     H277211   7.537   4.174   4.942
25657WAT      O77212   6.894   7.966   2.451
25657WAT     H177213   6.896   7.897   2.523
25657WAT     H277214   6.949   7.935   2.373
25658WAT      O77215   9.832   4.644   5.764
25658WAT     H177216   9.793   4.708   5.831
25658WAT     H277217   9.768   4.568   5.750
25659WAT      O77218   1.885   6.689   6.042
25659WAT     H177219   1.864   6.670   5.946
25659WAT     H277220   1.820   6.641   6.101
25660WAT      O77221   5.243   3.873   7.991
25660WAT     H177222   5.239   3.973   7.993
25660WAT     H277223   5.263   3.838   8.082
25661WAT      O77224   4.453   8.536   2.488
25661WAT     H177225   4.390   8.466   2.453
25661WAT     H277226   4.476   8.516   2.583
25662WAT      O77227   6.054   9.118   4.187
25662WAT     H177228   5.976   9.163   4.229
25662WAT     H277229   6.139   9.150   4.230
25663WAT      O77230   9.696   9.511   8.935
25663WAT     H177231   9.639   9.476   8.861
25663WAT     H277232   9.760   9.440   8.965
25664WAT      O77233   8.607   6.749   8.120
25664WAT     H177234   8.521   6.714   8.158
25664WAT     H277235   8.602   6.749   8.020
25665WAT      O77236   4.747   9.325   1.785
25665WAT     H177237   4.769   9.375   1.702
25665WAT     H277238   4.811   9.249   1.797
25666WAT      O77239   8.447   2.310   8.022
25666WAT     H177240   8.477   2.308   8.117
25666WAT     H277241   8.456   2.402   7.985
25667WAT      O77242   0.107   2.809   9.132
25667WAT     H177243   0.016   2.845   9.110
25667WAT     H277244   0.104   2.765   9.221
25668WAT      O77245   1.385   4.636   1.965
25668WAT     H177246   1.433   4.694   2.031
25668WAT     H277247   1.402   4.540   1.986
25669WAT      O77248   0.411   4.720   4.494
25669WAT     H177249   0.408   4.741   4.397
25669WAT     H277250   0.319   4.728   4.533
25670WAT      O77251   1.192   3.851   4.704
25670WAT     H177252   1.187   3.893   4.794
25670WAT     H277253   1.271   3.791   4.699
25671WAT      O77254   7.955   1.767   2.914
25671WAT     H177255   7.979   1.681   2.960
25671WAT     H277256   7.941   1.839   2.982
25672WAT      O77257   2.401   1.891   5.323
25672WAT     H177258   2.472   1.821   5.309
25672WAT     H277259   2.438   1.965   5.378
25673WAT      O77260   6.491   6.009   8.531
25673WAT     H177261   6.512   5.953   8.451
25673WAT     H277262   6.431   5.959   8.593
25674WAT      O77263   0.110   6.855   3.303
25674WAT     H177264   0.115   6.856   3.203
25674WAT     H277265   0.015   6.857   3.332
25675WAT      O77266   0.044   5.200   1.215
25675WAT     H177267   0.130   5.190   1.163
25675WAT     H277268  -0.031   5.217   1.151
25676WAT      O77269   1.504   8.215   8.415
25676WAT     H177270   1.531   8.223   8.319
25676WAT     H277271   1.439   8.287   8.437
25677WAT      O77272   1.074   2.020   8.918
25677WAT     H177273   1.113   2.083   8.851
25677WAT     H277274   1.096   1.926   8.892
25678WAT      O77275   1.877   7.214   8.837
25678WAT     H177276   1.951   7.281   8.830
25678WAT     H277277   1.900   7.147   8.908
25679WAT      O77278   4.135   4.821   4.791
25679WAT     H177279   4.183   4.909   4.783
25679WAT     H277280   4.067   4.814   4.718
25680WAT      O77281   5.735   9.128   9.351
25680WAT     H177282   5.691   9.186   9.419
25680WAT     H277283   5.680   9.045   9.338
25681WAT      O77284   5.007   9.561   6.756
25681WAT     H177285   5.081   9.624   6.779
25681WAT     H277286   4.976   9.579   6.663
25682WAT      O77287   6.055   2.277   6.983
25682WAT     H177288   6.154   2.263   6.988
25682WAT     H277289   6.023   2.262   6.890
25683WAT      O77290   6.482   4.458   1.693
25683WAT     H177291   6.503   4.520   1.769
25683WAT     H277292   6.494   4.364   1.724
25684WAT      O77293   7.401   1.549   4.466
25684WAT     H177294   7.373   1.598   4.548
25684WAT     H277295   7.320   1.525   4.412
25685WAT      O77296   5.103   3.133   4.247
25685WAT     H177297   5.160   3.051   4.238
25685WAT     H277298   5.048   3.127   4.330
25686WAT      O77299   6.197   8.816   0.287
25686WAT     H177300   6.242   8.879   0.225
25686WAT     H277301   6.196   8.724   0.247
25687WAT      O77302   2.269   1.893   4.656
25687WAT     H177303   2.332   1.941   4.718
25687WAT     H277304   2.318   1.819   4.611
25688WAT      O77305   3.887   6.234   0.722
25688WAT     H177306   3.986   6.250   0.720
25688WAT     H277307   3.865   6.168   0.794
25689WAT      O77308   8.978   3.074   4.732
25689WAT     H177309   9.006   3.047   4.640
25689WAT     H277310   9.054   3.118   4.779
25690WAT      O77311   8.979   4.118   2.079
25690WAT     H177312   8.985   4.024   2.114
25690WAT     H277313   8.883   4.144   2.071
25691WAT      O77314   4.964   8.262   0.656
25691WAT     H177315   4.974   8.331   0.585
25691WAT     H277316   4.963   8.171   0.613
25692WAT      O77317   7.113   1.408   6.750
25692WAT     H177318   7.161   1.475   6.806
25692WAT     H277319   7.037   1.369   6.802
25693WAT      O77320   5.704   6.581   9.709
25693WAT     H177321   5.763   6.660   9.727
25693WAT     H277322   5.749   6.521   9.642
25694WAT      O77323   0.773   3.887   1.062
25694WAT     H177324   0.789   3.788   1.056
25694WAT     H277325   0.731   3.909   1.150
25695WAT      O77326   3.501   1.527   8.830
25695WAT     H177327   3.600   1.528   8.820
25695WAT     H277328   3.466   1.620   8.821
25696WAT      O77329   1.438   8.083   0.618
25696WAT     H177330   1.406   8.047   0.531
25696WAT     H277331   1.523   8.134   0.604
25697WAT      O77332   5.938   4.624   4.701
25697WAT     H177333   5.954   4.605   4.604
25697WAT     H277334   6.000   4.568   4.756
25698WAT      O77335   6.437   2.383   6.681
25698WAT     H177336   6.378   2.304   6.698
25698WAT     H277337   6.528   2.352   6.654
25699WAT      O77338   5.869   2.977   2.835
25699WAT     H177339   5.915   3.032   2.766
25699WAT     H277340   5.902   2.883   2.830
25700WAT      O77341   8.174   4.572   9.522
25700WAT     H177342   8.182   4.518   9.438
25700WAT     H277343   8.218   4.522   9.597
25701WAT      O77344   9.342   1.550   4.004
25701WAT     H177345   9.364   1.562   3.907
25701WAT     H277346   9.425   1.522   4.053
25702WAT      O77347   6.841   6.191   6.230
25702WAT     H177348   6.775   6.174   6.158
25702WAT     H277349   6.860   6.106   6.279
25703WAT      O77350   8.420   5.185   7.236
25703WAT     H177351   8.482   5.234   7.297
25703WAT     H277352   8.326   5.198   7.268
25704WAT      O77353   1.677   5.569   0.836
25704WAT     H177354   1.605   5.502   0.853
25704WAT     H277355   1.724   5.590   0.922
25705WAT      O77356   7.498   3.276   5.942
25705WAT     H177357   7.571   3.257   5.876
25705WAT     H277358   7.538   3.295   6.032
25706WAT      O77359   6.277   1.151   2.728
25706WAT     H177360   6.192   1.160   2.675
25706WAT     H277361   6.272   1.209   2.810
25707WAT      O77362   7.892   0.435   5.117
25707WAT     H177363   7.950   0.512   5.142
25707WAT     H277364   7.908   0.360   5.181
25708WAT      O77365   3.718   6.057   9.005
25708WAT     H177366   3.803   6.105   9.027
25708WAT     H277367   3.737   5.982   8.942
25709WAT      O77368   5.063   0.120   2.462
25709WAT     H177369   5.088   0.215   2.478
25709WAT     H277370   4.987   0.115   2.399
25710WAT      O77371   4.551   0.459   3.871
25710WAT     H177372   4.571   0.517   3.950
25710WAT     H277373   4.593   0.369   3.884
25711WAT      O77374   5.823   2.902   7.666
25711WAT     H177375   5.814   2.933   7.571
25711WAT     H277376   5.846   2.980   7.724
25712WAT      O77377   5.838   2.672   2.987
25712WAT     H177378   5.879   2.676   2.896
25712WAT     H277379   5.895   2.724   3.051
25713WAT      O77380   7.527   5.932   9.315
25713WAT     H177381   7.541   5.893   9.405
25713WAT     H277382   7.442   5.895   9.275
25714WAT      O77383   7.812   6.838   9.711
25714WAT     H177384   7.726   6.814   9.666
25714WAT     H277385   7.795   6.903   9.785
25715WAT      O77386   5.530   6.432   6.316
25715WAT     H177387   5.614   6.487   6.320
25715WAT     H277388   5.554   6.335   6.321
25716WAT      O77389   0.734   6.532   5.648
25716WAT     H177390   0.779   6.503   5.563
25716WAT     H277391   0.795   6.514   5.725
25717WAT      O77392   6.709   4.337   6.145
25717WAT     H177393   6.781   4.274   6.118
25717WAT     H277394   6.733   4.430   6.117
25718WAT      O77395   8.495   3.705   7.996
25718WAT     H177396   8.485   3.798   8.029
25718WAT     H277397   8.407   3.657   8.007
25719WAT      O77398   0.426   3.788   7.940
25719WAT     H177399   0.438   3.885   7.920
25719WAT     H277400   0.470   3.766   8.027
25720WAT      O77401   3.887   4.157   0.214
25720WAT     H177402   3.938   4.107   0.284
25720WAT     H277403   3.889   4.255   0.235
25721WAT      O77404   0.277   6.565   2.392
25721WAT     H177405   0.323   6.642   2.437
25721WAT     H277406   0.292   6.481   2.444
25722WAT      O77407   5.764   9.044   4.787
25722WAT     H177408   5.671   9.082   4.787
25722WAT     H277409   5.759   8.946   4.801
25723WAT      O77410   0.379   0.375   1.871
25723WAT     H177411   0.475   0.364   1.845
25723WAT     H277412   0.323   0.377   1.789
25724WAT      O77413   6.396   5.015   7.712
25724WAT     H177414   6.298   4.995   7.723
25724WAT     H277415   6.447   4.929   7.718
25725WAT      O77416   4.952   9.412   6.071
25725WAT     H177417   4.902   9.349   6.012
25725WAT     H277418   4.924   9.399   6.166
25726WAT      O77419   8.657   6.394   4.244
25726WAT     H177420   8.700   6.440   4.166
25726WAT     H277421   8.650   6.296   4.225
25727WAT      O77422   9.828   7.188   5.573
25727WAT     H177423   9.866   7.280   5.563
25727WAT     H277424   9.871   7.143   5.652
25728WAT      O77425   5.664   2.785   4.444
25728WAT     H177426   5.763   2.774   4.452
25728WAT     H277427   5.619   2.699   4.466
25729WAT      O77428   2.269   9.438   9.553
25729WAT     H177429   2.261   9.502   9.630
25729WAT     H277430   2.181   9.394   9.537
25730WAT      O77431   6.611   4.752   9.446
25730WAT     H177432   6.580   4.801   9.365
25730WAT     H277433   6.560   4.783   9.526
25731WAT      O77434   3.769   5.746   3.260
25731WAT     H177435   3.809   5.722   3.171
25731WAT     H277436   3.833   5.722   3.333
25732WAT      O77437   0.651   2.922   1.040
25732WAT     H177438   0.725   2.927   1.107
25732WAT     H277439   0.589   2.999   1.053
25733WAT      O77440   1.445   0.089   5.735
25733WAT     H177441   1.426   0.167   5.674
25733WAT     H277442   1.408   0.006   5.695
25734WAT      O77443   6.614   8.535   1.551
25734WAT     H177444   6.641   8.572   1.462
25734WAT     H277445   6.670   8.455   1.571
25735WAT      O77446   6.131   0.387   8.232
25735WAT     H177447   6.172   0.344   8.313
25735WAT     H277448   6.070   0.460   8.260
25736WAT      O77449   6.386   3.303   6.529
25736WAT     H177450   6.374   3.230   6.596
25736WAT     H277451   6.408   3.264   6.440
25737WAT      O77452   7.713   2.887   2.747
25737WAT     H177453   7.614   2.882   2.756
25737WAT     H277454   7.737   2.953   2.675
25738WAT      O77455   4.720   1.833   6.551
25738WAT     H177456   4.720   1.791   6.642
25738WAT     H277457   4.809   1.874   6.533
25739WAT      O77458   4.529   7.587   5.328
25739WAT     H177459   4.546   7.504   5.274
25739WAT     H277460   4.460   7.643   5.283
25740WAT      O77461   1.931   7.829   6.602
25740WAT     H177462   1.989   7.767   6.549
25740WAT     H277463   1.952   7.819   6.699
25741WAT      O77464   7.740   7.982   2.144
25741WAT     H177465   7.789   8.068   2.128
25741WAT     H277466   7.777   7.911   2.085
25742WAT      O77467   3.066   7.207   6.922
25742WAT     H177468   3.103   7.172   7.008
25742WAT     H277469   3.093   7.147   6.847
25743WAT      O77470   7.175   1.333   3.113
25743WAT     H177471   7.245   1.369   3.052
25743WAT     H277472   7.104   1.402   3.126
25744WAT      O77473   3.167   0.498   5.655
25744WAT     H177474   3.235   0.425   5.644
25744WAT     H277475   3.114   0.508   5.571
25745WAT      O77476   1.314   6.533   5.823
25745WAT     H177477   1.263   6.511   5.740
25745WAT     H277478   1.262   6.601   5.876
25746WAT      O77479   9.638   6.510   6.529
25746WAT     H177480   9.687   6.423   6.531
25746WAT     H277481   9.654   6.560   6.614
25747WAT      O77482   5.622   0.938   4.452
25747WAT     H177483   5.669   1.026   4.446
25747WAT     H277484   5.671   0.870   4.398
25748WAT      O77485   6.751   3.942   1.818
25748WAT     H177486   6.761   4.024   1.761
25748WAT     H277487   6.812   3.870   1.784
25749WAT      O77488   0.455   9.452   6.134
25749WAT     H177489   0.371   9.397   6.138
25749WAT     H277490   0.434   9.541   6.094
25750WAT      O77491   9.744   2.307   3.775
25750WAT     H177492   9.766   2.272   3.684
25750WAT     H277493   9.764   2.237   3.844
25751WAT      O77494   5.139   1.148   1.102
25751WAT     H177495   5.199   1.148   1.023
25751WAT     H277496   5.135   1.056   1.142
25752WAT      O77497   3.700   3.268   0.329
25752WAT     H177498   3.608   3.284   0.292
25752WAT     H277499   3.769   3.296   0.262
25753WAT      O77500   3.324   9.135   0.537
25753WAT     H177501   3.404   9.172   0.490
25753WAT     H277502   3.254   9.111   0.469
25754WAT      O77503   6.920   5.207   7.645
25754WAT     H177504   6.880   5.124   7.684
25754WAT     H277505   6.988   5.244   7.710
25755WAT      O77506   4.522   5.663   8.470
25755WAT     H177507   4.581   5.737   8.436
25755WAT     H277508   4.537   5.650   8.568
25756WAT      O77509   5.809   1.864   5.280
25756WAT     H177510   5.813   1.783   5.338
25756WAT     H277511   5.800   1.836   5.184
25757WAT      O77512   2.053   7.800   4.547
25757WAT     H177513   2.046   7.701   4.540
25757WAT     H277514   2.075   7.839   4.457
25758WAT      O77515   9.341   3.434   9.687
25758WAT     H177516   9.293   3.383   9.758
25758WAT     H277517   9.408   3.374   9.642
25759WAT      O77518   5.958   2.986   9.478
25759WAT     H177519   5.980   2.955   9.571
25759WAT     H277520   6.031   2.958   9.415
25760WAT      O77521   1.269   5.684   6.160
25760WAT     H177522   1.220   5.650   6.079
25760WAT     H277523   1.204   5.722   6.225
25761WAT      O77524   9.785   6.608   0.593
25761WAT     H177525   9.712   6.540   0.604
25761WAT     H277526   9.751   6.684   0.538
25762WAT      O77527   2.968   1.744   7.170
25762WAT     H177528   3.014   1.680   7.108
25762WAT     H277529   2.934   1.822   7.119
25763WAT      O77530   9.498   9.483   8.418
25763WAT     H177531   9.584   9.530   8.439
25763WAT     H277532   9.515   9.412   8.350
25764WAT      O77533   5.900   3.547   7.693
25764WAT     H177534   5.945   3.608   7.628
25764WAT     H277535   5.861   3.602   7.767
25765WAT      O77536   7.413   6.150   9.180
25765WAT     H177537   7.457   6.080   9.236
25765WAT     H277538   7.369   6.107   9.101
25766WAT      O77539   6.179   7.605   1.184
25766WAT     H177540   6.218   7.664   1.255
25766WAT     H277541   6.079   7.616   1.183
25767WAT      O77542   8.117   8.637   9.358
25767WAT     H177543   8.216   8.650   9.370
25767WAT     H277544   8.100   8.602   9.266
25768WAT      O77545   3.003   0.030   4.801
25768WAT     H177546   2.955   0.082   4.730
25768WAT     H277547   3.041   0.093   4.868
25769WAT      O77548   3.599   7.647   7.169
25769WAT     H177549   3.504   7.636   7.140
25769WAT     H277550   3.616   7.590   7.249
25770WAT      O77551   0.589   4.089   8.524
25770WAT     H177552   0.545   4.164   8.573
25770WAT     H277553   0.686   4.111   8.510
25771WAT      O77554   5.258   3.548   4.709
25771WAT     H177555   5.220   3.506   4.791
25771WAT     H277556   5.183   3.582   4.652
25772WAT      O77557   4.180   8.360   1.933
25772WAT     H177558   4.202   8.352   1.835
25772WAT     H277559   4.109   8.430   1.945
25773WAT      O77560   7.824   5.745   0.067
25773WAT     H177561   7.792   5.671   0.009
25773WAT     H277562   7.797   5.727   0.162
25774WAT      O77563   1.527   4.640   0.445
25774WAT     H177564   1.515   4.547   0.480
25774WAT     H277565   1.443   4.670   0.400
25775WAT      O77566   8.447   4.252   2.850
25775WAT     H177567   8.476   4.156   2.840
25775WAT     H277568   8.356   4.263   2.811
25776WAT      O77569   6.834   1.262   7.814
25776WAT     H177570   6.834   1.245   7.912
25776WAT     H277571   6.926   1.250   7.778
25777WAT      O77572   8.588   9.389   8.037
25777WAT     H177573   8.645   9.316   8.000
25777WAT     H277574   8.645   9.469   8.057
25778WAT      O77575   6.729   4.987   4.244
25778WAT     H177576   6.741   4.888   4.251
25778WAT     H277577   6.704   5.023   4.334
25779WAT      O77578   2.164   9.118   6.995
25779WAT     H177579   2.232   9.077   7.055
25779WAT     H277580   2.092   9.161   7.051
25780WAT      O77581   3.994   3.131   8.323
25780WAT     H177582   3.984   3.216   8.374
25780WAT     H277583   3.999   3.054   8.386
25781WAT      O77584   3.970   6.391   6.802
25781WAT     H177585   3.961   6.336   6.884
25781WAT     H277586   3.879   6.413   6.766
25782WAT      O77587   3.489   5.330   4.208
25782WAT     H177588   3.469   5.270   4.286
25782WAT     H277589   3.588   5.347   4.203
25783WAT      O77590   9.264   7.363   5.510
25783WAT     H177591   9.228   7.427   5.578
25783WAT     H277592   9.209   7.369   5.427
25784WAT      O77593   7.527   4.708   3.422
25784WAT     H177594   7.527   4.654   3.338
25784WAT     H277595   7.436   4.706   3.463
25785WAT      O77596   9.522   6.783   9.100
25785WAT     H177597   9.619   6.760   9.098
25785WAT     H277598   9.469   6.708   9.060
25786WAT      O77599   0.533   4.326   1.070
25786WAT     H177600   0.572   4.412   1.036
25786WAT     H277601   0.515   4.265   0.993
25787WAT      O77602   9.201   5.920   4.598
25787WAT     H177603   9.253   6.003   4.617
25787WAT     H277604   9.261   5.851   4.557
25788WAT      O77605   5.085   9.484   9.557
25788WAT     H177606   5.013   9.529   9.503
25788WAT     H277607   5.058   9.390   9.576
25789WAT      O77608   7.003   7.416   3.015
25789WAT     H177609   7.029   7.513   3.022
25789WAT     H277610   7.001   7.390   2.919
25790WAT      O77611   6.737   7.230   3.388
25790WAT     H177612   6.699   7.316   3.352
25790WAT     H277613   6.797   7.188   3.319
25791WAT      O77614   8.756   7.571   5.308
25791WAT     H177615   8.722   7.644   5.367
25791WAT     H277616   8.847   7.542   5.340
25792WAT      O77617   8.804   9.274   3.109
25792WAT     H177618   8.752   9.209   3.165
25792WAT     H277619   8.852   9.338   3.168
25793WAT      O77620   3.733   8.690   8.569
25793WAT     H177621   3.644   8.668   8.610
25793WAT     H277622   3.733   8.785   8.539
25794WAT      O77623   7.834   5.879   6.463
25794WAT     H177624   7.841   5.871   6.363
25794WAT     H277625   7.764   5.815   6.496
25795WAT      O77626   2.916   6.690   5.822
25795WAT     H177627   2.944   6.634   5.900
25795WAT     H277628   2.816   6.695   5.819
25796WAT      O77629   7.724   8.998   2.825
25796WAT     H177630   7.660   9.035   2.757
25796WAT     H277631   7.685   9.008   2.916
25797WAT      O77632   3.826   0.405   8.550
25797WAT     H177633   3.826   0.437   8.455
25797WAT     H277634   3.748   0.442   8.598
25798WAT      O77635   1.760   8.197   5.687
25798WAT     H177636   1.686   8.264   5.700
25798WAT     H277637   1.829   8.208   5.758
25799WAT      O77638   0.913   7.661  -0.003
25799WAT     H177639   0.879   7.568   0.014
25799WAT     H277640   0.918   7.711   0.083
25800WAT      O77641   3.240   3.833   4.715
25800WAT     H177642   3.326   3.818   4.764
25800WAT     H277643   3.259   3.842   4.618
25801WAT      O77644   0.295   4.720   8.448
25801WAT     H177645   0.253   4.809   8.432
25801WAT     H277646   0.285   4.664   8.366
25802WAT      O77647   7.392   1.839   9.557
25802WAT     H177648   7.468   1.834   9.492
25802WAT     H277649   7.355   1.932   9.557
25803WAT      O77650   4.591   2.458   1.828
25803WAT     H177651   4.630   2.381   1.777
25803WAT     H277652   4.571   2.533   1.765
25804WAT      O77653   9.859   4.332   5.622
25804WAT     H177654   9.916   4.327   5.704
25804WAT     H277655   9.770   4.371   5.646
25805WAT      O77656   5.840   2.664   5.508
25805WAT     H177657   5.755   2.664   5.561
25805WAT     H277658   5.915   2.631   5.566
25806WAT      O77659   7.158   0.043   8.123
25806WAT     H177660   7.175   0.109   8.049
25806WAT     H277661   7.234  -0.022   8.127
25807WAT      O77662   7.651   5.835   7.574
25807WAT     H177663   7.683   5.852   7.481
25807WAT     H277664   7.577   5.767   7.573
25808WAT      O77665   9.192   0.258   8.013
25808WAT     H177666   9.237   0.268   7.925
25808WAT     H277667   9.245   0.196   8.071
25809WAT      O77668   6.444   0.152   9.759
25809WAT     H177669   6.477   0.066   9.797
25809WAT     H277670   6.438   0.146   9.660
25810WAT      O77671   8.790   0.029   9.168
25810WAT     H177672   8.817   0.076   9.252
25810WAT     H277673   8.722   0.084   9.119
25811WAT      O77674   1.047   4.953   6.409
25811WAT     H177675   1.036   4.984   6.504
25811WAT     H277676   1.144   4.937   6.390
25812WAT      O77677   9.462   8.847   8.146
25812WAT     H177678   9.466   8.897   8.232
25812WAT     H277679   9.541   8.872   8.089
25813WAT      O77680   5.959   9.350   3.022
25813WAT     H177681   5.985   9.260   3.057
25813WAT     H277682   6.041   9.402   2.998
25814WAT      O77683   7.984   8.029   0.107
25814WAT     H177684   7.980   7.983   0.196
25814WAT     H277685   8.079   8.044   0.082
25815WAT      O77686   7.160   6.932   9.283
25815WAT     H177687   7.203   6.897   9.367
25815WAT     H277688   7.063   6.906   9.282
25816WAT      O77689   5.560   3.414   1.069
25816WAT     H177690   5.575   3.411   0.970
25816WAT     H277691   5.464   3.394   1.089
25817WAT      O77692   1.473   7.304   7.112
25817WAT     H177693   1.541   7.376   7.108
25817WAT     H277694   1.463   7.272   7.206
25818WAT      O77695   0.937   5.963   8.895
25818WAT     H177696   0.887   5.934   8.977
25818WAT     H277697   0.906   6.055   8.869
25819WAT      O77698   9.414   9.811   3.076
25819WAT     H177699   9.425   9.910   3.089
25819WAT     H277700   9.369   9.772   3.156
25820WAT      O77701   0.842   0.007   9.806
25820WAT     H177702   0.832   0.014   9.906
25820WAT     H277703   0.893  -0.075   9.783
25821WAT      O77704   8.430   7.132   9.739
25821WAT     H177705   8.486   7.109   9.819
25821WAT     H277706   8.453   7.071   9.664
25822WAT      O77707   1.725   4.310   5.000
25822WAT     H177708   1.726   4.403   4.964
25822WAT     H277709   1.653   4.258   4.955
25823WAT      O77710   6.250   4.069   1.682
25823WAT     H177711   6.259   3.989   1.741
25823WAT     H277712   6.196   4.139   1.729
25824WAT      O77713   9.042   5.113   1.232
25824WAT     H177714   9.018   5.059   1.312
25824WAT     H277715   9.100   5.059   1.171
25825WAT      O77716   1.332   7.090   6.400
25825WAT     H177717   1.396   7.159   6.434
25825WAT     H277718   1.375   7.000   6.401
25826WAT      O77719   5.893   9.350   5.416
25826WAT     H177720   5.972   9.392   5.460
25826WAT     H277721   5.810   9.400   5.441
25827WAT      O77722   5.821   8.906   4.225
25827WAT     H177723   5.915   8.918   4.255
25827WAT     H277724   5.771   8.850   4.292
25828WAT      O77725   5.920   5.577   5.678
25828WAT     H177726   5.824   5.574   5.650
25828WAT     H277727   5.969   5.643   5.620
25829WAT      O77728   0.496   8.638   7.119
25829WAT     H177729   0.479   8.550   7.076
25829WAT     H277730   0.443   8.709   7.074
25830WAT      O77731   8.413   4.967   5.409
25830WAT     H177732   8.357   4.911   5.349
25830WAT     H277733   8.469   4.907   5.468
25831WAT      O77734   3.499   4.802   1.934
25831WAT     H177735   3.553   4.878   1.970
25831WAT     H277736   3.513   4.795   1.835
25832WAT      O77737   1.460   7.385   1.291
25832WAT     H177738   1.525   7.410   1.219
25832WAT     H277739   1.487   7.426   1.378
25833WAT      O77740   3.155   7.135   7.195
25833WAT     H177741   3.150   7.045   7.239
25833WAT     H277742   3.140   7.207   7.264
25834WAT      O77743   9.136   0.275   5.027
25834WAT     H177744   9.204   0.349   5.027
25834WAT     H277745   9.163   0.205   5.093
25835WAT      O77746   0.745   4.146   7.351
25835WAT     H177747   0.687   4.175   7.427
25835WAT     H277748   0.836   4.122   7.385
25836WAT      O77749   1.689   5.204   0.872
25836WAT     H177750   1.613   5.269   0.872
25836WAT     H277751   1.664   5.123   0.818
25837WAT      O77752   3.916   5.610   3.030
25837WAT     H177753   3.867   5.539   2.979
25837WAT     H277754   4.006   5.576   3.058
25838WAT      O77755   4.089   4.884   9.047
25838WAT     H177756   4.141   4.851   8.969
25838WAT     H277757   4.019   4.949   9.016
25839WAT      O77758   9.513   1.849   2.609
25839WAT     H177759   9.458   1.830   2.691
25839WAT     H277760   9.607   1.818   2.624
25840WAT      O77761   6.915   7.649   3.887
25840WAT     H177762   6.978   7.673   3.962
25840WAT     H277763   6.881   7.556   3.902
25841WAT      O77764   0.866   7.387   0.054
25841WAT     H177765   0.828   7.352   0.139
25841WAT     H277766   0.953   7.342   0.035
25842WAT      O77767   3.498   1.683   3.848
25842WAT     H177768   3.586   1.654   3.811
25842WAT     H277769   3.503   1.682   3.948
25843WAT      O77770   6.554   6.993   1.522
25843WAT     H177771   6.540   6.912   1.578
25843WAT     H277772   6.467   7.020   1.480
25844WAT      O77773   7.933   8.526   0.055
25844WAT     H177774   7.900   8.456   0.118
25844WAT     H277775   7.873   8.531  -0.024
25845WAT      O77776   4.603   2.061   1.479
25845WAT     H177777   4.691   2.028   1.445
25845WAT     H277778   4.543   2.081   1.402
25846WAT      O77779   4.960   3.424   6.439
25846WAT     H177780   4.869   3.462   6.427
25846WAT     H277781   4.970   3.388   6.532
25847WAT      O77782   5.891   7.154   1.246
25847WAT     H177783   5.869   7.222   1.176
25847WAT     H277784   5.862   7.188   1.336
25848WAT      O77785   4.665   6.355   2.400
25848WAT     H177786   4.565   6.348   2.404
25848WAT     H277787   4.692   6.404   2.318
25849WAT      O77788   2.509   0.452   2.586
25849WAT     H177789   2.470   0.446   2.677
25849WAT     H277790   2.496   0.544   2.549
25850WAT      O77791   4.609   1.358   3.797
25850WAT     H177792   4.606   1.446   3.751
25850WAT     H277793   4.555   1.291   3.745
25851WAT      O77794   8.319   6.323   7.849
25851WAT     H177795   8.404   6.286   7.887
25851WAT     H277796   8.246   6.314   7.917
25852WAT      O77797   7.675   9.561   4.300
25852WAT     H177798   7.770   9.594   4.295
25852WAT     H277799   7.622   9.602   4.226
25853WAT      O77800   3.417   9.272   2.447
25853WAT     H177801   3.509   9.293   2.413
25853WAT     H277802   3.417   9.183   2.492
25854WAT      O77803   1.816   8.120   0.890
25854WAT     H177804   1.842   8.028   0.862
25854WAT     H277805   1.885   8.157   0.952
25855WAT      O77806   1.835   1.767   0.211
25855WAT     H177807   1.793   1.676   0.211
25855WAT     H277808   1.890   1.778   0.294
25856WAT      O77809   0.352   9.298   8.895
25856WAT     H177810   0.443   9.301   8.936
25856WAT     H277811   0.355   9.240   8.813
25857WAT      O77812   6.734   2.774   7.005
25857WAT     H177813   6.734   2.870   6.980
25857WAT     H277814   6.778   2.720   6.933
25858WAT      O77815   8.134   6.546   1.332
25858WAT     H177816   8.061   6.479   1.345
25858WAT     H277817   8.157   6.589   1.419
25859WAT      O77818   0.184   0.926   4.398
25859WAT     H177819   0.241   0.983   4.458
25859WAT     H277820   0.172   0.836   4.439
25860WAT      O77821   3.583   8.642   5.037
25860WAT     H177822   3.636   8.706   4.980
25860WAT     H277823   3.529   8.582   4.978
25861WAT      O77824   2.037   3.369   7.762
25861WAT     H177825   2.006   3.442   7.822
25861WAT     H277826   2.104   3.405   7.696
25862WAT      O77827   4.109   6.386   6.051
25862WAT     H177828   4.209   6.374   6.049
25862WAT     H277829   4.086   6.463   6.112
25863WAT      O77830   0.818   6.233   4.793
25863WAT     H177831   0.859   6.236   4.702
25863WAT     H277832   0.796   6.139   4.818
25864WAT      O77833   4.740   9.744   0.077
25864WAT     H177834   4.716   9.661   0.129
25864WAT     H277835   4.789   9.718  -0.005
25865WAT      O77836   3.292   2.733   2.266
25865WAT     H177837   3.316   2.799   2.338
25865WAT     H277838   3.348   2.651   2.276
25866WAT      O77839   3.795   8.466   5.991
25866WAT     H177840   3.701   8.436   6.008
25866WAT     H277841   3.859   8.401   6.032
25867WAT      O77842   7.803   0.317   5.900
25867WAT     H177843   7.807   0.299   5.999
25867WAT     H277844   7.799   0.416   5.885
25868WAT      O77845   6.926   5.453   1.083
25868WAT     H177846   6.882   5.397   1.013
25868WAT     H277847   6.858   5.478   1.152
25869WAT      O77848   5.072   7.848   6.100
25869WAT     H177849   5.121   7.832   6.015
25869WAT     H277850   5.055   7.761   6.146
25870WAT      O77851   5.614   0.166   9.420
25870WAT     H177852   5.566   0.142   9.335
25870WAT     H277853   5.548   0.169   9.495
25871WAT      O77854   2.645   9.712   0.122
25871WAT     H177855   2.729   9.701   0.175
25871WAT     H277856   2.634   9.634   0.060
25872WAT      O77857   2.741   9.647   6.959
25872WAT     H177858   2.710   9.574   6.897
25872WAT     H277859   2.817   9.613   7.014
25873WAT      O77860   6.271   2.142   5.190
25873WAT     H177861   6.296   2.095   5.275
25873WAT     H277862   6.172   2.145   5.181
25874WAT      O77863   6.944   3.886   4.276
25874WAT     H177864   7.031   3.890   4.227
25874WAT     H277865   6.939   3.962   4.341
25875WAT      O77866   9.562   9.347   9.790
25875WAT     H177867   9.495   9.273   9.793
25875WAT     H277868   9.558   9.392   9.700
25876WAT      O77869   7.065   1.737   8.575
25876WAT     H177870   7.005   1.817   8.580
25876WAT     H277871   7.076   1.710   8.480
25877WAT      O77872   7.781   4.571   4.543
25877WAT     H177873   7.815   4.477   4.542
25877WAT     H277874   7.700   4.579   4.486
25878WAT      O77875   7.775   0.612   8.920
25878WAT     H177876   7.856   0.576   8.966
25878WAT     H277877   7.793   0.622   8.823
25879WAT      O77878   9.746   8.014   3.727
25879WAT     H177879   9.782   8.093   3.778
25879WAT     H277880   9.665   8.042   3.675
25880WAT      O77881   5.844   8.099   3.677
25880WAT     H177882   5.938   8.086   3.644
25880WAT     H277883   5.785   8.119   3.599
25881WAT      O77884   4.212   1.505   3.864
25881WAT     H177885   4.180   1.579   3.924
25881WAT     H277886   4.273   1.445   3.915
25882WAT      O77887   7.103   7.802   8.529
25882WAT     H177888   7.004   7.816   8.519
25882WAT     H277889   7.151   7.886   8.506
25883WAT      O77890   3.603   6.304   3.601
25883WAT     H177891   3.536   6.361   3.554
25883WAT     H277892   3.627   6.345   3.688
25884WAT      O77893   7.918   4.891   1.540
25884WAT     H177894   7.960   4.832   1.470
25884WAT     H277895   7.828   4.920   1.509
25885WAT      O77896   4.464   7.815   7.558
25885WAT     H177897   4.497   7.858   7.475
25885WAT     H277898   4.502   7.862   7.638
25886WAT      O77899   8.699   0.818   1.045
25886WAT     H177900   8.667   0.771   0.962
25886WAT     H277901   8.649   0.783   1.124
25887WAT      O77902   7.740   6.223   8.081
25887WAT     H177903   7.794   6.140   8.067
25887WAT     H277904   7.768   6.267   8.167
25888WAT      O77905   6.287   2.140   3.487
25888WAT     H177906   6.251   2.226   3.522
25888WAT     H277907   6.251   2.064   3.541
25889WAT      O77908   0.942   2.532   9.184
25889WAT     H177909   1.036   2.548   9.214
25889WAT     H277910   0.910   2.444   9.219
25890WAT      O77911   8.815   7.016   5.503
25890WAT     H177912   8.728   7.048   5.464
25890WAT     H277913   8.831   6.922   5.474
25891WAT      O77914   5.284   1.724   5.718
25891WAT     H177915   5.316   1.687   5.630
25891WAT     H277916   5.357   1.717   5.786
25892WAT      O77917   6.631   4.973   1.116
25892WAT     H177918   6.668   4.882   1.135
25892WAT     H277919   6.605   5.017   1.202
25893WAT      O77920   0.727   6.704   4.392
25893WAT     H177921   0.715   6.741   4.485
25893WAT     H277922   0.645   6.653   4.366
25894WAT      O77923   7.535   0.813   9.716
25894WAT     H177924   7.520   0.733   9.658
25894WAT     H277925   7.450   0.835   9.765
25895WAT      O77926   1.115   3.955   4.958
25895WAT     H177927   1.152   3.891   5.026
25895WAT     H277928   1.150   4.047   4.976
25896WAT      O77929   6.174   0.025   8.790
25896WAT     H177930   6.259   0.077   8.785
25896WAT     H277931   6.106   0.067   8.729
25897WAT      O77932   6.716   5.074   4.489
25897WAT     H177933   6.635   5.039   4.537
25897WAT     H277934   6.798   5.046   4.539
25898WAT      O77935   6.656   6.266   1.306
25898WAT     H177936   6.658   6.180   1.358
25898WAT     H277937   6.704   6.337   1.358
25899WAT      O77938   6.633   2.937   6.363
25899WAT     H177939   6.600   2.932   6.268
25899WAT     H277940   6.563   2.901   6.424
25900WAT      O77941   2.099   0.462   6.078
25900WAT     H177942   2.002   0.454   6.101
25900WAT     H277943   2.154   0.431   6.156
25901WAT      O77944   9.136   5.912   8.189
25901WAT     H177945   9.163   5.896   8.284
25901WAT     H277946   9.044   5.953   8.187
25902WAT      O77947   9.876   4.913   1.242
25902WAT     H177948   9.813   4.940   1.315
25902WAT     H277949   9.940   4.988   1.225
25903WAT      O77950   3.126   5.851   5.874
25903WAT     H177951   3.038   5.889   5.903
25903WAT     H277952   3.193   5.860   5.948
25904WAT      O77953   5.071   9.329   3.931
25904WAT     H177954   5.135   9.401   3.903
25904WAT     H277955   4.999   9.370   3.987
25905WAT      O77956   5.315   2.600   7.374
25905WAT     H177957   5.362   2.683   7.405
25905WAT     H277958   5.344   2.522   7.430
25906WAT      O77959   2.844   5.548   3.501
25906WAT     H177960   2.917   5.587   3.444
25906WAT     H277961   2.832   5.451   3.477
25907WAT      O77962   6.139   3.006   0.142
25907WAT     H177963   6.047   2.966   0.145
25907WAT     H277964   6.133   3.098   0.104
25908WAT      O77965   4.958   2.823   1.118
25908WAT     H177966   4.947   2.798   1.022
25908WAT     H277967   5.055   2.843   1.137
25909WAT      O77968   0.636   3.078   3.724
25909WAT     H177969   0.572   3.155   3.732
25909WAT     H277970   0.676   3.059   3.813
25910WAT      O77971   0.265   0.319   5.195
25910WAT     H177972   0.309   0.231   5.178
25910WAT     H277973   0.174   0.319   5.154
25911WAT      O77974   8.020   0.736   2.314
25911WAT     H177975   7.970   0.733   2.400
25911WAT     H277976   7.957   0.720   2.238
25912WAT      O77977   3.814   8.039   4.732
25912WAT     H177978   3.781   8.032   4.826
25912WAT     H277979   3.784   7.960   4.679
25913WAT      O77980   7.051   9.669   9.343
25913WAT     H177981   7.049   9.578   9.387
25913WAT     H277982   7.145   9.704   9.344
25914WAT      O77983   5.482   7.237   3.893
25914WAT     H177984   5.423   7.307   3.934
25914WAT     H277985   5.456   7.148   3.929
25915WAT      O77986   3.818   6.999   9.092
25915WAT     H177987   3.861   7.057   9.161
25915WAT     H277988   3.889   6.945   9.046
25916WAT      O77989   5.555   9.508   8.780
25916WAT     H177990   5.568   9.554   8.692
25916WAT     H277991   5.612   9.426   8.783
25917WAT      O77992   8.247   8.961   7.714
25917WAT     H177993   8.276   8.973   7.619
25917WAT     H277994   8.149   8.980   7.722
25918WAT      O77995   6.057   6.776   8.494
25918WAT     H177996   5.978   6.714   8.502
25918WAT     H277997   6.062   6.810   8.400
25919WAT      O77998   2.203   5.651   6.089
25919WAT     H177999   2.288   5.680   6.046
25919WAT     H278000   2.130   5.715   6.065
25920WAT      O78001   8.666   8.389   7.048
25920WAT     H178002   8.613   8.314   7.087
25920WAT     H278003   8.647   8.473   7.098
25921WAT      O78004   5.607   4.169   0.307
25921WAT     H178005   5.584   4.256   0.262
25921WAT     H278006   5.672   4.119   0.250
25922WAT      O78007   1.891   1.299   0.115
25922WAT     H178008   1.833   1.369   0.157
25922WAT     H278009   1.977   1.340   0.085
25923WAT      O78010   5.730   7.729   7.559
25923WAT     H178011   5.725   7.829   7.560
25923WAT     H278012   5.815   7.700   7.604
25924WAT      O78013   8.354   8.351   4.455
25924WAT     H178014   8.354   8.431   4.515
25924WAT     H278015   8.406   8.277   4.499
25925WAT      O78016   3.625   2.237   5.366
25925WAT     H178017   3.723   2.251   5.380
25925WAT     H278018   3.578   2.245   5.454
25926WAT      O78019   1.323   5.785   3.934
25926WAT     H178020   1.376   5.858   3.978
25926WAT     H278021   1.377   5.701   3.934
25927WAT      O78022   0.946   7.230   5.315
25927WAT     H178023   0.857   7.189   5.297
25927WAT     H278024   0.994   7.245   5.228
25928WAT      O78025   3.116   2.829   9.221
25928WAT     H178026   3.156   2.914   9.187
25928WAT     H278027   3.157   2.752   9.172
25929WAT      O78028   4.671   3.659   5.666
25929WAT     H178029   4.613   3.704   5.597
25929WAT     H278030   4.640   3.685   5.757
25930WAT      O78031   2.765   1.131   4.294
25930WAT     H178032   2.763   1.152   4.197
25930WAT     H278033   2.849   1.168   4.334
25931WAT      O78034   0.422   0.012   6.913
25931WAT     H178035   0.328   0.038   6.894
25931WAT     H278036   0.459  -0.038   6.835
25932WAT      O78037   3.099   5.049   3.702
25932WAT     H178038   3.141   4.986   3.768
25932WAT     H278039   3.018   5.006   3.662
25933WAT      O78040   0.985   9.766   4.032
25933WAT     H178041   1.054   9.801   3.970
25933WAT     H278042   0.999   9.668   4.046
25934WAT      O78043   1.165   6.428   1.667
25934WAT     H178044   1.119   6.391   1.586
25934WAT     H278045   1.153   6.528   1.670
25935WAT      O78046   9.124   9.495   7.477
25935WAT     H178047   9.184   9.558   7.427
25935WAT     H278048   9.173   9.410   7.494
25936WAT      O78049   4.989   1.381   5.222
25936WAT     H178050   4.926   1.420   5.289
25936WAT     H278051   5.077   1.428   5.228
25937WAT      O78052   2.698   9.537   9.442
25937WAT     H178053   2.634   9.600   9.399
25937WAT     H278054   2.647   9.463   9.487
25938WAT      O78055   8.057   7.952   1.994
25938WAT     H178056   8.049   7.868   1.941
25938WAT     H278057   8.058   7.930   2.092
25939WAT      O78058   6.127   4.050   4.810
25939WAT     H178059   6.059   4.060   4.737
25939WAT     H278060   6.151   3.953   4.819
25940WAT      O78061   4.523   5.328   8.088
25940WAT     H178062   4.608   5.352   8.040
25940WAT     H278063   4.494   5.406   8.144
25941WAT      O78064   9.028   2.079   8.069
25941WAT     H178065   9.073   1.992   8.089
25941WAT     H278066   8.929   2.065   8.066
25942WAT      O78067   3.304   8.307   4.324
25942WAT     H178068   3.229   8.262   4.372
25942WAT     H278069   3.305   8.405   4.345
25943WAT      O78070   1.538   8.499   8.143
25943WAT     H178071   1.495   8.520   8.055
25943WAT     H278072   1.556   8.401   8.149
25944WAT      O78073   8.656   1.936   9.152
25944WAT     H178074   8.755   1.947   9.150
25944WAT     H278075   8.631   1.858   9.210
25945WAT      O78076   3.949   8.176   6.629
25945WAT     H178077   3.883   8.118   6.675
25945WAT     H278078   3.975   8.135   6.541
25946WAT      O78079   1.727   5.711   6.078
25946WAT     H178080   1.724   5.653   5.997
25946WAT     H278081   1.648   5.773   6.078
25947WAT      O78082   9.037   7.535   8.689
25947WAT     H178083   9.052   7.608   8.755
25947WAT     H278084   9.013   7.574   8.600
25948WAT      O78085   2.721   9.411   7.399
25948WAT     H178086   2.722   9.371   7.308
25948WAT     H278087   2.810   9.396   7.443
25949WAT      O78088   3.569   3.586   1.713
25949WAT     H178089   3.542   3.668   1.663
25949WAT     H278090   3.489   3.526   1.725
25950WAT      O78091   0.825   6.945   4.206
25950WAT     H178092   0.849   6.871   4.268
25950WAT     H278093   0.726   6.951   4.196
25951WAT      O78094   8.299   7.009   0.297
25951WAT     H178095   8.218   7.028   0.241
25951WAT     H278096   8.338   6.921   0.270
25952WAT      O78097   3.340   1.534   6.745
25952WAT     H178098   3.278   1.588   6.689
25952WAT     H278099   3.372   1.455   6.692
25953WAT      O78100   7.718   0.439   1.882
25953WAT     H178101   7.683   0.357   1.837
25953WAT     H278102   7.669   0.519   1.848
25954WAT      O78103   4.287   3.178   2.977
25954WAT     H178104   4.192   3.147   2.971
25954WAT     H278105   4.291   3.261   3.033
25955WAT      O78106   7.921   7.595   6.786
25955WAT     H178107   7.872   7.676   6.819
25955WAT     H278108   7.881   7.565   6.699
25956WAT      O78109   9.490   6.010   9.237
25956WAT     H178110   9.473   6.088   9.297
25956WAT     H278111   9.579   6.019   9.194
25957WAT      O78112   5.139   4.312   1.302
25957WAT     H178113   5.065   4.246   1.288
25957WAT     H278114   5.184   4.293   1.390
25958WAT      O78115   8.398   2.853   8.075
25958WAT     H178116   8.407   2.761   8.115
25958WAT     H278117   8.310   2.860   8.028
25959WAT      O78118   4.984   5.045   4.839
25959WAT     H178119   5.028   5.021   4.753
25959WAT     H278120   5.033   5.121   4.882
25960WAT      O78121   3.935   4.869   3.545
25960WAT     H178122   3.990   4.882   3.627
25960WAT     H278123   3.922   4.957   3.499
25961WAT      O78124   0.471   2.479   8.127
25961WAT     H178125   0.485   2.558   8.187
25961WAT     H278126   0.463   2.396   8.182
25962WAT      O78127   0.257   4.530   8.921
25962WAT     H178128   0.258   4.589   8.839
25962WAT     H278129   0.335   4.554   8.979
25963WAT      O78130   8.505   8.557   6.516
25963WAT     H178131   8.505   8.534   6.419
25963WAT     H278132   8.565   8.636   6.531
25964WAT      O78133   5.541   7.584   2.367
25964WAT     H178134   5.445   7.606   2.357
25964WAT     H278135   5.564   7.577   2.464
25965WAT      O78136   6.062   7.115   9.079
25965WAT     H178137   6.134   7.184   9.075
25965WAT     H278138   6.063   7.062   8.994
25966WAT      O78139   4.115   6.535   2.746
25966WAT     H178140   4.146   6.580   2.829
25966WAT     H278141   4.138   6.591   2.666
25967WAT      O78142   4.545   0.950   2.740
25967WAT     H178143   4.498   0.988   2.660
25967WAT     H278144   4.642   0.938   2.720
25968WAT      O78145   1.595   7.418   1.043
25968WAT     H178146   1.690   7.394   1.061
25968WAT     H278147   1.574   7.401   0.946
25969WAT      O78148   7.839   2.919   9.480
25969WAT     H178149   7.854   2.967   9.567
25969WAT     H278150   7.861   2.981   9.405
25970WAT      O78151   2.111   0.079   0.336
25970WAT     H178152   2.183   0.116   0.278
25970WAT     H278153   2.129  -0.017   0.354
25971WAT      O78154   1.226   8.680   2.132
25971WAT     H178155   1.246   8.778   2.126
25971WAT     H278156   1.213   8.644   2.040
25972WAT      O78157   7.340   0.574   1.514
25972WAT     H178158   7.328   0.560   1.415
25972WAT     H278159   7.436   0.593   1.533
25973WAT      O78160   1.500   1.330   9.307
25973WAT     H178161   1.549   1.410   9.274
25973WAT     H278162   1.486   1.338   9.406
25974WAT      O78163   8.014   0.984   4.100
25974WAT     H178164   8.065   1.063   4.136
25974WAT     H278165   7.965   0.940   4.175
25975WAT      O78166   0.729   2.106   0.723
25975WAT     H178167   0.828   2.097   0.709
25975WAT     H278168   0.695   2.180   0.665
25976WAT      O78169   5.552   9.307   7.357
25976WAT     H178170   5.455   9.326   7.337
25976WAT     H278171   5.558   9.243   7.434
25977WAT      O78172   0.758   3.620   0.740
25977WAT     H178173   0.690   3.564   0.787
25977WAT     H278174   0.711   3.686   0.681
25978WAT      O78175   0.646   9.137   6.689
25978WAT     H178176   0.626   9.103   6.598
25978WAT     H278177   0.745   9.150   6.699
25979WAT      O78178   1.600   9.460   0.231
25979WAT     H178179   1.638   9.383   0.282
25979WAT     H278180   1.523   9.428   0.176
25980WAT      O78181   6.110   8.076   2.363
25980WAT     H178182   6.057   8.044   2.441
25980WAT     H278183   6.202   8.100   2.393
25981WAT      O78184   8.131   5.119   8.978
25981WAT     H178185   8.149   5.217   8.991
25981WAT     H278186   8.186   5.066   9.043
25982WAT      O78187   5.687   7.568   9.376
25982WAT     H178188   5.721   7.476   9.354
25982WAT     H278189   5.588   7.571   9.360
25983WAT      O78190   5.368   0.809   6.303
25983WAT     H178191   5.425   0.763   6.235
25983WAT     H278192   5.356   0.749   6.382
25984WAT      O78193   6.782   1.248   7.382
25984WAT     H178194   6.847   1.190   7.432
25984WAT     H278195   6.689   1.219   7.402
25985WAT      O78196   7.529   1.233   3.560
25985WAT     H178197   7.480   1.282   3.632
25985WAT     H278198   7.484   1.145   3.542
25986WAT      O78199   0.831   0.845   4.504
25986WAT     H178200   0.862   0.753   4.480
25986WAT     H278201   0.812   0.896   4.420
25987WAT      O78202   3.190   7.894   6.988
25987WAT     H178203   3.210   7.817   6.928
25987WAT     H278204   3.125   7.867   7.059
25988WAT      O78205   6.010   0.820   0.709
25988WAT     H178206   6.008   0.920   0.714
25988WAT     H278207   6.087   0.791   0.653
25989WAT      O78208   1.773   6.071   2.082
25989WAT     H178209   1.826   6.150   2.051
25989WAT     H278210   1.699   6.053   2.018
25990WAT      O78211   4.853   0.495   7.525
25990WAT     H178212   4.928   0.458   7.469
25990WAT     H278213   4.770   0.498   7.470
25991WAT      O78214   5.400   2.322   8.745
25991WAT     H178215   5.398   2.358   8.838
25991WAT     H278216   5.478   2.359   8.696
25992WAT      O78217   5.638   3.773   0.880
25992WAT     H178218   5.542   3.745   0.888
25992WAT     H278219   5.665   3.773   0.784
25993WAT      O78220   6.084   4.138   6.158
25993WAT     H178221   6.087   4.234   6.132
25993WAT     H278222   6.008   4.093   6.110
25994WAT      O78223   2.926   5.212   7.030
25994WAT     H178224   2.860   5.282   7.003
25994WAT     H278225   2.953   5.226   7.125
25995WAT      O78226   1.972   2.662   6.694
25995WAT     H178227   1.906   2.627   6.627
25995WAT     H278228   2.052   2.601   6.696
25996WAT      O78229   3.366   1.331   2.895
25996WAT     H178230   3.374   1.427   2.867
25996WAT     H278231   3.328   1.277   2.820
25997WAT      O78232   6.475   4.448   4.533
25997WAT     H178233   6.492   4.429   4.437
25997WAT     H278234   6.392   4.503   4.542
25998WAT      O78235   2.250   5.552   8.298
25998WAT     H178236   2.220   5.463   8.332
25998WAT     H278237   2.346   5.567   8.324
25999WAT      O78238   4.250   3.043   1.129
25999WAT     H178239   4.331   3.070   1.181
25999WAT     H278240   4.260   3.070   1.034
26000WAT      O78241   9.686   2.975   3.023
26000WAT     H178242   9.653   2.973   2.929
26000WAT     H278243   9.652   3.058   3.069
26001WAT      O78244   3.315   8.517   4.683
26001WAT     H178245   3.308   8.567   4.597
26001WAT     H278246   3.292   8.421   4.668
26002WAT      O78247   4.159   8.859   0.151
26002WAT     H178248   4.187   8.952   0.173
26002WAT     H278249   4.200   8.831   0.064
26003WAT      O78250   6.078   1.239   1.190
26003WAT     H178251   6.168   1.195   1.199
26003WAT     H278252   6.077   1.324   1.242
26004WAT      O78253   0.533   8.484   4.621
26004WAT     H178254   0.509   8.492   4.524
26004WAT     H278255   0.628   8.454   4.629
26005WAT      O78256   1.130   1.890   1.017
26005WAT     H178257   1.096   1.814   0.962
26005WAT     H278258   1.208   1.861   1.072
26006WAT      O78259   5.694   5.835   6.924
26006WAT     H178260   5.780   5.790   6.947
26006WAT     H278261   5.621   5.797   6.980
26007WAT      O78262   0.458   5.918   0.731
26007WAT     H178263   0.431   6.006   0.691
26007WAT     H278264   0.523   5.873   0.670
26008WAT      O78265   2.175   6.273   0.784
26008WAT     H178266   2.265   6.266   0.826
26008WAT     H278267   2.152   6.188   0.737
26009WAT      O78268   6.330   2.458   7.767
26009WAT     H178269   6.413   2.473   7.713
26009WAT     H278270   6.272   2.539   7.762
26010WAT      O78271   0.467   4.492   6.612
26010WAT     H178272   0.500   4.515   6.704
26010WAT     H278273   0.519   4.414   6.577
26011WAT      O78274   0.811   0.900   7.710
26011WAT     H178275   0.870   0.878   7.632
26011WAT     H278276   0.739   0.832   7.718
26012WAT      O78277   6.529   0.694   1.026
26012WAT     H178278   6.594   0.695   1.103
26012WAT     H278279   6.557   0.761   0.958
26013WAT      O78280   3.026   7.148   2.923
26013WAT     H178281   3.048   7.050   2.926
26013WAT     H278282   2.927   7.160   2.933
26014WAT      O78283   6.369   7.743   0.342
26014WAT     H178284   6.380   7.747   0.441
26014WAT     H278285   6.449   7.700   0.301
26015WAT      O78286   7.836   5.388   6.397
26015WAT     H178287   7.745   5.428   6.400
26015WAT     H278288   7.893   5.439   6.332
26016WAT      O78289   8.071   3.839   1.699
26016WAT     H178290   8.159   3.886   1.696
26016WAT     H278291   8.007   3.884   1.637
26017WAT      O78292   5.032   5.655   6.758
26017WAT     H178293   5.028   5.708   6.673
26017WAT     H278294   4.978   5.572   6.747
26018WAT      O78295   4.067   1.560   5.444
26018WAT     H178296   3.995   1.629   5.442
26018WAT     H278297   4.138   1.588   5.508
26019WAT      O78298   1.749   2.847   6.385
26019WAT     H178299   1.663   2.853   6.436
26019WAT     H278300   1.783   2.939   6.366
26020WAT      O78301   8.157   2.657   4.134
26020WAT     H178302   8.208   2.572   4.145
26020WAT     H278303   8.220   2.734   4.144
26021WAT      O78304   9.047   3.589   3.629
26021WAT     H178305   9.092   3.667   3.585
26021WAT     H278306   8.976   3.623   3.691
26022WAT      O78307   2.274   9.247   5.252
26022WAT     H178308   2.229   9.335   5.240
26022WAT     H278309   2.226   9.178   5.197
26023WAT      O78310   5.045   4.649   0.884
26023WAT     H178311   5.001   4.689   0.964
26023WAT     H278312   4.976   4.619   0.818
26024WAT      O78313   0.126   4.098   9.026
26024WAT     H178314   0.204   4.040   9.047
26024WAT     H278315   0.044   4.062   9.071
26025WAT      O78316   0.428   1.768   0.352
26025WAT     H178317   0.377   1.777   0.267
26025WAT     H278318   0.502   1.835   0.354
26026WAT      O78319   4.821   5.045   5.065
26026WAT     H178320   4.799   4.949   5.049
26026WAT     H278321   4.860   5.084   4.981
26027WAT      O78322   2.050   0.328   6.565
26027WAT     H178323   2.078   0.424   6.569
26027WAT     H278324   2.072   0.291   6.475
26028WAT      O78325   7.774   6.079   9.722
26028WAT     H178326   7.749   6.077   9.819
26028WAT     H278327   7.871   6.060   9.712
26029WAT      O78328   0.480   9.502   3.479
26029WAT     H178329   0.441   9.531   3.391
26029WAT     H278330   0.579   9.513   3.476
26030WAT      O78331   9.812   7.320   8.188
26030WAT     H178332   9.795   7.368   8.273
26030WAT     H278333   9.907   7.335   8.159
26031WAT      O78334   7.726   9.573   2.076
26031WAT     H178335   7.796   9.642   2.059
26031WAT     H278336   7.668   9.602   2.152
26032WAT      O78337   0.802   7.815   8.331
26032WAT     H178338   0.886   7.854   8.294
26032WAT     H278339   0.733   7.809   8.260
26033WAT      O78340   3.234   1.348   0.032
26033WAT     H178341   3.265   1.439   0.004
26033WAT     H278342   3.304   1.280   0.010
26034WAT      O78343   3.064   0.827   5.144
26034WAT     H178344   3.039   0.908   5.091
26034WAT     H278345   3.064   0.850   5.242
26035WAT      O78346   6.375   5.129   6.156
26035WAT     H178347   6.412   5.100   6.244
26035WAT     H278348   6.352   5.048   6.101
26036WAT      O78349   9.412   1.393   2.334
26036WAT     H178350   9.438   1.409   2.429
26036WAT     H278351   9.452   1.463   2.275
26037WAT      O78352   1.353   1.591   1.749
26037WAT     H178353   1.426   1.637   1.801
26037WAT     H278354   1.286   1.659   1.719
26038WAT      O78355   8.078   5.567   0.229
26038WAT     H178356   8.170   5.596   0.204
26038WAT     H278357   8.028   5.645   0.267
26039WAT      O78358   8.210   6.149   7.597
26039WAT     H178359   8.124   6.110   7.630
26039WAT     H278360   8.287   6.103   7.643
26040WAT      O78361   6.613   2.817   5.925
26040WAT     H178362   6.560   2.868   5.857
26040WAT     H278363   6.562   2.813   6.011
26041WAT      O78364   9.242   2.838   7.746
26041WAT     H178365   9.225   2.855   7.649
26041WAT     H278366   9.199   2.910   7.801
26042WAT      O78367   8.904   5.569   1.751
26042WAT     H178368   8.924   5.625   1.670
26042WAT     H278369   8.972   5.497   1.760
26043WAT      O78370   0.763   2.566   7.780
26043WAT     H178371   0.698   2.638   7.754
26043WAT     H278372   0.729   2.518   7.861
26044WAT      O78373   2.644   2.617   8.674
26044WAT     H178374   2.710   2.594   8.603
26044WAT     H278375   2.682   2.690   8.731
26045WAT      O78376   3.424   0.538   4.826
26045WAT     H178377   3.516   0.498   4.830
26045WAT     H278378   3.370   0.489   4.758
26046WAT      O78379   4.447   9.761   1.504
26046WAT     H178380   4.464   9.663   1.493
26046WAT     H278381   4.447   9.805   1.414
26047WAT      O78382   9.310   6.947   5.855
26047WAT     H178383   9.316   7.029   5.798
26047WAT     H278384   9.399   6.902   5.858
26048WAT      O78385   9.462   0.965   5.027
26048WAT     H178386   9.548   1.013   5.044
26048WAT     H278387   9.481   0.872   4.996
26049WAT      O78388   7.949   4.167   4.882
26049WAT     H178389   8.037   4.206   4.912
26049WAT     H278390   7.915   4.104   4.952
26050WAT      O78391   1.300   6.686   4.430
26050WAT     H178392   1.294   6.595   4.473
26050WAT     H278393   1.385   6.691   4.378
26051WAT      O78394   1.947   2.824   3.785
26051WAT     H178395   1.978   2.893   3.720
26051WAT     H278396   1.848   2.818   3.783
26052WAT      O78397   5.950   0.484   9.091
26052WAT     H178398   5.856   0.518   9.092
26052WAT     H278399   5.963   0.422   9.013
26053WAT      O78400   2.947   6.113   8.253
26053WAT     H178401   2.907   6.084   8.340
26053WAT     H278402   2.995   6.035   8.212
26054WAT      O78403   3.239   7.288   9.768
26054WAT     H178404   3.188   7.373   9.755
26054WAT     H278405   3.177   7.210   9.763
26055WAT      O78406   8.962   1.928   4.919
26055WAT     H178407   8.876   1.977   4.932
26055WAT     H278408   8.954   1.869   4.839
26056WAT      O78409   9.533   0.439   4.209
26056WAT     H178410   9.497   0.440   4.115
26056WAT     H278411   9.563   0.532   4.233
26057WAT      O78412   3.826   3.552   8.952
26057WAT     H178413   3.746   3.593   8.997
26057WAT     H278414   3.804   3.533   8.856
26058WAT      O78415   7.403   2.341   7.794
26058WAT     H178416   7.343   2.397   7.737
26058WAT     H278417   7.465   2.400   7.846
26059WAT      O78418   8.485   8.836   6.850
26059WAT     H178419   8.576   8.859   6.884
26059WAT     H278420   8.418   8.898   6.889
26060WAT      O78421   4.459   5.974   3.224
26060WAT     H178422   4.398   6.033   3.276
26060WAT     H278423   4.456   5.881   3.262
26061WAT      O78424   4.923   5.475   2.412
26061WAT     H178425   4.889   5.547   2.351
26061WAT     H278426   5.022   5.485   2.422
26062WAT      O78427   6.678   5.876   8.769
26062WAT     H178428   6.646   5.969   8.753
26062WAT     H278429   6.599   5.817   8.790
26063WAT      O78430   0.418   1.178   0.993
26063WAT     H178431   0.502   1.175   1.047
26063WAT     H278432   0.401   1.087   0.953
26064WAT      O78433   5.987   3.341   7.283
26064WAT     H178434   5.971   3.368   7.187
26064WAT     H278435   5.904   3.358   7.336
26065WAT      O78436   7.298   5.550   2.581
26065WAT     H178437   7.351   5.474   2.619
26065WAT     H278438   7.355   5.604   2.520
26066WAT      O78439   6.987   8.503   7.014
26066WAT     H178440   7.083   8.516   6.990
26066WAT     H278441   6.949   8.590   7.046
26067WAT      O78442   4.804   3.409   1.487
26067WAT     H178443   4.794   3.310   1.473
26067WAT     H278444   4.772   3.457   1.406
26068WAT      O78445   8.205   5.815   7.985
26068WAT     H178446   8.214   5.800   7.886
26068WAT     H278447   8.176   5.730   8.029
26069WAT      O78448   3.067   1.809   3.672
26069WAT     H178449   3.054   1.711   3.655
26069WAT     H278450   3.153   1.822   3.722
26070WAT      O78451   4.815   1.201   3.085
26070WAT     H178452   4.805   1.183   2.987
26070WAT     H278453   4.742   1.154   3.134
26071WAT      O78454   3.709   6.021   6.112
26071WAT     H178455   3.638   6.020   6.042
26071WAT     H278456   3.668   6.038   6.202
26072WAT      O78457   2.669   2.286   5.428
26072WAT     H178458   2.745   2.230   5.461
26072WAT     H278459   2.703   2.351   5.360
26073WAT      O78460   6.626   8.872   9.336
26073WAT     H178461   6.578   8.901   9.253
26073WAT     H278462   6.649   8.775   9.329
26074WAT      O78463   8.760   2.599   0.909
26074WAT     H178464   8.793   2.550   0.829
26074WAT     H278465   8.661   2.594   0.914
26075WAT      O78466   8.798   4.420   9.679
26075WAT     H178467   8.732   4.440   9.607
26075WAT     H278468   8.750   4.413   9.767
26076WAT      O78469   0.712   3.572   6.276
26076WAT     H178470   0.801   3.574   6.230
26076WAT     H278471   0.651   3.510   6.228
26077WAT      O78472   6.501   9.321   2.848
26077WAT     H178473   6.589   9.302   2.804
26077WAT     H278474   6.480   9.249   2.914
26078WAT      O78475   1.044   5.429   6.011
26078WAT     H178476   1.023   5.355   5.947
26078WAT     H278477   1.090   5.503   5.962
26079WAT      O78478   5.634   3.673   9.614
26079WAT     H178479   5.659   3.687   9.518
26079WAT     H278480   5.539   3.641   9.619
26080WAT      O78481   1.184   7.721   9.505
26080WAT     H178482   1.136   7.719   9.418
26080WAT     H278483   1.213   7.629   9.529
26081WAT      O78484   6.298   6.654   6.821
26081WAT     H178485   6.263   6.674   6.913
26081WAT     H278486   6.285   6.735   6.763
26082WAT      O78487   5.183   3.111   6.547
26082WAT     H178488   5.109   3.080   6.489
26082WAT     H278489   5.268   3.064   6.523
26083WAT      O78490   3.357   6.404   2.801
26083WAT     H178491   3.263   6.403   2.835
26083WAT     H278492   3.361   6.455   2.715
26084WAT      O78493   8.688   0.408   3.809
26084WAT     H178494   8.595   0.407   3.848
26084WAT     H278495   8.693   0.474   3.735
26085WAT      O78496   5.364   4.147   4.119
26085WAT     H178497   5.331   4.160   4.025
26085WAT     H278498   5.413   4.230   4.148
26086WAT      O78499   2.670   7.589   9.311
26086WAT     H178500   2.652   7.530   9.232
26086WAT     H278501   2.623   7.552   9.391
26087WAT      O78502   0.979   0.871   8.486
26087WAT     H178503   0.978   0.784   8.535
26087WAT     H278504   0.885   0.901   8.471
26088WAT      O78505   7.672   5.139   7.058
26088WAT     H178506   7.719   5.205   7.117
26088WAT     H278507   7.638   5.187   6.977
26089WAT      O78508   9.655   7.829   6.345
26089WAT     H178509   9.615   7.757   6.401
26089WAT     H278510   9.655   7.915   6.396
26090WAT      O78511   0.291   6.384   9.897
26090WAT     H178512   0.300   6.287   9.875
26090WAT     H278513   0.261   6.434   9.816
26091WAT      O78514   2.981   3.447   6.734
26091WAT     H178515   3.030   3.480   6.815
26091WAT     H278516   3.038   3.381   6.685
26092WAT      O78517   4.884   4.277   7.777
26092WAT     H178518   4.955   4.343   7.802
26092WAT     H278519   4.797   4.306   7.817
26093WAT      O78520   8.680   6.958   8.877
26093WAT     H178521   8.732   7.005   8.806
26093WAT     H278522   8.738   6.890   8.922
26094WAT      O78523   9.154   1.525   8.551
26094WAT     H178524   9.128   1.519   8.647
26094WAT     H278525   9.227   1.591   8.540
26095WAT      O78526   8.258   1.892   1.225
26095WAT     H178527   8.256   1.795   1.203
26095WAT     H278528   8.277   1.945   1.143
26096WAT      O78529   8.687   7.316   6.531
26096WAT     H178530   8.700   7.230   6.482
26096WAT     H278531   8.645   7.298   6.619
26097WAT      O78532   8.226   4.323   2.679
26097WAT     H178533   8.267   4.409   2.646
26097WAT     H278534   8.151   4.297   2.618
26098WAT      O78535   2.781   8.484   1.794
26098WAT     H178536   2.695   8.488   1.845
26098WAT     H278537   2.844   8.421   1.840
26099WAT      O78538   6.231   6.562   4.546
26099WAT     H178539   6.204   6.653   4.513
26099WAT     H278540   6.285   6.516   4.476
26100WAT      O78541   3.252   0.646   1.784
26100WAT     H178542   3.311   0.638   1.704
26100WAT     H278543   3.306   0.673   1.864
26101WAT      O78544   8.077   6.132   9.218
26101WAT     H178545   8.098   6.038   9.244
26101WAT     H278546   8.159   6.175   9.181
26102WAT      O78547   0.680   6.710   1.572
26102WAT     H178548   0.691   6.762   1.657
26102WAT     H278549   0.732   6.625   1.579
26103WAT      O78550   7.608   7.233   1.124
26103WAT     H178551   7.509   7.223   1.134
26103WAT     H278552   7.651   7.143   1.120
26104WAT      O78553   0.498   9.518   0.717
26104WAT     H178554   0.406   9.549   0.741
26104WAT     H278555   0.519   9.545   0.623
26105WAT      O78556   3.978   2.308   4.548
26105WAT     H178557   4.035   2.228   4.566
26105WAT     H278558   3.931   2.298   4.460
26106WAT      O78559   8.943   7.738   3.512
26106WAT     H178560   8.940   7.835   3.486
26106WAT     H278561   8.985   7.729   3.602
26107WAT      O78562   7.041   9.411   1.061
26107WAT     H178563   7.124   9.467   1.052
26107WAT     H278564   7.065   9.320   1.096
26108WAT      O78565   2.472   0.502   3.094
26108WAT     H178566   2.385   0.522   3.139
26108WAT     H278567   2.501   0.409   3.117
26109WAT      O78568   0.296   8.968   9.306
26109WAT     H178569   0.207   8.986   9.349
26109WAT     H278570   0.314   9.040   9.238
26110WAT      O78571   8.911   4.669   8.088
26110WAT     H178572   8.886   4.594   8.149
26110WAT     H278573   8.866   4.656   7.999
26111WAT      O78574   9.327   1.319   4.313
26111WAT     H178575   9.396   1.258   4.353
26111WAT     H278576   9.255   1.337   4.380
26112WAT      O78577   3.981   7.987   9.399
26112WAT     H178578   3.929   7.988   9.484
26112WAT     H278579   3.998   7.892   9.372
26113WAT      O78580   5.467   2.313   9.452
26113WAT     H178581   5.452   2.231   9.507
26113WAT     H278582   5.407   2.310   9.371
26114WAT      O78583   9.587   6.962   3.842
26114WAT     H178584   9.652   7.037   3.859
26114WAT     H278585   9.513   6.996   3.784
26115WAT      O78586   3.031   6.983   4.976
26115WAT     H178587   3.071   6.955   4.889
26115WAT     H278588   3.051   7.080   4.992
26116WAT      O78589   4.860   3.407   0.595
26116WAT     H178590   4.805   3.405   0.511
26116WAT     H278591   4.803   3.440   0.670
26117WAT      O78592   9.281   6.404   4.547
26117WAT     H178593   9.376   6.382   4.566
26117WAT     H278594   9.253   6.361   4.461
26118WAT      O78595   2.841   1.512   8.453
26118WAT     H178596   2.934   1.479   8.464
26118WAT     H278597   2.782   1.470   8.522
26119WAT      O78598   2.772   1.366   7.143
26119WAT     H178599   2.811   1.277   7.120
26119WAT     H278600   2.680   1.372   7.105
26120WAT      O78601   8.728   6.526   5.610
26120WAT     H178602   8.733   6.580   5.694
26120WAT     H278603   8.803   6.459   5.609
26121WAT      O78604   0.661   7.113   0.773
26121WAT     H178605   0.741   7.070   0.731
26121WAT     H278606   0.604   7.042   0.816
26122WAT      O78607   4.451   2.042   9.668
26122WAT     H178608   4.369   2.047   9.611
26122WAT     H278609   4.435   1.978   9.744
26123WAT      O78610   2.369   7.319   4.658
26123WAT     H178611   2.368   7.339   4.560
26123WAT     H278612   2.459   7.285   4.685
26124WAT      O78613   3.192   2.396   1.202
26124WAT     H178614   3.241   2.414   1.287
26124WAT     H278615   3.212   2.468   1.136
26125WAT      O78616   5.353   7.889   1.424
26125WAT     H178617   5.364   7.792   1.401
26125WAT     H278618   5.438   7.925   1.462
26126WAT      O78619   1.465   6.773   8.826
26126WAT     H178620   1.562   6.771   8.848
26126WAT     H278621   1.431   6.679   8.813
26127WAT      O78622   9.583   7.409   4.764
26127WAT     H178623   9.591   7.366   4.674
26127WAT     H278624   9.487   7.406   4.793
26128WAT      O78625   9.101   1.982   3.650
26128WAT     H178626   9.174   1.924   3.685
26128WAT     H278627   9.132   2.077   3.648
26129WAT      O78628   1.088   5.926   8.245
26129WAT     H178629   1.184   5.951   8.255
26129WAT     H278630   1.065   5.922   8.148
26130WAT      O78631   2.749   9.807   3.900
26130WAT     H178632   2.660   9.779   3.937
26130WAT     H278633   2.777   9.743   3.829
26131WAT      O78634   2.658   5.836   1.786
26131WAT     H178635   2.568   5.878   1.775
26131WAT     H278636   2.647   5.740   1.812
26132WAT      O78637   9.051   4.926   6.861
26132WAT     H178638   9.018   4.880   6.943
26132WAT     H278639   9.034   5.025   6.869
26133WAT      O78640   4.249   7.547   6.154
26133WAT     H178641   4.340   7.566   6.114
26133WAT     H278642   4.186   7.520   6.081
26134WAT      O78643   1.625   6.436   9.213
26134WAT     H178644   1.688   6.502   9.171
26134WAT     H278645   1.604   6.364   9.147
26135WAT      O78646   7.490   1.363   9.415
26135WAT     H178647   7.465   1.334   9.507
26135WAT     H278648   7.418   1.423   9.379
26136WAT      O78649   8.531   4.960   1.392
26136WAT     H178650   8.549   4.936   1.487
26136WAT     H278651   8.448   5.015   1.385
26137WAT      O78652   3.393   5.010   2.147
26137WAT     H178653   3.473   5.035   2.092
26137WAT     H278654   3.402   5.049   2.239
26138WAT      O78655   0.096   7.630   0.125
26138WAT     H178656  -0.001   7.648   0.138
26138WAT     H278657   0.132   7.688   0.052
26139WAT      O78658   6.921   3.224   5.455
26139WAT     H178659   6.904   3.207   5.552
26139WAT     H278660   6.848   3.281   5.418
26140WAT      O78661   5.035   8.022   2.949
26140WAT     H178662   5.035   7.926   2.977
26140WAT     H278663   5.128   8.050   2.926
26141WAT      O78664   1.983   1.033   1.008
26141WAT     H178665   1.924   0.963   1.048
26141WAT     H278666   2.076   0.998   1.001
26142WAT      O78667   5.483   3.189   8.989
26142WAT     H178668   5.394   3.183   8.943
26142WAT     H278669   5.555   3.160   8.926
26143WAT      O78670   5.782   4.229   9.513
26143WAT     H178671   5.856   4.200   9.575
26143WAT     H278672   5.717   4.154   9.503
26144WAT      O78673   1.296   6.108   0.795
26144WAT     H178674   1.317   6.128   0.699
26144WAT     H278675   1.260   6.191   0.839
26145WAT      O78676   0.431   6.135   3.530
26145WAT     H178677   0.386   6.047   3.514
26145WAT     H278678   0.380   6.207   3.482
26146WAT      O78679   8.522   6.249   5.091
26146WAT     H178680   8.597   6.190   5.123
26146WAT     H278681   8.547   6.289   5.003
26147WAT      O78682   5.430   2.696   7.690
26147WAT     H178683   5.433   2.616   7.630
26147WAT     H278684   5.499   2.686   7.762
26148WAT      O78685   7.367   7.782   3.562
26148WAT     H178686   7.378   7.817   3.655
26148WAT     H278687   7.373   7.683   3.563
26149WAT      O78688   1.074   8.971   5.486
26149WAT     H178689   1.143   8.924   5.541
26149WAT     H278690   1.105   9.063   5.464
26150WAT      O78691   3.759   4.427   4.150
26150WAT     H178692   3.784   4.384   4.237
26150WAT     H278693   3.733   4.522   4.165
26151WAT      O78694   0.471   0.258   9.274
26151WAT     H178695   0.414   0.176   9.277
26151WAT     H278696   0.514   0.272   9.363
26152WAT      O78697   8.928   0.623   3.476
26152WAT     H178698   8.857   0.680   3.434
26152WAT     H278699   8.975   0.571   3.406
26153WAT      O78700   9.152   1.102   6.420
26153WAT     H178701   9.192   1.175   6.476
26153WAT     H278702   9.059   1.128   6.393
26154WAT      O78703   5.454   7.836   5.213
26154WAT     H178704   5.357   7.859   5.222
26154WAT     H278705   5.497   7.896   5.147
26155WAT      O78706   2.056   9.613   4.942
26155WAT     H178707   2.076   9.517   4.922
26155WAT     H278708   2.139   9.657   4.978
26156WAT      O78709   4.415   6.319   0.454
26156WAT     H178710   4.416   6.418   0.464
26156WAT     H278711   4.424   6.295   0.357
26157WAT      O78712   6.096   8.757   5.538
26157WAT     H178713   6.024   8.696   5.507
26157WAT     H278714   6.097   8.760   5.638
26158WAT      O78715   4.382   9.352   0.268
26158WAT     H178716   4.399   9.345   0.169
26158WAT     H278717   4.397   9.262   0.310
26159WAT      O78718   2.981   4.864   5.112
26159WAT     H178719   3.034   4.865   5.028
26159WAT     H278720   2.989   4.953   5.157
26160WAT      O78721   7.314   7.386   4.015
26160WAT     H178722   7.287   7.426   3.927
26160WAT     H278723   7.325   7.459   4.082
26161WAT      O78724   6.708   9.434   5.887
26161WAT     H178725   6.676   9.528   5.878
26161WAT     H278726   6.732   9.399   5.797
26162WAT      O78727   2.632   5.949   3.276
26162WAT     H178728   2.620   5.975   3.180
26162WAT     H278729   2.566   6.000   3.332
26163WAT      O78730   0.142   9.648   3.438
26163WAT     H178731   0.154   9.641   3.537
26163WAT     H278732   0.130   9.556   3.399
26164WAT      O78733   2.181   1.572   7.068
26164WAT     H178734   2.161   1.619   7.153
26164WAT     H278735   2.179   1.473   7.082
26165WAT      O78736   3.752   3.553   1.910
26165WAT     H178737   3.704   3.583   1.828
26165WAT     H278738   3.698   3.576   1.991
26166WAT      O78739   2.152   2.728   1.087
26166WAT     H178740   2.114   2.643   1.052
26166WAT     H278741   2.115   2.805   1.036
26167WAT      O78742   4.439   5.959   8.265
26167WAT     H178743   4.464   6.052   8.293
26167WAT     H278744   4.342   5.943   8.284
26168WAT      O78745   8.466   0.054   9.251
26168WAT     H178746   8.541   0.034   9.314
26168WAT     H278747   8.398   0.111   9.297
26169WAT      O78748   4.158   4.901   1.595
26169WAT     H178749   4.219   4.876   1.520
26169WAT     H278750   4.177   4.995   1.623
26170WAT      O78751   6.727   6.465   2.694
26170WAT     H178752   6.676   6.435   2.613
26170WAT     H278753   6.676   6.441   2.776
26171WAT      O78754   7.118   1.399   3.626
26171WAT     H178755   7.072   1.419   3.539
26171WAT     H278756   7.201   1.455   3.634
26172WAT      O78757   1.786   7.783   7.026
26172WAT     H178758   1.705   7.799   7.082
26172WAT     H278759   1.766   7.805   6.931
26173WAT      O78760   1.730   9.556   1.558
26173WAT     H178761   1.774   9.599   1.637
26173WAT     H278762   1.711   9.626   1.488
26174WAT      O78763   0.935   1.233   0.250
26174WAT     H178764   0.952   1.288   0.332
26174WAT     H278765   0.906   1.141   0.277
26175WAT      O78766   0.487   1.154   3.608
26175WAT     H178767   0.394   1.188   3.622
26175WAT     H278768   0.521   1.183   3.519
26176WAT      O78769   3.934   8.841   0.540
26176WAT     H178770   4.025   8.862   0.505
26176WAT     H278771   3.941   8.809   0.635
26177WAT      O78772   4.769   4.118   7.581
26177WAT     H178773   4.815   4.188   7.636
26177WAT     H278774   4.686   4.157   7.542
26178WAT      O78775   6.841   8.418   9.634
26178WAT     H178776   6.778   8.403   9.558
26178WAT     H278777   6.853   8.516   9.649
26179WAT      O78778   9.769   1.631   4.043
26179WAT     H178779   9.741   1.536   4.042
26179WAT     H278780   9.781   1.661   4.138
26180WAT      O78781   8.506   4.786   6.553
26180WAT     H178782   8.432   4.837   6.510
26180WAT     H278783   8.487   4.688   6.548
26181WAT      O78784   7.588   0.789   8.955
26181WAT     H178785   7.606   0.855   9.028
26181WAT     H278786   7.650   0.711   8.964
26182WAT      O78787   5.584   4.525   4.857
26182WAT     H178788   5.631   4.447   4.898
26182WAT     H278789   5.498   4.494   4.815
26183WAT      O78790   4.737   7.342   5.728
26183WAT     H178791   4.686   7.405   5.670
26183WAT     H278792   4.793   7.394   5.793
26184WAT      O78793   3.406   5.999   5.174
26184WAT     H178794   3.373   6.031   5.263
26184WAT     H278795   3.407   6.076   5.110
26185WAT      O78796   3.926   4.435   8.628
26185WAT     H178797   4.018   4.407   8.654
26185WAT     H278798   3.862   4.413   8.702
26186WAT      O78799   5.049   5.017   9.256
26186WAT     H178800   5.102   4.960   9.318
26186WAT     H278801   5.065   4.987   9.161
26187WAT      O78802   4.758   6.644   9.390
26187WAT     H178803   4.699   6.571   9.357
26187WAT     H278804   4.794   6.621   9.480
26188WAT      O78805   6.441   6.869   3.946
26188WAT     H178806   6.390   6.930   4.006
26188WAT     H278807   6.439   6.905   3.853
26189WAT      O78808   2.984   6.185   0.865
26189WAT     H178809   3.018   6.154   0.954
26189WAT     H278810   3.060   6.206   0.805
26190WAT      O78811   8.012   4.966   0.567
26190WAT     H178812   8.035   4.998   0.475
26190WAT     H278813   8.044   5.032   0.634
26191WAT      O78814   3.152   1.814   0.064
26191WAT     H178815   3.153   1.910   0.035
26191WAT     H278816   3.173   1.809   0.162
26192WAT      O78817   5.642   5.695   2.069
26192WAT     H178818   5.667   5.726   2.161
26192WAT     H278819   5.679   5.603   2.053
26193WAT      O78820   8.960   4.678   9.816
26193WAT     H178821   8.981   4.776   9.818
26193WAT     H278822   8.907   4.654   9.897
26194WAT      O78823   1.765   0.754   6.534
26194WAT     H178824   1.721   0.664   6.530
26194WAT     H278825   1.864   0.743   6.529
26195WAT      O78826   6.325   7.175   5.938
26195WAT     H178827   6.359   7.083   5.955
26195WAT     H278828   6.303   7.185   5.841
26196WAT      O78829   9.243   3.393   5.553
26196WAT     H178830   9.255   3.319   5.488
26196WAT     H278831   9.198   3.358   5.635
26197WAT      O78832   0.738   9.151   7.373
26197WAT     H178833   0.772   9.110   7.288
26197WAT     H278834   0.816   9.178   7.430
26198WAT      O78835   2.141   9.269   2.395
26198WAT     H178836   2.210   9.341   2.388
26198WAT     H278837   2.075   9.293   2.467
26199WAT      O78838   7.077   6.862   5.792
26199WAT     H178839   7.024   6.900   5.715
26199WAT     H278840   7.174   6.860   5.768
26200WAT      O78841   4.492   2.922   2.113
26200WAT     H178842   4.401   2.886   2.134
26200WAT     H278843   4.484   3.002   2.054
26201WAT      O78844   9.262   3.201   8.695
26201WAT     H178845   9.282   3.165   8.604
26201WAT     H278846   9.324   3.159   8.762
26202WAT      O78847   1.988   1.111   8.856
26202WAT     H178848   2.008   1.142   8.762
26202WAT     H278849   1.933   1.028   8.853
26203WAT      O78850   9.226   3.127   4.332
26203WAT     H178851   9.294   3.113   4.260
26203WAT     H278852   9.262   3.191   4.399
26204WAT      O78853   1.359   8.888   1.442
26204WAT     H178854   1.357   8.861   1.346
26204WAT     H278855   1.303   8.970   1.455
26205WAT      O78856   8.122   7.358   1.899
26205WAT     H178857   8.214   7.363   1.862
26205WAT     H278858   8.060   7.413   1.843
26206WAT      O78859   1.065   4.214   2.820
26206WAT     H178860   1.043   4.124   2.783
26206WAT     H278861   1.150   4.209   2.872
26207WAT      O78862   3.529   3.346   8.366
26207WAT     H178863   3.474   3.391   8.437
26207WAT     H278864   3.523   3.246   8.377
26208WAT      O78865   9.415   3.493   3.548
26208WAT     H178866   9.479   3.553   3.596
26208WAT     H278867   9.343   3.463   3.611
26209WAT      O78868   6.787   2.742   9.288
26209WAT     H178869   6.737   2.828   9.291
26209WAT     H278870   6.733   2.671   9.335
26210WAT      O78871   9.427   4.549   9.738
26210WAT     H178872   9.454   4.453   9.734
26210WAT     H278873   9.327   4.555   9.739
26211WAT      O78874   3.434   9.529   6.521
26211WAT     H178875   3.433   9.624   6.491
26211WAT     H278876   3.429   9.469   6.441
26212WAT      O78877   2.601   8.423   3.691
26212WAT     H178878   2.589   8.496   3.759
26212WAT     H278879   2.635   8.341   3.736
26213WAT      O78880   1.530   0.075   8.288
26213WAT     H178881   1.519  -0.022   8.308
26213WAT     H278882   1.442   0.121   8.298
26214WAT      O78883   5.890   8.417   2.574
26214WAT     H178884   5.937   8.367   2.647
26214WAT     H278885   5.804   8.371   2.553
26215WAT      O78886   8.137   1.714   6.369
26215WAT     H178887   8.138   1.814   6.370
26215WAT     H278888   8.045   1.682   6.345
26216WAT      O78889   0.754   7.464   2.404
26216WAT     H178890   0.767   7.446   2.502
26216WAT     H278891   0.811   7.403   2.351
26217WAT      O78892   0.497   8.632   8.276
26217WAT     H178893   0.401   8.658   8.286
26217WAT     H278894   0.542   8.695   8.213
26218WAT      O78895   8.659   8.606   1.496
26218WAT     H178896   8.577   8.550   1.478
26218WAT     H278897   8.720   8.555   1.556
26219WAT      O78898   5.694   1.243   6.000
26219WAT     H178899   5.793   1.235   6.011
26219WAT     H278900   5.653   1.271   6.087
26220WAT      O78901   3.762   1.582   7.925
26220WAT     H178902   3.692   1.650   7.945
26220WAT     H278903   3.752   1.552   7.830
26221WAT      O78904   9.511   8.685   6.356
26221WAT     H178905   9.593   8.660   6.305
26221WAT     H278906   9.536   8.715   6.448
26222WAT      O78907   7.349   4.513   0.450
26222WAT     H178908   7.412   4.467   0.388
26222WAT     H278909   7.334   4.455   0.531
26223WAT      O78910   4.774   0.077   1.555
26223WAT     H178911   4.835   0.035   1.623
26223WAT     H278912   4.782   0.176   1.559
26224WAT      O78913   5.457   6.012   8.097
26224WAT     H178914   5.463   5.965   8.009
26224WAT     H278915   5.513   5.963   8.164
26225WAT      O78916   5.787   4.344   7.994
26225WAT     H178917   5.828   4.386   7.913
26225WAT     H278918   5.692   4.374   8.003
26226WAT      O78919   5.321   3.047   6.102
26226WAT     H178920   5.244   3.029   6.042
26226WAT     H278921   5.325   3.145   6.124
26227WAT      O78922   7.421   9.820   7.370
26227WAT     H178923   7.384   9.763   7.297
26227WAT     H278924   7.448   9.909   7.332
26228WAT      O78925   2.216   0.943   1.907
26228WAT     H178926   2.295   0.882   1.910
26228WAT     H278927   2.229   1.019   1.971
26229WAT      O78928   6.035   8.772   2.693
26229WAT     H178929   5.943   8.761   2.730
26229WAT     H278930   6.041   8.859   2.643
26230WAT      O78931   1.015   0.224   6.358
26230WAT     H178932   0.951   0.154   6.389
26230WAT     H278933   1.096   0.179   6.319
26231WAT      O78934   0.094   9.088   3.045
26231WAT     H178935   0.026   9.150   3.006
26231WAT     H278936   0.180   9.097   2.995
26232WAT      O78937   0.600   0.369   2.121
26232WAT     H178938   0.503   0.376   2.147
26232WAT     H278939   0.608   0.381   2.022
26233WAT      O78940   5.177   1.237   1.907
26233WAT     H178941   5.136   1.150   1.933
26233WAT     H278942   5.133   1.272   1.825
26234WAT      O78943   9.471   4.993   7.453
26234WAT     H178944   9.500   5.015   7.547
26234WAT     H278945   9.482   5.073   7.395
26235WAT      O78946   9.692   8.477   9.766
26235WAT     H178947   9.629   8.522   9.703
26235WAT     H278948   9.723   8.543   9.835
26236WAT      O78949   6.345   2.240   8.998
26236WAT     H178950   6.304   2.171   8.938
26236WAT     H278951   6.402   2.301   8.944
26237WAT      O78952   1.524   8.701   0.202
26237WAT     H178953   1.476   8.671   0.285
26237WAT     H278954   1.497   8.795   0.181
26238WAT      O78955   9.676   6.560   9.573
26238WAT     H178956   9.755   6.589   9.518
26238WAT     H278957   9.687   6.463   9.597
26239WAT      O78958   7.608   7.077   5.742
26239WAT     H178959   7.656   7.003   5.789
26239WAT     H278960   7.511   7.073   5.763
26240WAT      O78961   6.765   0.735   9.869
26240WAT     H178962   6.826   0.808   9.902
26240WAT     H278963   6.816   0.674   9.809
26241WAT      O78964   6.365   9.819   6.912
26241WAT     H178965   6.464   9.811   6.918
26241WAT     H278966   6.336   9.908   6.949
26242WAT      O78967   8.242   8.971   2.220
26242WAT     H178968   8.327   9.008   2.256
26242WAT     H278969   8.244   8.975   2.120
26243WAT      O78970   1.506   1.896   2.786
26243WAT     H178971   1.473   1.990   2.773
26243WAT     H278972   1.552   1.865   2.703
26244WAT      O78973   9.065   8.457   1.883
26244WAT     H178974   9.139   8.524   1.896
26244WAT     H278975   9.021   8.440   1.971
26245WAT      O78976   6.673   1.512   5.532
26245WAT     H178977   6.747   1.466   5.580
26245WAT     H278978   6.645   1.458   5.452
26246WAT      O78979   2.645   1.427   9.412
26246WAT     H178980   2.644   1.455   9.508
26246WAT     H278981   2.713   1.354   9.399
26247WAT      O78982   8.280   7.816   4.762
26247WAT     H178983   8.241   7.739   4.712
26247WAT     H278984   8.375   7.830   4.733
26248WAT      O78985   2.229   1.185   3.421
26248WAT     H178986   2.223   1.240   3.504
26248WAT     H278987   2.269   1.096   3.442
26249WAT      O78988   1.167   9.325   6.431
26249WAT     H178989   1.202   9.401   6.486
26249WAT     H278990   1.076   9.348   6.397
26250WAT      O78991   8.222   2.172   7.991
26250WAT     H178992   8.171   2.168   8.076
26250WAT     H278993   8.315   2.204   8.009
26251WAT      O78994   6.988   1.441   6.143
26251WAT     H178995   7.085   1.428   6.166
26251WAT     H278996   6.934   1.436   6.227
26252WAT      O78997   9.156   8.022   7.274
26252WAT     H178998   9.255   8.006   7.272
26252WAT     H278999   9.117   7.982   7.357
26253WAT      O79000   0.561   9.064   9.315
26253WAT     H179001   0.465   9.037   9.325
26253WAT     H279002   0.618   8.982   9.313
26254WAT      O79003   1.839   2.050   7.035
26254WAT     H179004   1.882   2.015   6.952
26254WAT     H279005   1.841   2.150   7.033
26255WAT      O79006   9.504   7.143   7.179
26255WAT     H179007   9.441   7.147   7.257
26255WAT     H279008   9.598   7.140   7.212
26256WAT      O79009   3.800   0.870   6.611
26256WAT     H179010   3.893   0.897   6.635
26256WAT     H279011   3.745   0.864   6.694
26257WAT      O79012   7.869   3.742   7.872
26257WAT     H179013   7.895   3.780   7.961
26257WAT     H279014   7.951   3.720   7.820
26258WAT      O79015   9.755   1.362   8.306
26258WAT     H179016   9.825   1.421   8.346
26258WAT     H279017   9.753   1.376   8.207
26259WAT      O79018   6.423   6.694   7.434
26259WAT     H179019   6.478   6.683   7.351
26259WAT     H279020   6.326   6.697   7.410
26260WAT      O79021   3.485   3.137   8.860
26260WAT     H179022   3.536   3.189   8.928
26260WAT     H279023   3.471   3.044   8.892
26261WAT      O79024   7.560   6.639   7.505
26261WAT     H179025   7.563   6.558   7.446
26261WAT     H279026   7.609   6.714   7.461
26262WAT      O79027   7.142   9.516   2.719
26262WAT     H179028   7.103   9.468   2.641
26262WAT     H279029   7.146   9.453   2.798
26263WAT      O79030   6.186   7.616   4.066
26263WAT     H179031   6.264   7.577   4.018
26263WAT     H279032   6.168   7.562   4.149
26264WAT      O79033   2.731   4.064   7.331
26264WAT     H179034   2.829   4.078   7.351
26264WAT     H279035   2.718   3.974   7.289
26265WAT      O79036   4.978   1.746   4.709
26265WAT     H179037   4.941   1.696   4.631
26265WAT     H279038   4.951   1.842   4.704
26266WAT      O79039   5.452   5.621   0.475
26266WAT     H179040   5.459   5.581   0.567
26266WAT     H279041   5.432   5.548   0.409
26267WAT      O79042   3.908   2.316   9.718
26267WAT     H179043   3.911   2.410   9.753
26267WAT     H279044   3.998   2.274   9.727
26268WAT      O79045   9.077   5.894   7.664
26268WAT     H179046   9.118   5.805   7.684
26268WAT     H279047   9.140   5.967   7.689
26269WAT      O79048   8.092   1.672   4.855
26269WAT     H179049   8.104   1.759   4.902
26269WAT     H279050   8.015   1.623   4.895
26270WAT      O79051   1.756   1.511   5.743
26270WAT     H179052   1.728   1.536   5.835
26270WAT     H279053   1.723   1.580   5.678
26271WAT      O79054   9.793   2.358   6.258
26271WAT     H179055   9.799   2.259   6.273
26271WAT     H279056   9.726   2.397   6.322
26272WAT      O79057   2.850   6.033   4.931
26272WAT     H179058   2.884   6.125   4.950
26272WAT     H279059   2.842   5.982   5.017
26273WAT      O79060   8.609   6.366   9.640
26273WAT     H179061   8.605   6.460   9.608
26273WAT     H279062   8.705   6.336   9.644
26274WAT      O79063   6.737   7.001   6.457
26274WAT     H179064   6.775   7.087   6.490
26274WAT     H279065   6.811   6.944   6.422
26275WAT      O79066   6.928   0.663   2.595
26275WAT     H179067   6.982   0.598   2.541
26275WAT     H279068   6.835   0.628   2.605
26276WAT      O79069   4.128   8.840   9.400
26276WAT     H179070   4.106   8.845   9.497
26276WAT     H279071   4.185   8.918   9.374
26277WAT      O79072   2.200   3.766   7.628
26277WAT     H179073   2.137   3.791   7.554
26277WAT     H279074   2.203   3.667   7.637
26278WAT      O79075   9.229   6.134   8.536
26278WAT     H179076   9.259   6.191   8.460
26278WAT     H279077   9.130   6.146   8.549
26279WAT      O79078   3.706   2.113   4.548
26279WAT     H179079   3.751   2.074   4.468
26279WAT     H279080   3.698   2.212   4.537
26280WAT      O79081   2.467   3.684   9.788
26280WAT     H179082   2.556   3.655   9.751
26280WAT     H279083   2.411   3.720   9.714
26281WAT      O79084   6.675   4.089   3.331
26281WAT     H179085   6.580   4.062   3.345
26281WAT     H279086   6.697   4.167   3.390
26282WAT      O79087   9.150   0.729   0.982
26282WAT     H179088   9.066   0.684   0.949
26282WAT     H279089   9.151   0.824   0.952
26283WAT      O79090   8.951   6.800   1.603
26283WAT     H179091   8.931   6.823   1.508
26283WAT     H279092   9.049   6.813   1.620
26284WAT      O79093   4.308   4.790   4.436
26284WAT     H179094   4.294   4.872   4.491
26284WAT     H279095   4.235   4.724   4.454
26285WAT      O79096   6.624   1.423   1.548
26285WAT     H179097   6.648   1.457   1.638
26285WAT     H279098   6.607   1.500   1.486
26286WAT      O79099   3.004   4.105   4.575
26286WAT     H179100   3.028   4.026   4.631
26286WAT     H279101   3.016   4.188   4.628
26287WAT      O79102   8.772   0.756   2.099
26287WAT     H179103   8.835   0.719   2.030
26287WAT     H279104   8.731   0.841   2.065
26288WAT      O79105   1.438   0.601   3.706
26288WAT     H179106   1.479   0.564   3.789
26288WAT     H279107   1.339   0.583   3.707
26289WAT      O79108   9.725   3.810   3.861
26289WAT     H179109   9.640   3.761   3.878
26289WAT     H279110   9.795   3.779   3.926
26290WAT      O79111   2.738   7.217   6.234
26290WAT     H179112   2.674   7.244   6.161
26290WAT     H279113   2.824   7.267   6.223
26291WAT      O79114   5.392   7.407   6.948
26291WAT     H179115   5.311   7.454   6.915
26291WAT     H279116   5.393   7.313   6.913
26292WAT      O79117   1.594   2.050   8.791
26292WAT     H179118   1.598   1.951   8.805
26292WAT     H279119   1.651   2.096   8.858
26293WAT      O79120   7.220   8.358   3.072
26293WAT     H179121   7.301   8.377   3.128
26293WAT     H279122   7.240   8.377   2.976
26294WAT      O79123   2.383   0.306   8.287
26294WAT     H179124   2.391   0.211   8.258
26294WAT     H279125   2.471   0.339   8.321
26295WAT      O79126   6.798   8.974   7.132
26295WAT     H179127   6.703   8.944   7.125
26295WAT     H279128   6.805   9.070   7.106
26296WAT      O79129   5.406   0.148   2.899
26296WAT     H179130   5.378   0.181   2.989
26296WAT     H279131   5.395   0.048   2.896
26297WAT      O79132   1.877   8.826   4.759
26297WAT     H179133   1.883   8.727   4.746
26297WAT     H279134   1.950   8.871   4.708
26298WAT      O79135   8.970   8.207   8.969
26298WAT     H179136   8.943   8.189   9.063
26298WAT     H279137   8.918   8.284   8.933
26299WAT      O79138   3.022   4.767   1.759
26299WAT     H179139   2.951   4.697   1.751
26299WAT     H279140   3.110   4.724   1.776
26300WAT      O79141   9.857   6.456   5.242
26300WAT     H179142   9.894   6.369   5.209
26300WAT     H279143   9.882   6.529   5.178
26301WAT      O79144   5.043   0.394   6.436
26301WAT     H179145   5.124   0.376   6.491
26301WAT     H279146   4.960   0.380   6.491
26302WAT      O79147   1.476   0.189   0.372
26302WAT     H179148   1.512   0.127   0.302
26302WAT     H279149   1.436   0.269   0.327
26303WAT      O79150   2.168   8.521   5.107
26303WAT     H179151   2.129   8.434   5.076
26303WAT     H279152   2.192   8.515   5.204
26304WAT      O79153   4.491   0.617   9.290
26304WAT     H179154   4.524   0.690   9.229
26304WAT     H279155   4.446   0.658   9.369
26305WAT      O79156   5.908   8.815   0.282
26305WAT     H179157   5.886   8.755   0.358
26305WAT     H279158   6.003   8.845   0.288
26306WAT      O79159   3.375   2.847   1.026
26306WAT     H179160   3.470   2.858   1.055
26306WAT     H279161   3.318   2.915   1.071
26307WAT      O79162   8.304   9.770   7.623
26307WAT     H179163   8.357   9.773   7.708
26307WAT     H279164   8.365   9.748   7.547
26308WAT      O79165   6.019   9.367   2.287
26308WAT     H179166   6.093   9.313   2.248
26308WAT     H279167   5.978   9.318   2.364
26309WAT      O79168   5.548   3.780   2.777
26309WAT     H179169   5.614   3.853   2.800
26309WAT     H279170   5.456   3.810   2.803
26310WAT      O79171   0.190   3.208   7.771
26310WAT     H179172   0.202   3.307   7.759
26310WAT     H279173   0.108   3.192   7.826
26311WAT      O79174   2.465   5.594   2.085
26311WAT     H179175   2.547   5.566   2.136
26311WAT     H279176   2.428   5.677   2.126
26312WAT      O79177   1.027   4.002   3.055
26312WAT     H179178   0.957   3.936   3.083
26312WAT     H279179   1.065   3.976   2.966
26313WAT      O79180   5.916   9.000   9.490
26313WAT     H179181   5.956   8.921   9.443
26313WAT     H279182   5.854   9.047   9.427
26314WAT      O79183   4.288   0.221   7.366
26314WAT     H179184   4.285   0.309   7.317
26314WAT     H279185   4.308   0.238   7.462
26315WAT      O79186   5.584   2.728   3.470
26315WAT     H179187   5.662   2.701   3.415
26315WAT     H279188   5.615   2.781   3.549
26316WAT      O79189   0.012   2.383   9.119
26316WAT     H179190   0.069   2.433   9.184
26316WAT     H279191   0.060   2.374   9.031
26317WAT      O79192   5.604   6.478   8.632
26317WAT     H179193   5.527   6.503   8.573
26317WAT     H279194   5.680   6.541   8.615
26318WAT      O79195   3.957   0.722   8.255
26318WAT     H179196   3.935   0.800   8.313
26318WAT     H279197   3.886   0.652   8.264
26319WAT      O79198   4.846   5.446   8.890
26319WAT     H179199   4.894   5.428   8.976
26319WAT     H279200   4.760   5.395   8.888
26320WAT      O79201   0.676   4.869   7.473
26320WAT     H179202   0.719   4.957   7.451
26320WAT     H279203   0.677   4.811   7.391
26321WAT      O79204   0.500   6.223   7.227
26321WAT     H179205   0.487   6.321   7.243
26321WAT     H279206   0.475   6.172   7.309
26322WAT      O79207   2.873   4.978   3.601
26322WAT     H179208   2.820   4.948   3.680
26322WAT     H279209   2.822   5.046   3.549
26323WAT      O79210   3.512   0.747   9.802
26323WAT     H179211   3.480   0.807   9.729
26323WAT     H279212   3.599   0.704   9.775
26324WAT      O79213   9.235   5.204   2.023
26324WAT     H179214   9.267   5.130   1.963
26324WAT     H279215   9.243   5.176   2.118
26325WAT      O79216   1.804   5.144   1.107
26325WAT     H179217   1.753   5.182   1.029
26325WAT     H279218   1.900   5.132   1.081
26326WAT      O79219   8.882   2.975   6.248
26326WAT     H179220   8.817   3.022   6.188
26326WAT     H279221   8.889   3.025   6.334
26327WAT      O79222   8.424   1.052   2.869
26327WAT     H179223   8.472   1.082   2.787
26327WAT     H279224   8.484   1.058   2.948
26328WAT      O79225   5.691   1.268   3.415
26328WAT     H179226   5.685   1.360   3.375
26328WAT     H279227   5.781   1.257   3.458
26329WAT      O79228   8.920   6.588   4.654
26329WAT     H179229   8.833   6.625   4.621
26329WAT     H279230   8.924   6.595   4.753
26330WAT      O79231   1.814   3.576   1.387
26330WAT     H179232   1.718   3.559   1.364
26330WAT     H279233   1.821   3.595   1.485
26331WAT      O79234   3.236   1.969   8.066
26331WAT     H179235   3.253   2.052   8.120
26331WAT     H279236   3.265   1.889   8.119
26332WAT      O79237   0.631   1.824   6.504
26332WAT     H179238   0.656   1.819   6.407
26332WAT     H279239   0.531   1.822   6.512
26333WAT      O79240   3.405   3.100   3.903
26333WAT     H179241   3.446   3.157   3.975
26333WAT     H279242   3.347   3.156   3.845
26334WAT      O79243   2.884   4.188   3.569
26334WAT     H179244   2.923   4.250   3.500
26334WAT     H279245   2.852   4.105   3.524
26335WAT      O79246   9.792   2.985   4.396
26335WAT     H179247   9.778   2.903   4.341
26335WAT     H279248   9.710   3.042   4.394
26336WAT      O79249   5.251   4.152   3.875
26336WAT     H179250   5.255   4.052   3.880
26336WAT     H279251   5.177   4.179   3.813
26337WAT      O79252   1.937   4.465   2.377
26337WAT     H179253   1.857   4.506   2.333
26337WAT     H279254   1.950   4.506   2.467
26338WAT      O79255   0.539   2.419   4.866
26338WAT     H179256   0.609   2.382   4.928
26338WAT     H279257   0.452   2.373   4.883
26339WAT      O79258   5.781   3.533   9.809
26339WAT     H179259   5.739   3.585   9.735
26339WAT     H279260   5.711   3.509   9.877
26340WAT      O79261   4.381   7.790   0.374
26340WAT     H179262   4.292   7.753   0.349
26340WAT     H279263   4.445   7.779   0.298
26341WAT      O79264   0.079   2.741   9.415
26341WAT     H179265   0.045   2.653   9.381
26341WAT     H279266   0.030   2.764   9.499
26342WAT      O79267   2.979   3.753   2.232
26342WAT     H179268   2.977   3.721   2.326
26342WAT     H279269   3.069   3.792   2.211
26343WAT      O79270   0.063   4.946   6.985
26343WAT     H179271   0.115   5.032   6.987
26343WAT     H279272   0.001   4.944   7.064
26344WAT      O79273   7.942   9.818   6.078
26344WAT     H179274   7.856   9.772   6.097
26344WAT     H279275   8.015   9.750   6.069
26345WAT      O79276   0.347   3.162   3.847
26345WAT     H179277   0.394   3.246   3.822
26345WAT     H279278   0.248   3.179   3.852
26346WAT      O79279   0.577   0.579   8.675
26346WAT     H179280   0.482   0.606   8.660
26346WAT     H279281   0.583   0.479   8.676
26347WAT      O79282   5.908   5.498   7.227
26347WAT     H179283   5.952   5.487   7.316
26347WAT     H279284   5.813   5.525   7.241
26348WAT      O79285   1.719   4.063   9.187
26348WAT     H179286   1.664   4.143   9.160
26348WAT     H279287   1.750   4.015   9.105
26349WAT      O79288   4.566   1.525   2.871
26349WAT     H179289   4.612   1.471   2.800
26349WAT     H279290   4.571   1.476   2.958
26350WAT      O79291   5.943   2.420   0.643
26350WAT     H179292   5.881   2.360   0.593
26350WAT     H279293   6.030   2.427   0.594
26351WAT      O79294   5.716   2.688   8.770
26351WAT     H179295   5.700   2.606   8.714
26351WAT     H279296   5.670   2.677   8.858
26352WAT      O79297   2.358   0.461   7.728
26352WAT     H179298   2.387   0.410   7.647
26352WAT     H279299   2.434   0.464   7.793
26353WAT      O79300   9.858   5.671   3.457
26353WAT     H179301   9.770   5.656   3.411
26353WAT     H279302   9.921   5.717   3.394
26354WAT      O79303   5.620   2.922   8.655
26354WAT     H179304   5.646   2.996   8.716
26354WAT     H279305   5.670   2.839   8.680
26355WAT      O79306   2.676   1.949   3.130
26355WAT     H179307   2.744   2.020   3.113
26355WAT     H279308   2.623   1.973   3.211
26356WAT      O79309   3.780   3.889   0.695
26356WAT     H179310   3.866   3.873   0.647
26356WAT     H279311   3.704   3.887   0.629
26357WAT      O79312   3.815   1.035   3.615
26357WAT     H179313   3.828   0.981   3.698
26357WAT     H279314   3.860   0.989   3.538
26358WAT      O79315   4.207   8.082   8.320
26358WAT     H179316   4.217   7.997   8.267
26358WAT     H279317   4.269   8.151   8.284
26359WAT      O79318   3.950   1.124   2.919
26359WAT     H179319   3.976   1.204   2.972
26359WAT     H279320   3.924   1.152   2.827
26360WAT      O79321   7.906   2.111   0.422
26360WAT     H179322   7.896   2.158   0.334
26360WAT     H279323   7.960   2.166   0.484
26361WAT      O79324   3.583   4.278   6.017
26361WAT     H179325   3.630   4.273   5.930
26361WAT     H279326   3.564   4.373   6.040
26362WAT      O79327   2.908   9.405   2.965
26362WAT     H179328   2.864   9.490   2.935
26362WAT     H279329   2.929   9.348   2.886
26363WAT      O79330   9.285   7.386   6.491
26363WAT     H179331   9.331   7.349   6.410
26363WAT     H279332   9.327   7.348   6.573
26364WAT      O79333   4.555   5.321   4.291
26364WAT     H179334   4.589   5.414   4.280
26364WAT     H279335   4.491   5.299   4.218
26365WAT      O79336   9.866   8.706   7.747
26365WAT     H179337   9.893   8.679   7.839
26365WAT     H279338   9.935   8.676   7.681
26366WAT      O79339   9.241   1.745   5.228
26366WAT     H179340   9.175   1.678   5.261
26366WAT     H279341   9.328   1.734   5.276
26367WAT      O79342   1.848   7.818   8.704
26367WAT     H179343   1.938   7.821   8.662
26367WAT     H279344   1.814   7.911   8.719
26368WAT      O79345   1.899   0.389   7.628
26368WAT     H179346   1.834   0.377   7.704
26368WAT     H279347   1.848   0.394   7.542
26369WAT      O79348   4.660   1.869   3.947
26369WAT     H179349   4.724   1.937   3.910
26369WAT     H279350   4.608   1.828   3.872
26370WAT      O79351   3.949   3.367   7.552
26370WAT     H179352   3.969   3.269   7.559
26370WAT     H279353   3.851   3.380   7.533
26371WAT      O79354   9.361   2.665   1.495
26371WAT     H179355   9.454   2.675   1.460
26371WAT     H279356   9.357   2.694   1.590
26372WAT      O79357   6.753   7.681   8.411
26372WAT     H179358   6.804   7.718   8.333
26372WAT     H279359   6.760   7.581   8.410
26373WAT      O79360   6.519   2.428   8.852
26373WAT     H179361   6.504   2.487   8.773
26373WAT     H279362   6.601   2.372   8.837
26374WAT      O79363   2.903   9.578   2.672
26374WAT     H179364   2.911   9.677   2.661
26374WAT     H279365   2.994   9.540   2.688
26375WAT      O79366   5.591   2.236   3.716
26375WAT     H179367   5.581   2.322   3.667
26375WAT     H279368   5.501   2.192   3.724
26376WAT      O79369   4.605   0.838   6.072
26376WAT     H179370   4.607   0.938   6.072
26376WAT     H279371   4.524   0.805   6.023
26377WAT      O79372   7.474   2.268   1.387
26377WAT     H179373   7.509   2.196   1.446
26377WAT     H279374   7.453   2.230   1.297
26378WAT      O79375   4.773   8.956   4.491
26378WAT     H179376   4.796   8.863   4.464
26378WAT     H279377   4.799   8.970   4.587
26379WAT      O79378   7.885   0.777   8.201
26379WAT     H179379   7.922   0.840   8.269
26379WAT     H279380   7.828   0.709   8.246
26380WAT      O79381   5.883   5.355   0.867
26380WAT     H179382   5.866   5.266   0.825
26380WAT     H279383   5.913   5.420   0.798
26381WAT      O79384   8.286   6.847   7.089
26381WAT     H179385   8.361   6.822   7.028
26381WAT     H279386   8.200   6.809   7.053
26382WAT      O79387   9.651   8.336   4.393
26382WAT     H179388   9.552   8.344   4.388
26382WAT     H279389   9.689   8.415   4.442
26383WAT      O79390   6.654   7.905   9.323
26383WAT     H179391   6.690   7.951   9.242
26383WAT     H279392   6.598   7.969   9.376
26384WAT      O79393   5.010   1.137   5.125
26384WAT     H179394   4.929   1.117   5.069
26384WAT     H279395   5.002   1.229   5.163
26385WAT      O79396   8.221   5.703   4.222
26385WAT     H179397   8.126   5.692   4.253
26385WAT     H279398   8.276   5.742   4.296
26386WAT      O79399   1.041   2.276   3.766
26386WAT     H179400   1.122   2.257   3.821
26386WAT     H279401   0.960   2.274   3.825
26387WAT      O79402   2.630   9.256   6.212
26387WAT     H179403   2.696   9.195   6.167
26387WAT     H279404   2.668   9.348   6.216
26388WAT      O79405   3.933   3.805   2.759
26388WAT     H179406   3.916   3.814   2.857
26388WAT     H279407   4.032   3.813   2.742
26389WAT      O79408   1.412   0.123   2.127
26389WAT     H179409   1.476   0.149   2.199
26389WAT     H279410   1.376   0.031   2.146
26390WAT      O79411   9.694   3.653   7.245
26390WAT     H179412   9.685   3.706   7.161
26390WAT     H279413   9.644   3.566   7.236
26391WAT      O79414   2.692   7.507   1.175
26391WAT     H179415   2.668   7.478   1.268
26391WAT     H279416   2.756   7.584   1.180
26392WAT      O79417   3.723   4.476   1.630
26392WAT     H179418   3.814   4.514   1.646
26392WAT     H279419   3.731   4.378   1.613
26393WAT      O79420   7.255   1.710   3.117
26393WAT     H179421   7.161   1.694   3.148
26393WAT     H279422   7.255   1.777   3.043
26394WAT      O79423   4.655   7.370   9.009
26394WAT     H179424   4.560   7.350   9.034
26394WAT     H279425   4.656   7.423   8.924
26395WAT      O79426   5.501   1.535   7.286
26395WAT     H179427   5.438   1.459   7.275
26395WAT     H279428   5.512   1.582   7.198
26396WAT      O79429   9.318   8.019   0.229
26396WAT     H179430   9.342   8.115   0.212
26396WAT     H279431   9.390   7.976   0.284
26397WAT      O79432   0.041   8.342   5.381
26397WAT     H179433   0.098   8.376   5.307
26397WAT     H279434   0.099   8.303   5.453
26398WAT      O79435   7.611   9.656   3.802
26398WAT     H179436   7.635   9.702   3.716
26398WAT     H279437   7.657   9.702   3.878
26399WAT      O79438   8.092   6.038   8.073
26399WAT     H179439   8.151   5.962   8.044
26399WAT     H279440   7.997   6.006   8.075
26400WAT      O79441   0.804   0.491   9.008
26400WAT     H179442   0.753   0.424   8.954
26400WAT     H279443   0.796   0.469   9.105
26401WAT      O79444   9.211   4.590   4.636
26401WAT     H179445   9.272   4.668   4.643
26401WAT     H279446   9.238   4.519   4.701
26402WAT      O79447   8.191   2.794   4.527
26402WAT     H179448   8.115   2.752   4.476
26402WAT     H279449   8.239   2.723   4.579
26403WAT      O79450   8.699   7.354   3.345
26403WAT     H179451   8.707   7.418   3.421
26403WAT     H279452   8.710   7.260   3.378
26404WAT      O79453   2.606   0.184   4.077
26404WAT     H179454   2.680   0.194   4.010
26404WAT     H279455   2.630   0.236   4.159
26405WAT      O79456   8.746   2.167   6.289
26405WAT     H179457   8.828   2.212   6.254
26405WAT     H279458   8.739   2.075   6.251
26406WAT      O79459   4.727   8.055   7.944
26406WAT     H179460   4.673   8.071   8.027
26406WAT     H279461   4.793   8.129   7.933
26407WAT      O79462   5.244   6.324   9.069
26407WAT     H179463   5.280   6.417   9.067
26407WAT     H279464   5.178   6.315   9.143
26408WAT      O79465   6.400   5.641   6.591
26408WAT     H179466   6.354   5.566   6.640
26408WAT     H279467   6.387   5.726   6.641
26409WAT      O79468   0.704   7.026   9.775
26409WAT     H179469   0.781   7.027   9.839
26409WAT     H279470   0.708   7.107   9.716
26410WAT      O79471   4.550   1.914   8.584
26410WAT     H179472   4.488   1.992   8.581
26410WAT     H279473   4.640   1.941   8.551
26411WAT      O79474   2.885   5.502   1.960
26411WAT     H179475   2.788   5.521   1.947
26411WAT     H279476   2.902   5.479   2.056
26412WAT      O79477   4.480   5.842   2.588
26412WAT     H179478   4.486   5.755   2.540
26412WAT     H279479   4.450   5.827   2.682
26413WAT      O79480   1.060   4.414   7.812
26413WAT     H179481   1.046   4.329   7.760
26413WAT     H279482   1.138   4.463   7.774
26414WAT      O79483   0.045   8.056   6.569
26414WAT     H179484   0.051   7.972   6.515
26414WAT     H279485   0.129   8.108   6.559
26415WAT      O79486   0.784   3.706   7.083
26415WAT     H179487   0.849   3.636   7.112
26415WAT     H279488   0.707   3.662   7.036
26416WAT      O79489   4.417   2.693   5.965
26416WAT     H179490   4.445   2.736   6.051
26416WAT     H279491   4.373   2.760   5.906
26417WAT      O79492   6.472   2.367   7.045
26417WAT     H179493   6.425   2.317   6.973
26417WAT     H279494   6.564   2.331   7.057
26418WAT      O79495   1.499   2.139   2.652
26418WAT     H179496   1.430   2.171   2.716
26418WAT     H279497   1.569   2.210   2.640
26419WAT      O79498   3.813   7.739   5.132
26419WAT     H179499   3.754   7.790   5.195
26419WAT     H279500   3.760   7.666   5.089
26420WAT      O79501   6.999   1.142   2.109
26420WAT     H179502   6.974   1.139   2.013
26420WAT     H279503   7.096   1.163   2.118
26421WAT      O79504   2.071   6.177   3.126
26421WAT     H179505   2.121   6.261   3.148
26421WAT     H279506   2.127   6.098   3.149
26422WAT      O79507   5.103   9.109   5.935
26422WAT     H179508   5.077   9.018   5.900
26422WAT     H279509   5.080   9.114   6.032
26423WAT      O79510   2.368   4.394   2.956
26423WAT     H179511   2.383   4.326   2.884
26423WAT     H279512   2.447   4.456   2.959
26424WAT      O79513   6.701   5.646   0.715
26424WAT     H179514   6.661   5.556   0.730
26424WAT     H279515   6.717   5.661   0.618
26425WAT      O79516   1.207   0.251   2.257
26425WAT     H179517   1.286   0.218   2.204
26425WAT     H279518   1.124   0.244   2.201
26426WAT      O79519   9.345   9.637   8.946
26426WAT     H179520   9.399   9.718   8.968
26426WAT     H279521   9.396   9.579   8.881
26427WAT      O79522   8.025   4.986   7.269
26427WAT     H179523   8.001   5.075   7.230
26427WAT     H279524   7.967   4.915   7.228
26428WAT      O79525   6.249   3.642   2.269
26428WAT     H179526   6.186   3.676   2.199
26428WAT     H279527   6.197   3.598   2.342
26429WAT      O79528   3.243   2.850   5.265
26429WAT     H179529   3.287   2.929   5.307
26429WAT     H279530   3.197   2.879   5.180
26430WAT      O79531   4.500   1.330   3.314
26430WAT     H179532   4.401   1.344   3.306
26430WAT     H279533   4.547   1.386   3.247
26431WAT      O79534   4.574   5.813   1.561
26431WAT     H179535   4.549   5.796   1.656
26431WAT     H279536   4.523   5.892   1.526
26432WAT      O79537   3.092   6.785   9.525
26432WAT     H179538   3.090   6.685   9.515
26432WAT     H279539   3.097   6.828   9.435
26433WAT      O79540   5.389   6.495   0.768
26433WAT     H179541   5.314   6.448   0.815
26433WAT     H279542   5.372   6.594   0.770
26434WAT      O79543   1.181   2.008   4.066
26434WAT     H179544   1.245   2.056   4.005
26434WAT     H279545   1.141   2.074   4.130
26435WAT      O79546   2.071   0.297   9.575
26435WAT     H179547   1.984   0.253   9.554
26435WAT     H279548   2.057   0.370   9.641
26436WAT      O79549   9.768   1.411   5.455
26436WAT     H179550   9.854   1.360   5.456
26436WAT     H279551   9.730   1.411   5.362
26437WAT      O79552   5.781   2.781   4.152
26437WAT     H179553   5.728   2.765   4.235
26437WAT     H279554   5.770   2.876   4.123
26438WAT      O79555   8.588   5.690   7.943
26438WAT     H179556   8.563   5.672   7.848
26438WAT     H279557   8.686   5.708   7.949
26439WAT      O79558   3.915   1.236   9.416
26439WAT     H179559   3.930   1.329   9.447
26439WAT     H279560   3.878   1.237   9.323
26440WAT      O79561   4.884   2.103   3.144
26440WAT     H179562   4.814   2.048   3.190
26440WAT     H279563   4.968   2.102   3.199
26441WAT      O79564   0.683   4.679   5.563
26441WAT     H179565   0.620   4.747   5.526
26441WAT     H279566   0.689   4.602   5.500
26442WAT      O79567   0.998   2.445   8.122
26442WAT     H179568   0.913   2.465   8.074
26442WAT     H279569   1.062   2.521   8.110
26443WAT      O79570   7.543   1.137   9.085
26443WAT     H179571   7.588   1.061   9.132
26443WAT     H279572   7.611   1.206   9.060
26444WAT      O79573   9.836   9.030   6.681
26444WAT     H179574   9.865   8.937   6.657
26444WAT     H279575   9.743   9.027   6.719
26445WAT      O79576   9.565   4.425   9.408
26445WAT     H179577   9.546   4.375   9.493
26445WAT     H279578   9.583   4.359   9.335
26446WAT      O79579   1.917   4.553   9.049
26446WAT     H179580   1.960   4.478   8.999
26446WAT     H279581   1.959   4.639   9.022
26447WAT      O79582   1.318   9.637   4.193
26447WAT     H179583   1.231   9.588   4.199
26447WAT     H279584   1.321   9.688   4.107
26448WAT      O79585   6.548   4.008   0.303
26448WAT     H179586   6.480   3.958   0.356
26448WAT     H279587   6.516   4.019   0.209
26449WAT      O79588   6.494   8.759   5.036
26449WAT     H179589   6.396   8.740   5.026
26449WAT     H279590   6.506   8.845   5.085
26450WAT      O79591   2.140   6.622   8.494
26450WAT     H179592   2.063   6.684   8.503
26450WAT     H279593   2.170   6.591   8.584
26451WAT      O79594   1.196   3.987   1.745
26451WAT     H179595   1.238   3.928   1.677
26451WAT     H279596   1.151   4.064   1.700
26452WAT      O79597   6.180   9.278   8.109
26452WAT     H179598   6.114   9.206   8.086
26452WAT     H279599   6.140   9.367   8.090
26453WAT      O79600   3.945   3.006   3.813
26453WAT     H179601   3.957   3.090   3.865
26453WAT     H279602   4.035   2.973   3.782
26454WAT      O79603   5.673   9.159   9.828
26454WAT     H179604   5.765   9.179   9.794
26454WAT     H279605   5.678   9.086   9.896
26455WAT      O79606   4.578   6.195   5.800
26455WAT     H179607   4.490   6.154   5.825
26455WAT     H279608   4.614   6.247   5.877
26456WAT      O79609   7.917   3.221   4.633
26456WAT     H179610   7.926   3.142   4.694
26456WAT     H279611   7.826   3.222   4.593
26457WAT      O79612   6.558   0.236   6.306
26457WAT     H179613   6.464   0.260   6.331
26457WAT     H279614   6.621   0.284   6.368
26458WAT      O79615   7.840   4.498   8.274
26458WAT     H179616   7.797   4.501   8.184
26458WAT     H279617   7.898   4.417   8.281
26459WAT      O79618   3.838   0.694   9.080
26459WAT     H179619   3.883   0.623   9.026
26459WAT     H279620   3.851   0.676   9.177
26460WAT      O79621   1.430   8.004   0.096
26460WAT     H179622   1.383   8.085   0.129
26460WAT     H279623   1.363   7.934   0.071
26461WAT      O79624   1.382   4.277   4.202
26461WAT     H179625   1.385   4.376   4.211
26461WAT     H279626   1.397   4.235   4.291
26462WAT      O79627   3.623   6.413   0.761
26462WAT     H179628   3.536   6.373   0.735
26462WAT     H279629   3.698   6.354   0.730
26463WAT      O79630   4.631   4.604   7.303
26463WAT     H179631   4.594   4.674   7.364
26463WAT     H279632   4.585   4.608   7.215
26464WAT      O79633   9.675   4.064   1.911
26464WAT     H179634   9.687   4.154   1.954
26464WAT     H279635   9.595   4.067   1.850
26465WAT      O79636   9.229   6.882   2.117
26465WAT     H179637   9.190   6.816   2.182
26465WAT     H279638   9.204   6.856   2.024
26466WAT      O79639   2.892   3.457   1.644
26466WAT     H179640   2.921   3.429   1.552
26466WAT     H279641   2.963   3.514   1.686
26467WAT      O79642   0.278   4.173   9.500
26467WAT     H179643   0.278   4.271   9.480
26467WAT     H279644   0.200   4.129   9.456
26468WAT      O79645   6.269   4.086   0.471
26468WAT     H179646   6.302   4.113   0.561
26468WAT     H279647   6.265   4.166   0.411
26469WAT      O79648   3.390   3.675   6.351
26469WAT     H179649   3.387   3.606   6.423
26469WAT     H279650   3.326   3.649   6.278
26470WAT      O79651   6.462   9.492   2.509
26470WAT     H179652   6.546   9.458   2.467
26470WAT     H279653   6.412   9.416   2.549
26471WAT      O79654   0.876   1.268   8.190
26471WAT     H179655   0.924   1.353   8.172
26471WAT     H279656   0.778   1.287   8.202
26472WAT      O79657   8.320   0.913   5.993
26472WAT     H179658   8.280   0.905   6.084
26472WAT     H279659   8.258   0.965   5.934
26473WAT      O79660   0.371   6.041   8.655
26473WAT     H179661   0.337   5.947   8.653
26473WAT     H279662   0.471   6.040   8.662
26474WAT      O79663   8.782   6.675   5.847
26474WAT     H179664   8.841   6.655   5.925
26474WAT     H279665   8.724   6.753   5.868
26475WAT      O79666   5.101   0.834   5.469
26475WAT     H179667   5.180   0.786   5.507
26475WAT     H279668   5.028   0.836   5.537
26476WAT      O79669   8.321   0.135   9.021
26476WAT     H179670   8.360   0.119   9.112
26476WAT     H279671   8.335   0.055   8.964
26477WAT      O79672   0.114   1.859   2.504
26477WAT     H179673   0.072   1.816   2.424
26477WAT     H279674   0.044   1.879   2.572
26478WAT      O79675   6.519   9.584   8.657
26478WAT     H179676   6.603   9.590   8.710
26478WAT     H279677   6.488   9.489   8.655
26479WAT      O79678   7.098   7.304   9.110
26479WAT     H179679   7.008   7.291   9.151
26479WAT     H279680   7.089   7.347   9.021
26480WAT      O79681   2.400   3.507   0.971
26480WAT     H179682   2.346   3.477   1.050
26480WAT     H279683   2.473   3.568   1.002
26481WAT      O79684   8.380   1.726   9.792
26481WAT     H179685   8.312   1.743   9.863
26481WAT     H279686   8.368   1.793   9.719
26482WAT      O79687   3.387   7.561   7.425
26482WAT     H179688   3.384   7.539   7.522
26482WAT     H279689   3.350   7.653   7.410
26483WAT      O79690   6.066   0.546   3.782
26483WAT     H179691   6.076   0.544   3.682
26483WAT     H279692   6.081   0.639   3.815
26484WAT      O79693   1.536   0.099   3.671
26484WAT     H179694   1.576   0.023   3.723
26484WAT     H279695   1.580   0.106   3.582
26485WAT      O79696   3.945   6.922   3.273
26485WAT     H179697   3.859   6.878   3.296
26485WAT     H279698   3.950   7.011   3.318
26486WAT      O79699   5.340   6.470   7.006
26486WAT     H179700   5.284   6.431   6.932
26486WAT     H279701   5.395   6.398   7.047
26487WAT      O79702   5.452   7.754   8.454
26487WAT     H179703   5.359   7.789   8.440
26487WAT     H279704   5.510   7.826   8.492
26488WAT      O79705   6.285   0.743   3.564
26488WAT     H179706   6.258   0.831   3.526
26488WAT     H279707   6.370   0.753   3.616
26489WAT      O79708   7.005   7.309   0.957
26489WAT     H179709   7.080   7.309   0.891
26489WAT     H279710   6.928   7.256   0.920
26490WAT      O79711   4.651   8.592   6.209
26490WAT     H179712   4.702   8.533   6.147
26490WAT     H279713   4.686   8.685   6.203
26491WAT      O79714   1.738   4.847   7.179
26491WAT     H179715   1.742   4.750   7.157
26491WAT     H279716   1.661   4.864   7.240
26492WAT      O79717   4.089   8.176   1.513
26492WAT     H179718   3.993   8.152   1.524
26492WAT     H279719   4.107   8.201   1.417
26493WAT      O79720   6.320   6.642   7.872
26493WAT     H179721   6.408   6.672   7.910
26493WAT     H279722   6.284   6.714   7.813
26494WAT      O79723   8.255   2.537   6.504
26494WAT     H179724   8.183   2.521   6.438
26494WAT     H279725   8.216   2.542   6.596
26495WAT      O79726   4.556   8.933   7.495
26495WAT     H179727   4.540   9.029   7.469
26495WAT     H279728   4.628   8.930   7.565
26496WAT      O79729   7.905   5.419   7.699
26496WAT     H179730   7.940   5.416   7.793
26496WAT     H279731   7.843   5.341   7.684
26497WAT      O79732   7.474   2.314   3.828
26497WAT     H179733   7.408   2.313   3.902
26497WAT     H279734   7.567   2.316   3.865
26498WAT      O79735   2.259   1.567   3.753
26498WAT     H179736   2.326   1.561   3.828
26498WAT     H279737   2.272   1.652   3.703
26499WAT      O79738   3.003   0.827   4.798
26499WAT     H179739   2.963   0.799   4.710
26499WAT     H279740   3.075   0.763   4.823
26500WAT      O79741   5.826   1.460   9.054
26500WAT     H179742   5.911   1.419   9.023
26500WAT     H279743   5.806   1.430   9.147
26501WAT      O79744   9.313   8.261   2.648
26501WAT     H179745   9.333   8.230   2.741
26501WAT     H279746   9.267   8.188   2.597
26502WAT      O79747   8.524   2.265   2.637
26502WAT     H179748   8.492   2.359   2.650
26502WAT     H279749   8.601   2.264   2.573
26503WAT      O79750   8.662   7.344   4.046
26503WAT     H179751   8.713   7.312   3.966
26503WAT     H279752   8.565   7.327   4.033
26504WAT      O79753   5.934   4.892   4.526
26504WAT     H179754   5.892   4.973   4.485
26504WAT     H279755   5.927   4.815   4.462
26505WAT      O79756   0.096   0.214   6.534
26505WAT     H179757   0.136   0.162   6.610
26505WAT     H279758   0.048   0.151   6.473
26506WAT      O79759   8.443   0.402   3.927
26506WAT     H179760   8.397   0.487   3.903
26506WAT     H279761   8.375   0.332   3.949
26507WAT      O79762   2.463   5.494   2.519
26507WAT     H179763   2.364   5.479   2.508
26507WAT     H279764   2.512   5.415   2.482
26508WAT      O79765   8.287   0.782   1.223
26508WAT     H179766   8.229   0.853   1.184
26508WAT     H279767   8.237   0.732   1.293
26509WAT      O79768   3.259   4.559   4.152
26509WAT     H179769   3.328   4.492   4.177
26509WAT     H279770   3.173   4.537   4.199
26510WAT      O79771   0.150   0.071   0.639
26510WAT     H179772   0.122   0.098   0.547
26510WAT     H279773   0.079   0.098   0.705
26511WAT      O79774   7.620   5.501   9.448
26511WAT     H179775   7.562   5.428   9.483
26511WAT     H279776   7.639   5.484   9.351
26512WAT      O79777   3.846   9.689   9.253
26512WAT     H179778   3.759   9.669   9.208
26512WAT     H279779   3.898   9.604   9.263
26513WAT      O79780   4.447   8.034   8.115
26513WAT     H179781   4.360   7.990   8.092
26513WAT     H279782   4.430   8.127   8.147
26514WAT      O79783   8.980   3.444   2.063
26514WAT     H179784   9.074   3.444   2.099
26514WAT     H279785   8.918   3.407   2.133
26515WAT      O79786   8.765   1.329   6.855
26515WAT     H179787   8.671   1.296   6.844
26515WAT     H279788   8.803   1.292   6.940
26516WAT      O79789   6.958   4.613   7.631
26516WAT     H179790   7.029   4.674   7.666
26516WAT     H279791   6.910   4.658   7.556
26517WAT      O79792   8.486   0.064   4.250
26517WAT     H179793   8.554   0.069   4.323
26517WAT     H279794   8.521   0.112   4.169
26518WAT      O79795   8.053   4.757   6.382
26518WAT     H179796   8.076   4.767   6.285
26518WAT     H279797   8.125   4.797   6.438
26519WAT      O79798   8.307   8.157   2.433
26519WAT     H179799   8.312   8.061   2.404
26519WAT     H279800   8.257   8.163   2.519
26520WAT      O79801   9.379   6.410   9.798
26520WAT     H179802   9.420   6.340   9.856
26520WAT     H279803   9.310   6.368   9.738
26521WAT      O79804   3.940   9.106   0.251
26521WAT     H179805   4.017   9.119   0.189
26521WAT     H279806   3.910   9.011   0.248
26522WAT      O79807   3.452   5.448   1.284
26522WAT     H179808   3.406   5.423   1.198
26522WAT     H279809   3.498   5.367   1.322
26523WAT      O79810   3.840   2.748   7.420
26523WAT     H179811   3.809   2.724   7.512
26523WAT     H279812   3.764   2.740   7.356
26524WAT      O79813   8.679   5.290   3.230
26524WAT     H179814   8.767   5.336   3.246
26524WAT     H279815   8.606   5.344   3.272
26525WAT      O79816   2.257   2.088   8.801
26525WAT     H179817   2.289   2.147   8.728
26525WAT     H279818   2.278   1.993   8.779
26526WAT      O79819   6.325   5.475   2.115
26526WAT     H179820   6.268   5.415   2.060
26526WAT     H279821   6.269   5.517   2.187
26527WAT      O79822   9.350   0.199   1.011
26527WAT     H179823   9.397   0.221   0.925
26527WAT     H279824   9.388   0.115   1.049
26528WAT      O79825   6.336   9.729   1.790
26528WAT     H179826   6.342   9.797   1.717
26528WAT     H279827   6.407   9.660   1.777
26529WAT      O79828   9.381   1.960   6.255
26529WAT     H179829   9.432   1.967   6.169
26529WAT     H279830   9.445   1.957   6.332
26530WAT      O79831   9.193   8.026   1.591
26530WAT     H179832   9.249   8.064   1.665
26530WAT     H279833   9.174   7.930   1.611
26531WAT      O79834   3.870   5.231   1.371
26531WAT     H179835   3.886   5.144   1.325
26531WAT     H279836   3.921   5.234   1.457
26532WAT      O79837   8.235   7.021   3.850
26532WAT     H179838   8.245   7.085   3.773
26532WAT     H279839   8.325   7.007   3.893
26533WAT      O79840   3.376   8.717   0.557
26533WAT     H179841   3.459   8.758   0.596
26533WAT     H279842   3.400   8.661   0.478
26534WAT      O79843   2.937   3.566   3.564
26534WAT     H179844   2.944   3.521   3.475
26534WAT     H279845   2.889   3.653   3.553
26535WAT      O79846   3.090   9.648   3.423
26535WAT     H179847   3.147   9.587   3.479
26535WAT     H279848   3.141   9.677   3.342
26536WAT      O79849   6.878   8.162   8.696
26536WAT     H179850   6.937   8.100   8.748
26536WAT     H279851   6.788   8.119   8.682
26537WAT      O79852   8.398   6.330   6.356
26537WAT     H179853   8.442   6.420   6.355
26537WAT     H279854   8.422   6.282   6.440
26538WAT      O79855   8.314   4.246   2.156
26538WAT     H179856   8.413   4.237   2.142
26538WAT     H279857   8.267   4.237   2.068
26539WAT      O79858   9.802   1.232   7.468
26539WAT     H179859   9.823   1.185   7.553
26539WAT     H279860   9.711   1.273   7.474
26540WAT      O79861   4.175   5.404   8.196
26540WAT     H179862   4.251   5.430   8.256
26540WAT     H279863   4.191   5.312   8.160
26541WAT      O79864   4.877   0.317   2.997
26541WAT     H179865   4.957   0.375   3.014
26541WAT     H279866   4.802   0.374   2.963
26542WAT      O79867   5.285   3.897   3.229
26542WAT     H179868   5.348   3.820   3.242
26542WAT     H279869   5.303   3.940   3.141
26543WAT      O79870   4.170   7.233   4.023
26543WAT     H179871   4.234   7.156   4.019
26543WAT     H279872   4.215   7.311   4.065
26544WAT      O79873   1.798   1.787   1.052
26544WAT     H179874   1.856   1.745   1.122
26544WAT     H279875   1.731   1.720   1.020
26545WAT      O79876   9.857   1.682   5.274
26545WAT     H179877   9.758   1.690   5.283
26545WAT     H279878   9.901   1.726   5.353
26546WAT      O79879   7.138   7.053   8.176
26546WAT     H179880   7.166   6.958   8.163
26546WAT     H279881   7.096   7.087   8.091
26547WAT      O79882   1.770   0.462   0.746
26547WAT     H179883   1.818   0.547   0.725
26547WAT     H279884   1.753   0.411   0.662
26548WAT      O79885   8.969   8.488   8.294
26548WAT     H179886   8.991   8.397   8.329
26548WAT     H279887   8.870   8.503   8.298
26549WAT      O79888   6.195   0.107   1.066
26549WAT     H179889   6.096   0.095   1.075
26549WAT     H279890   6.239   0.089   1.153
26550WAT      O79891   1.617   7.018   9.863
26550WAT     H179892   1.677   6.945   9.895
26550WAT     H279893   1.576   7.064   9.942
26551WAT      O79894   2.568   1.239   5.670
26551WAT     H179895   2.644   1.174   5.676
26551WAT     H279896   2.487   1.198   5.713
26552WAT      O79897   1.993   0.579   0.594
26552WAT     H179898   1.939   0.664   0.587
26552WAT     H279899   2.077   0.589   0.541
26553WAT      O79900   0.434   3.160   6.597
26553WAT     H179901   0.493   3.099   6.651
26553WAT     H279902   0.491   3.215   6.536
26554WAT      O79903   3.964   7.168   8.898
26554WAT     H179904   3.891   7.187   8.832
26554WAT     H279905   3.940   7.205   8.987
26555WAT      O79906   3.551   5.204   9.128
26555WAT     H179907   3.634   5.160   9.162
26555WAT     H279908   3.533   5.172   9.035
26556WAT      O79909   4.341   6.301   8.143
26556WAT     H179910   4.421   6.332   8.091
26556WAT     H279911   4.369   6.278   8.236
26557WAT      O79912   4.130   1.526   7.734
26557WAT     H179913   4.119   1.431   7.764
26557WAT     H279914   4.123   1.530   7.634
26558WAT      O79915   1.166   7.313   0.861
26558WAT     H179916   1.090   7.303   0.926
26558WAT     H279917   1.227   7.234   0.870
26559WAT      O79918   4.040   5.159   7.325
26559WAT     H179919   3.958   5.215   7.308
26559WAT     H279920   4.085   5.191   7.408
26560WAT      O79921   1.841   8.325   4.073
26560WAT     H179922   1.890   8.399   4.118
26560WAT     H279923   1.859   8.327   3.975
26561WAT      O79924   1.900   5.288   2.755
26561WAT     H179925   1.995   5.311   2.734
26561WAT     H279926   1.889   5.189   2.754
26562WAT      O79927   5.142   5.275   7.695
26562WAT     H179928   5.161   5.258   7.792
26562WAT     H279929   5.228   5.283   7.645
26563WAT      O79930   3.848   6.522   0.542
26563WAT     H179931   3.889   6.431   0.550
26563WAT     H279932   3.749   6.515   0.544
26564WAT      O79933   1.539   7.802   0.860
26564WAT     H179934   1.483   7.879   0.889
26564WAT     H279935   1.520   7.780   0.765
26565WAT      O79936   7.429   8.797   0.601
26565WAT     H179937   7.404   8.700   0.602
26565WAT     H279938   7.480   8.820   0.684
26566WAT      O79939   0.189   6.869   6.905
26566WAT     H179940   0.181   6.875   7.004
26566WAT     H279941   0.233   6.782   6.881
26567WAT      O79942   7.950   2.647   7.014
26567WAT     H179943   7.914   2.739   7.029
26567WAT     H279944   8.021   2.627   7.082
26568WAT      O79945   4.513   8.468   6.941
26568WAT     H179946   4.436   8.431   6.889
26568WAT     H279947   4.539   8.402   7.012
26569WAT      O79948   6.412   2.024   1.896
26569WAT     H179949   6.392   2.018   1.994
26569WAT     H279950   6.479   2.096   1.880
26570WAT      O79951   4.244   9.809   3.060
26570WAT     H179952   4.272   9.874   2.990
26570WAT     H279953   4.232   9.719   3.019
26571WAT      O79954   4.488   6.673   8.834
26571WAT     H179955   4.483   6.757   8.889
26571WAT     H279956   4.486   6.594   8.895
26572WAT      O79957   9.838   6.601   7.173
26572WAT     H179958   9.804   6.662   7.245
26572WAT     H279959   9.837   6.649   7.085
26573WAT      O79960   4.539   2.080   7.638
26573WAT     H179961   4.531   2.167   7.590
26573WAT     H279962   4.448   2.042   7.653
26574WAT      O79963   7.972   6.797   8.748
26574WAT     H179964   7.917   6.724   8.709
26574WAT     H279965   8.064   6.795   8.708
26575WAT      O79966   6.171   4.353   9.595
26575WAT     H179967   6.145   4.435   9.646
26575WAT     H279968   6.103   4.281   9.612
26576WAT      O79969   6.265   3.347   7.599
26576WAT     H179970   6.222   3.293   7.528
26576WAT     H279971   6.245   3.307   7.689
26577WAT      O79972   6.979   6.434   6.618
26577WAT     H179973   6.933   6.435   6.529
26577WAT     H279974   6.924   6.485   6.685
26578WAT      O79975   1.981   1.027   8.558
26578WAT     H179976   1.886   0.996   8.568
26578WAT     H279977   2.004   1.034   8.461
26579WAT      O79978   1.220   1.084   0.616
26579WAT     H179979   1.247   1.081   0.520
26579WAT     H279980   1.258   1.004   0.663
26580WAT      O79981   9.187   4.116   2.791
26580WAT     H179982   9.143   4.204   2.772
26580WAT     H279983   9.118   4.049   2.816
26581WAT      O79984   1.847   5.915   5.595
26581WAT     H179985   1.940   5.889   5.623
26581WAT     H279986   1.835   6.013   5.607
26582WAT      O79987   3.243   4.066   9.422
26582WAT     H179988   3.154   4.034   9.455
26582WAT     H279989   3.315   4.008   9.460
26583WAT      O79990   6.712   7.770   9.835
26583WAT     H179991   6.655   7.688   9.842
26583WAT     H279992   6.731   7.806   9.926
26584WAT      O79993   8.187   7.818   3.794
26584WAT     H179994   8.174   7.912   3.826
26584WAT     H279995   8.099   7.778   3.770
26585WAT      O79996   2.702   9.772   8.259
26585WAT     H179997   2.671   9.679   8.240
26585WAT     H279998   2.634   9.820   8.314
26586WAT      O79999   0.656   0.165   1.479
26586WAT     H180000   0.729   0.107   1.514
26586WAT     H280001   0.683   0.261   1.488
26587WAT      O80002   2.718   4.528   0.764
26587WAT     H180003   2.813   4.550   0.786
26587WAT     H280004   2.669   4.612   0.741
26588WAT      O80005   6.776   8.559   2.073
26588WAT     H180006   6.728   8.549   2.159
26588WAT     H280007   6.788   8.656   2.051
26589WAT      O80008   7.546   7.794   8.881
26589WAT     H180009   7.465   7.737   8.893
26589WAT     H280010   7.543   7.838   8.791
26590WAT      O80011   8.077   4.359   8.953
26590WAT     H180012   7.988   4.357   8.999
26590WAT     H280013   8.118   4.450   8.963
26591WAT      O80014   6.901   2.062   6.344
26591WAT     H180015   6.997   2.087   6.351
26591WAT     H280016   6.887   2.004   6.264
26592WAT      O80017   7.993   1.995   1.134
26592WAT     H180018   7.973   2.091   1.153
26592WAT     H280019   8.091   1.984   1.120
26593WAT      O80020   1.801   9.440   4.500
26593WAT     H180021   1.806   9.467   4.596
26593WAT     H280022   1.862   9.497   4.445
26594WAT      O80023   8.857   7.258   1.618
26594WAT     H180024   8.881   7.355   1.627
26594WAT     H280025   8.872   7.229   1.523
26595WAT      O80026   9.451   2.778   5.632
26595WAT     H180027   9.456   2.783   5.732
26595WAT     H280028   9.532   2.730   5.597
26596WAT      O80029   6.760   6.741   1.317
26596WAT     H180030   6.741   6.709   1.224
26596WAT     H280031   6.705   6.822   1.336
26597WAT      O80032   5.147   6.388   5.975
26597WAT     H180033   5.230   6.420   6.020
26597WAT     H280034   5.081   6.358   6.044
26598WAT      O80035   3.224   1.036   1.438
26598WAT     H180036   3.216   0.965   1.368
26598WAT     H280037   3.273   1.000   1.517
26599WAT      O80038   9.084   3.126   6.606
26599WAT     H180039   9.145   3.187   6.657
26599WAT     H280040   9.130   3.038   6.591
26600WAT      O80041   3.330   1.866   3.748
26600WAT     H180042   3.381   1.952   3.742
26600WAT     H280043   3.388   1.795   3.788
26601WAT      O80044   4.772   1.065   2.079
26601WAT     H180045   4.698   0.998   2.073
26601WAT     H280046   4.859   1.017   2.095
26602WAT      O80047   9.616   1.044   7.357
26602WAT     H180048   9.695   0.996   7.319
26602WAT     H280049   9.612   1.028   7.456
26603WAT      O80050   7.013   4.598   2.092
26603WAT     H180051   6.987   4.694   2.087
26603WAT     H280052   6.959   4.552   2.163
26604WAT      O80053   5.693   7.557   5.027
26604WAT     H180054   5.645   7.543   4.940
26604WAT     H280055   5.762   7.628   5.016
26605WAT      O80056   2.775   5.414   8.038
26605WAT     H180057   2.680   5.422   8.067
26605WAT     H280058   2.779   5.389   7.941
26606WAT      O80059   7.742   1.466   5.614
26606WAT     H180060   7.781   1.400   5.679
26606WAT     H280061   7.798   1.469   5.532
26607WAT      O80062   7.958   2.299   2.968
26607WAT     H180063   8.035   2.252   2.927
26607WAT     H280064   7.909   2.351   2.899
26608WAT      O80065   0.335   9.238   0.200
26608WAT     H180066   0.332   9.335   0.225
26608WAT     H280067   0.413   9.221   0.141
26609WAT      O80068   7.603   0.646   7.913
26609WAT     H180069   7.680   0.710   7.907
26609WAT     H280070   7.614   0.574   7.845
26610WAT      O80071   8.155   7.307   8.142
26610WAT     H180072   8.086   7.351   8.085
26610WAT     H280073   8.185   7.222   8.099
26611WAT      O80074   3.368   0.553   8.731
26611WAT     H180075   3.276   0.591   8.733
26611WAT     H280076   3.426   0.601   8.797
26612WAT      O80077   0.329   7.583   5.123
26612WAT     H180078   0.307   7.486   5.108
26612WAT     H280079   0.392   7.614   5.051
26613WAT      O80080   6.499   3.563   2.367
26613WAT     H180081   6.409   3.603   2.355
26613WAT     H280082   6.569   3.630   2.342
26614WAT      O80083   6.203   2.602   8.653
26614WAT     H180084   6.139   2.578   8.726
26614WAT     H280085   6.192   2.538   8.577
26615WAT      O80086   8.549   1.097   7.919
26615WAT     H180087   8.637   1.066   7.883
26615WAT     H280088   8.482   1.100   7.844
26616WAT      O80089   1.640   9.271   2.699
26616WAT     H180090   1.542   9.260   2.716
26616WAT     H280091   1.684   9.308   2.781
26617WAT      O80092   9.150   1.027   9.024
26617WAT     H180093   9.051   1.021   9.012
26617WAT     H280094   9.195   1.033   8.935
26618WAT      O80095   3.311   8.926   2.894
26618WAT     H180096   3.369   8.891   2.820
26618WAT     H280097   3.216   8.904   2.875
26619WAT      O80098   2.194   9.765   4.112
26619WAT     H180099   2.244   9.714   4.181
26619WAT     H280100   2.097   9.771   4.137
26620WAT      O80101   0.839   1.973   4.583
26620WAT     H180102   0.933   2.003   4.566
26620WAT     H280103   0.808   2.007   4.672
26621WAT      O80104   2.089   8.659   0.491
26621WAT     H180105   2.161   8.590   0.492
26621WAT     H280106   2.090   8.710   0.578
26622WAT      O80107   6.819   0.126   6.904
26622WAT     H180108   6.757   0.048   6.894
26622WAT     H280109   6.913   0.094   6.906
26623WAT      O80110   8.653   9.306   4.050
26623WAT     H180111   8.706   9.244   4.108
26623WAT     H280112   8.691   9.305   3.958
26624WAT      O80113   2.947   0.414   8.174
26624WAT     H180114   3.034   0.462   8.190
26624WAT     H280115   2.876   0.480   8.153
26625WAT      O80116   9.250   4.089   9.009
26625WAT     H180117   9.284   4.067   9.100
26625WAT     H280118   9.244   4.005   8.954
26626WAT      O80119   9.549   6.036   1.996
26626WAT     H180120   9.505   6.080   2.074
26626WAT     H280121   9.480   6.012   1.928
26627WAT      O80122   6.607   0.054   4.419
26627WAT     H180123   6.661   0.023   4.341
26627WAT     H280124   6.588   0.151   4.409
26628WAT      O80125   2.381   7.400   1.178
26628WAT     H180126   2.368   7.411   1.079
26628WAT     H280127   2.444   7.471   1.211
26629WAT      O80128   8.464   8.419   2.715
26629WAT     H180129   8.542   8.368   2.679
26629WAT     H280130   8.385   8.359   2.720
26630WAT      O80131   0.617   1.584   1.862
26630WAT     H180132   0.690   1.648   1.884
26630WAT     H280133   0.628   1.552   1.767
26631WAT      O80134   2.070   7.349   7.496
26631WAT     H180135   2.042   7.254   7.482
26631WAT     H280136   2.143   7.372   7.431
26632WAT      O80137   8.771   4.576   9.212
26632WAT     H180138   8.716   4.516   9.155
26632WAT     H280139   8.805   4.525   9.291
26633WAT      O80140   3.017   7.927   2.894
26633WAT     H180141   2.983   7.836   2.870
26633WAT     H280142   2.985   7.951   2.986
26634WAT      O80143   1.137   3.028   3.970
26634WAT     H180144   1.210   2.992   4.028
26634WAT     H280145   1.138   2.981   3.882
26635WAT      O80146   5.746   0.647   5.427
26635WAT     H180147   5.669   0.695   5.384
26635WAT     H280148   5.737   0.549   5.412
26636WAT      O80149   1.904   5.729   8.272
26636WAT     H180150   1.908   5.661   8.198
26636WAT     H280151   1.967   5.703   8.345
26637WAT      O80152   7.098   1.190   7.791
26637WAT     H180153   7.129   1.096   7.798
26637WAT     H280154   7.139   1.234   7.711
26638WAT      O80155   1.243   4.080   8.511
26638WAT     H180156   1.253   4.052   8.606
26638WAT     H280157   1.209   4.002   8.457
26639WAT      O80158   3.407   2.934   3.198
26639WAT     H180159   3.344   2.873   3.247
26639WAT     H280160   3.497   2.930   3.240
26640WAT      O80161   9.191   3.314   2.940
26640WAT     H180162   9.149   3.334   3.029
26640WAT     H280163   9.290   3.300   2.952
26641WAT      O80164   8.349   3.132   1.597
26641WAT     H180165   8.405   3.103   1.519
26641WAT     H280166   8.254   3.144   1.567
26642WAT      O80167   4.622   5.050   2.623
26642WAT     H180168   4.553   5.118   2.599
26642WAT     H280169   4.594   5.003   2.707
26643WAT      O80170   3.659   1.223   9.869
26643WAT     H180171   3.715   1.305   9.884
26643WAT     H280172   3.687   1.179   9.784
26644WAT      O80173   6.469   2.362   4.761
26644WAT     H180174   6.491   2.391   4.668
26644WAT     H280175   6.377   2.392   4.784
26645WAT      O80176   3.878   5.005   8.946
26645WAT     H180177   3.933   5.005   8.862
26645WAT     H280178   3.798   4.945   8.932
26646WAT      O80179   0.523   9.041   3.468
26646WAT     H180180   0.457   8.993   3.410
26646WAT     H280181   0.550   9.127   3.424
26647WAT      O80182   0.747   0.946   9.555
26647WAT     H180183   0.799   1.018   9.602
26647WAT     H280184   0.747   0.965   9.457
26648WAT      O80185   3.247   0.063   8.440
26648WAT     H180186   3.189   0.136   8.402
26648WAT     H280187   3.254  -0.011   8.374
26649WAT      O80188   7.465   8.307   1.016
26649WAT     H180189   7.435   8.212   1.027
26649WAT     H280190   7.564   8.309   1.002
26650WAT      O80191   8.459   8.595   9.636
26650WAT     H180192   8.489   8.566   9.727
26650WAT     H280193   8.463   8.695   9.630
26651WAT      O80194   6.370   4.313   8.554
26651WAT     H180195   6.396   4.303   8.458
26651WAT     H280196   6.280   4.271   8.569
26652WAT      O80197   1.140   7.679   6.154
26652WAT     H180198   1.208   7.640   6.215
26652WAT     H280199   1.150   7.779   6.152
26653WAT      O80200   9.130   0.958   8.099
26653WAT     H180201   9.052   0.896   8.103
26653WAT     H280202   9.113   1.037   8.158
26654WAT      O80203   2.892   5.568   4.987
26654WAT     H180204   2.814   5.588   5.045
26654WAT     H280205   2.864   5.573   4.891
26655WAT      O80206   1.563   4.763   9.741
26655WAT     H180207   1.533   4.858   9.728
26655WAT     H280208   1.662   4.757   9.731
26656WAT      O80209   3.493   4.737   7.359
26656WAT     H180210   3.497   4.821   7.307
26656WAT     H280211   3.558   4.671   7.322
26657WAT      O80212   7.939   4.405   1.004
26657WAT     H180213   7.993   4.482   0.971
26657WAT     H280214   7.876   4.374   0.933
26658WAT      O80215   2.678   2.637   7.302
26658WAT     H180216   2.736   2.632   7.383
26658WAT     H280217   2.596   2.692   7.324
26659WAT      O80218   5.991   1.085   1.392
26659WAT     H180219   5.983   1.130   1.303
26659WAT     H280220   6.001   1.154   1.463
26660WAT      O80221   3.750   2.388   6.812
26660WAT     H180222   3.741   2.384   6.712
26660WAT     H280223   3.843   2.417   6.836
26661WAT      O80224   4.879   4.940   6.349
26661WAT     H180225   4.855   4.942   6.446
26661WAT     H280226   4.916   5.029   6.322
26662WAT      O80227   1.919   1.584   2.492
26662WAT     H180228   1.870   1.633   2.565
26662WAT     H280229   2.016   1.605   2.497
26663WAT      O80230   2.294   5.962   3.856
26663WAT     H180231   2.382   5.919   3.835
26663WAT     H280232   2.301   6.061   3.840
26664WAT      O80233   8.575   8.344   8.772
26664WAT     H180234   8.525   8.268   8.813
26664WAT     H280235   8.550   8.353   8.676
26665WAT      O80236   0.961   9.682   2.585
26665WAT     H180237   0.962   9.742   2.505
26665WAT     H280238   0.899   9.719   2.654
26666WAT      O80239   4.761   2.154   6.347
26666WAT     H180240   4.724   2.233   6.299
26666WAT     H280241   4.813   2.185   6.427
26667WAT      O80242   1.465   5.671   8.089
26667WAT     H180243   1.383   5.647   8.036
26667WAT     H280244   1.527   5.593   8.092
26668WAT      O80245   3.621   3.862   1.378
26668WAT     H180246   3.636   3.941   1.437
26668WAT     H280247   3.598   3.894   1.286
26669WAT      O80248   3.431   0.432   7.021
26669WAT     H180249   3.504   0.447   6.955
26669WAT     H280250   3.384   0.346   7.001
26670WAT      O80251   3.704   5.062   7.448
26670WAT     H180252   3.617   5.046   7.401
26670WAT     H280253   3.770   5.098   7.383
26671WAT      O80254   8.104   9.830   0.110
26671WAT     H180255   8.158   9.764   0.163
26671WAT     H280256   8.069   9.901   0.171
26672WAT      O80257   1.713   5.580   7.022
26672WAT     H180258   1.719   5.591   6.923
26672WAT     H280259   1.620   5.554   7.048
26673WAT      O80260   7.904   6.730   3.855
26673WAT     H180261   7.943   6.721   3.947
26673WAT     H280262   7.808   6.757   3.862
26674WAT      O80263   2.192   0.012   9.053
26674WAT     H180264   2.236  -0.063   9.103
26674WAT     H280265   2.160  -0.021   8.964
26675WAT      O80266   8.533   8.975   3.715
26675WAT     H180267   8.521   8.913   3.637
26675WAT     H280268   8.628   8.970   3.746
26676WAT      O80269   5.664   4.224   9.859
26676WAT     H180270   5.744   4.253   9.806
26676WAT     H280271   5.692   4.159   9.930
26677WAT      O80272   0.232   8.853   0.973
26677WAT     H180273   0.290   8.930   0.948
26677WAT     H280274   0.140   8.868   0.937
26678WAT      O80275   2.539   3.859   7.991
26678WAT     H180276   2.483   3.941   8.004
26678WAT     H280277   2.495   3.799   7.925
26679WAT      O80278   9.611   2.867   1.123
26679WAT     H180279   9.521   2.854   1.082
26679WAT     H280280   9.647   2.956   1.096
26680WAT      O80281   9.592   4.880   2.512
26680WAT     H180282   9.675   4.870   2.457
26680WAT     H280283   9.616   4.880   2.609
26681WAT      O80284   1.811   0.985   5.386
26681WAT     H180285   1.895   1.003   5.334
26681WAT     H280286   1.808   1.042   5.467
26682WAT      O80287   5.816   6.337   2.572
26682WAT     H180288   5.816   6.433   2.599
26682WAT     H280289   5.727   6.313   2.533
26683WAT      O80290   8.637   5.589   1.855
26683WAT     H180291   8.583   5.509   1.881
26683WAT     H280292   8.731   5.561   1.834
26684WAT      O80293   2.699   6.532   6.713
26684WAT     H180294   2.706   6.624   6.675
26684WAT     H280295   2.786   6.508   6.758
26685WAT      O80296   5.085   5.743   8.712
26685WAT     H180297   5.095   5.830   8.664
26685WAT     H280298   5.018   5.753   8.785
26686WAT      O80299   4.105   3.836   1.525
26686WAT     H180300   4.059   3.852   1.437
26686WAT     H280301   4.092   3.740   1.552
26687WAT      O80302   2.258   0.116   9.464
26687WAT     H180303   2.355   0.141   9.463
26687WAT     H280304   2.205   0.188   9.509
26688WAT      O80305   9.130   8.917   9.189
26688WAT     H180306   9.116   9.005   9.143
26688WAT     H280307   9.228   8.902   9.201
26689WAT      O80308   1.929   2.695   7.990
26689WAT     H180309   1.833   2.719   7.978
26689WAT     H280310   1.942   2.652   8.080
26690WAT      O80311   1.641   0.497   6.558
26690WAT     H180312   1.702   0.425   6.591
26690WAT     H280313   1.556   0.495   6.612
26691WAT      O80314   0.949   1.732   7.700
26691WAT     H180315   1.015   1.752   7.772
26691WAT     H280316   0.990   1.670   7.633
26692WAT      O80317   9.785   0.408   1.772
26692WAT     H180318   9.730   0.331   1.804
26692WAT     H280319   9.784   0.481   1.841
26693WAT      O80320   0.384   8.558   3.402
26693WAT     H180321   0.346   8.487   3.343
26693WAT     H280322   0.342   8.646   3.381
26694WAT      O80323   8.856   8.622   6.502
26694WAT     H180324   8.784   8.679   6.542
26694WAT     H280325   8.945   8.652   6.537
26695WAT      O80326   2.818   9.011   1.707
26695WAT     H180327   2.850   8.916   1.703
26695WAT     H280328   2.818   9.050   1.615
26696WAT      O80329   4.398   7.239   8.705
26696WAT     H180330   4.306   7.268   8.680
26696WAT     H280331   4.414   7.146   8.672
26697WAT      O80332   6.917   6.816   9.645
26697WAT     H180333   6.834   6.804   9.589
26697WAT     H280334   6.994   6.769   9.601
26698WAT      O80335   1.295   2.794   7.244
26698WAT     H180336   1.330   2.772   7.336
26698WAT     H280337   1.334   2.730   7.178
26699WAT      O80338   7.273   1.375   5.996
26699WAT     H180339   7.279   1.470   5.967
26699WAT     H280340   7.315   1.316   5.927
26700WAT      O80341   1.768   1.349   4.742
26700WAT     H180342   1.737   1.255   4.755
26700WAT     H280343   1.710   1.410   4.795
26701WAT      O80344   6.680   7.887   3.212
26701WAT     H180345   6.772   7.849   3.204
26701WAT     H280346   6.685   7.984   3.232
26702WAT      O80347   1.074   3.393   8.880
26702WAT     H180348   1.080   3.393   8.781
26702WAT     H280349   1.051   3.484   8.913
26703WAT      O80350   6.411   5.661   1.214
26703WAT     H180351   6.354   5.607   1.275
26703WAT     H280352   6.421   5.614   1.127
26704WAT      O80353   4.929   5.932   7.618
26704WAT     H180354   5.000   5.983   7.666
26704WAT     H280355   4.969   5.885   7.539
26705WAT      O80356   6.195   2.085   4.235
26705WAT     H180357   6.241   2.104   4.148
26705WAT     H280358   6.253   2.024   4.290
26706WAT      O80359   5.209   1.563   5.112
26706WAT     H180360   5.268   1.573   5.192
26706WAT     H280361   5.236   1.481   5.061
26707WAT      O80362   5.701   1.875   7.543
26707WAT     H180363   5.615   1.829   7.519
26707WAT     H280364   5.697   1.970   7.513
26708WAT      O80365   3.656   4.600   8.834
26708WAT     H180366   3.673   4.502   8.849
26708WAT     H280367   3.639   4.616   8.737
26709WAT      O80368   3.242   8.096   6.814
26709WAT     H180369   3.300   8.147   6.878
26709WAT     H280370   3.222   8.006   6.853
26710WAT      O80371   1.570   1.659   5.614
26710WAT     H180372   1.479   1.617   5.611
26710WAT     H280373   1.562   1.751   5.651
26711WAT      O80374   9.103   4.464   8.721
26711WAT     H180375   9.151   4.551   8.736
26711WAT     H280376   9.166   4.399   8.678
26712WAT      O80377   7.004   7.368   0.166
26712WAT     H180378   7.036   7.438   0.102
26712WAT     H280379   6.909   7.386   0.191
26713WAT      O80380   7.531   0.769   8.686
26713WAT     H180381   7.527   0.671   8.665
26713WAT     H280382   7.571   0.782   8.776
26714WAT      O80383   9.509   3.210   0.908
26714WAT     H180384   9.583   3.188   0.972
26714WAT     H280385   9.490   3.308   0.911
26715WAT      O80386   9.456   6.331   3.176
26715WAT     H180387   9.387   6.358   3.109
26715WAT     H280388   9.535   6.391   3.168
26716WAT      O80389   9.031   8.361   4.326
26716WAT     H180390   9.072   8.355   4.235
26716WAT     H280391   8.996   8.272   4.353
26717WAT      O80392   2.093   1.865   9.538
26717WAT     H180393   2.178   1.895   9.582
26717WAT     H280394   2.095   1.766   9.525
26718WAT      O80395   7.468   1.795   1.533
26718WAT     H180396   7.427   1.871   1.583
26718WAT     H280397   7.397   1.736   1.495
26719WAT      O80398   9.374   8.398   9.544
26719WAT     H180399   9.407   8.341   9.469
26719WAT     H280400   9.407   8.491   9.532
26720WAT      O80401   2.363   2.272   9.371
26720WAT     H180402   2.313   2.345   9.417
26720WAT     H280403   2.305   2.230   9.301
26721WAT      O80404   2.585   4.411   4.182
26721WAT     H180405   2.536   4.482   4.233
26721WAT     H280406   2.530   4.327   4.182
26722WAT      O80407   9.875   1.998   5.006
26722WAT     H180408   9.893   2.090   4.971
26722WAT     H280409   9.777   1.986   5.023
26723WAT      O80410   3.557   7.392   4.289
26723WAT     H180411   3.489   7.462   4.270
26723WAT     H280412   3.541   7.354   4.380
26724WAT      O80413   0.477   0.027   3.328
26724WAT     H180414   0.556   0.021   3.389
26724WAT     H280415   0.503  -0.008   3.238
26725WAT      O80416   9.346   0.368   3.318
26725WAT     H180417   9.276   0.437   3.297
26725WAT     H280418   9.410   0.405   3.385
26726WAT      O80419   3.292   4.229   7.870
26726WAT     H180420   3.239   4.216   7.786
26726WAT     H280421   3.387   4.249   7.846
26727WAT      O80422   9.504   3.284   6.227
26727WAT     H180423   9.562   3.359   6.258
26727WAT     H280424   9.456   3.244   6.305
26728WAT      O80425   9.672   0.537   0.393
26728WAT     H180426   9.631   0.620   0.431
26728WAT     H280427   9.742   0.563   0.326
26729WAT      O80428   7.551   7.652   9.696
26729WAT     H180429   7.598   7.620   9.613
26729WAT     H280430   7.507   7.574   9.741
26730WAT      O80431   9.740   2.348   0.983
26730WAT     H180432   9.724   2.441   1.017
26730WAT     H280433   9.743   2.350   0.883
26731WAT      O80434   8.062   8.419   1.508
26731WAT     H180435   8.130   8.421   1.434
26731WAT     H280436   8.022   8.327   1.513
26732WAT      O80437   6.751   8.759   0.970
26732WAT     H180438   6.668   8.814   0.979
26732WAT     H280439   6.771   8.746   0.873
26733WAT      O80440   5.799   3.623   3.441
26733WAT     H180441   5.884   3.616   3.494
26733WAT     H280442   5.783   3.537   3.393
26734WAT      O80443   3.872   6.215   2.607
26734WAT     H180444   3.955   6.195   2.556
26734WAT     H280445   3.896   6.246   2.699
26735WAT      O80446   0.771   1.842   0.830
26735WAT     H180447   0.747   1.934   0.798
26735WAT     H280448   0.750   1.834   0.928
26736WAT      O80449   7.947   9.145   6.080
26736WAT     H180450   7.856   9.124   6.117
26736WAT     H280451   7.973   9.237   6.108
26737WAT      O80452   3.744   6.078   8.326
26737WAT     H180453   3.794   6.018   8.263
26737WAT     H280454   3.660   6.033   8.356
26738WAT      O80455   1.707   9.010   2.779
26738WAT     H180456   1.774   8.943   2.812
26738WAT     H280457   1.755   9.082   2.728
26739WAT      O80458   3.756   4.357   7.662
26739WAT     H180459   3.815   4.370   7.582
26739WAT     H280460   3.766   4.435   7.724
26740WAT      O80461   7.935   6.838   9.243
26740WAT     H180462   8.006   6.806   9.305
26740WAT     H280463   7.858   6.773   9.243
26741WAT      O80464   1.129   3.555   1.352
26741WAT     H180465   1.185   3.631   1.317
26741WAT     H280466   1.034   3.569   1.325
26742WAT      O80467   8.934   9.196   5.148
26742WAT     H180468   8.937   9.266   5.076
26742WAT     H280469   9.021   9.196   5.198
26743WAT      O80470   2.328   5.725   9.023
26743WAT     H180471   2.228   5.722   9.016
26743WAT     H280472   2.356   5.695   9.114
26744WAT      O80473   5.016   3.307   8.993
26744WAT     H180474   5.079   3.257   8.933
26744WAT     H280475   4.991   3.249   9.071
26745WAT      O80476   0.153   6.724   4.590
26745WAT     H180477   0.200   6.798   4.542
26745WAT     H280478   0.076   6.762   4.642
26746WAT      O80479   8.063   1.692   5.946
26746WAT     H180480   7.989   1.731   6.001
26746WAT     H280481   8.074   1.745   5.862
26747WAT      O80482   1.874   2.447   8.941
26747WAT     H180483   1.962   2.458   8.894
26747WAT     H280484   1.820   2.530   8.930
26748WAT      O80485   0.655   1.946   0.402
26748WAT     H180486   0.658   2.036   0.446
26748WAT     H280487   0.702   1.879   0.460
26749WAT      O80488   4.441   5.746   2.866
26749WAT     H180489   4.445   5.844   2.888
26749WAT     H280490   4.521   5.700   2.904
26750WAT      O80491   8.954   7.489   9.862
26750WAT     H180492   8.915   7.576   9.890
26750WAT     H280493   9.044   7.504   9.821
26751WAT      O80494   2.007   7.506   6.800
26751WAT     H180495   2.016   7.563   6.882
26751WAT     H280496   1.937   7.436   6.816
26752WAT      O80497   1.336   0.766   4.264
26752WAT     H180498   1.423   0.737   4.225
26752WAT     H280499   1.292   0.833   4.203
26753WAT      O80500   3.081   6.570   5.080
26753WAT     H180501   3.141   6.507   5.129
26753WAT     H280502   3.048   6.640   5.144
26754WAT      O80503   2.030   0.844   1.381
26754WAT     H180504   2.102   0.813   1.319
26754WAT     H280505   2.069   0.909   1.446
26755WAT      O80506   2.311   6.787   8.048
26755WAT     H180507   2.331   6.792   8.146
26755WAT     H280508   2.239   6.719   8.032
26756WAT      O80509   8.837   9.046   2.963
26756WAT     H180510   8.883   9.066   2.877
26756WAT     H280511   8.827   9.130   3.017
26757WAT      O80512   8.817   8.348   3.996
26757WAT     H180513   8.895   8.368   3.936
26757WAT     H280514   8.821   8.253   4.025
26758WAT      O80515   8.885   3.355   5.498
26758WAT     H180516   8.902   3.299   5.417
26758WAT     H280517   8.816   3.424   5.476
26759WAT      O80518   2.614   6.824   4.485
26759WAT     H180519   2.621   6.736   4.531
26759WAT     H280520   2.639   6.814   4.388
26760WAT      O80521   9.407   3.959   4.618
26760WAT     H180522   9.501   3.973   4.650
26760WAT     H280523   9.369   4.046   4.586
26761WAT      O80524   0.144   5.419   6.543
26761WAT     H180525   0.180   5.491   6.602
26761WAT     H280526   0.217   5.387   6.482
26762WAT      O80527   6.163   3.242   1.512
26762WAT     H180528   6.141   3.156   1.558
26762WAT     H280529   6.114   3.317   1.556
26763WAT      O80530   4.245   7.357   9.517
26763WAT     H180531   4.225   7.359   9.419
26763WAT     H280532   4.328   7.410   9.535
26764WAT      O80533   8.234   7.749   0.482
26764WAT     H180534   8.258   7.662   0.438
26764WAT     H280535   8.317   7.804   0.493
26765WAT      O80536   8.391   2.794   8.931
26765WAT     H180537   8.370   2.862   8.862
26765WAT     H280538   8.406   2.705   8.888
26766WAT      O80539   7.255   5.187   0.988
26766WAT     H180540   7.347   5.150   0.984
26766WAT     H280541   7.218   5.198   0.896
26767WAT      O80542   8.393   7.334   5.499
26767WAT     H180543   8.359   7.428   5.496
26767WAT     H280544   8.354   7.281   5.424
26768WAT      O80545   7.334   5.752   0.555
26768WAT     H180546   7.245   5.763   0.511
26768WAT     H280547   7.331   5.792   0.646
26769WAT      O80548   5.707   0.827   1.075
26769WAT     H180549   5.714   0.917   1.117
26769WAT     H280550   5.615   0.791   1.086
26770WAT      O80551   8.663   8.321   9.577
26770WAT     H180552   8.626   8.228   9.579
26770WAT     H280553   8.653   8.362   9.668
26771WAT      O80554   9.770   7.948   0.791
26771WAT     H180555   9.803   7.856   0.768
26771WAT     H280556   9.673   7.943   0.815
26772WAT      O80557   5.637   3.581   4.425
26772WAT     H180558   5.625   3.675   4.396
26772WAT     H280559   5.643   3.577   4.524
26773WAT      O80560   7.012   6.093   5.739
26773WAT     H180561   6.951   6.046   5.803
26773WAT     H280562   7.092   6.036   5.722
26774WAT      O80563   9.249   1.987   8.580
26774WAT     H180564   9.183   1.971   8.507
26774WAT     H280565   9.277   2.083   8.579
26775WAT      O80566   1.397   3.670   4.585
26775WAT     H180567   1.486   3.704   4.614
26775WAT     H280568   1.397   3.570   4.587
26776WAT      O80569   8.146   7.980   4.943
26776WAT     H180570   8.183   7.912   4.880
26776WAT     H280571   8.135   7.938   5.033
26777WAT      O80572   9.863   2.109   5.935
26777WAT     H180573   9.957   2.117   5.903
26777WAT     H280574   9.863   2.087   6.033
26778WAT      O80575   8.470   3.919   0.824
26778WAT     H180576   8.476   3.822   0.850
26778WAT     H280577   8.380   3.954   0.848
26779WAT      O80578   7.703   4.941   7.463
26779WAT     H180579   7.733   4.881   7.538
26779WAT     H280580   7.685   5.033   7.499
26780WAT      O80581   3.393   0.815   7.475
26780WAT     H180582   3.401   0.890   7.541
26780WAT     H280583   3.300   0.813   7.438
26781WAT      O80584   5.739   7.000   2.874
26781WAT     H180585   5.831   7.038   2.859
26781WAT     H280586   5.693   7.053   2.945
26782WAT      O80587   8.379   1.012   6.392
26782WAT     H180588   8.310   1.026   6.321
26782WAT     H280589   8.459   0.967   6.351
26783WAT      O80590   2.807   2.002   7.930
26783WAT     H180591   2.817   2.097   7.958
26783WAT     H280592   2.801   1.996   7.831
26784WAT      O80593   6.674   0.767   4.607
26784WAT     H180594   6.699   0.853   4.564
26784WAT     H280595   6.654   0.782   4.704
26785WAT      O80596   2.773   8.295   8.168
26785WAT     H180597   2.730   8.210   8.136
26785WAT     H280598   2.769   8.299   8.268
26786WAT      O80599   8.483   0.830   0.317
26786WAT     H180600   8.435   0.869   0.238
26786WAT     H280601   8.496   0.732   0.303
26787WAT      O80602   1.265   0.285   7.020
26787WAT     H180603   1.233   0.343   6.945
26787WAT     H280604   1.187   0.245   7.067
26788WAT      O80605   5.267   6.169   7.090
26788WAT     H180606   5.190   6.221   7.128
26788WAT     H280607   5.302   6.106   7.159
26789WAT      O80608   4.490   4.550   1.530
26789WAT     H180609   4.456   4.501   1.450
26789WAT     H280610   4.565   4.499   1.572
26790WAT      O80611   3.888   8.456   8.430
26790WAT     H180612   3.854   8.372   8.472
26790WAT     H280613   3.839   8.534   8.468
26791WAT      O80614   4.367   5.049   4.863
26791WAT     H180615   4.341   5.129   4.808
26791WAT     H280616   4.338   5.064   4.958
26792WAT      O80617   6.890   8.797   3.751
26792WAT     H180618   6.826   8.720   3.755
26792WAT     H280619   6.878   8.855   3.832
26793WAT      O80620   6.440   5.268   7.657
26793WAT     H180621   6.488   5.319   7.728
26793WAT     H280622   6.423   5.174   7.689
26794WAT      O80623   9.683   7.627   4.439
26794WAT     H180624   9.697   7.655   4.534
26794WAT     H280625   9.594   7.582   4.430
26795WAT      O80626   8.540   7.867   0.435
26795WAT     H180627   8.559   7.809   0.356
26795WAT     H280628   8.620   7.922   0.456
26796WAT      O80629   8.383   1.789   5.322
26796WAT     H180630   8.429   1.878   5.326
26796WAT     H280631   8.433   1.724   5.378
26797WAT      O80632   1.779   1.106   7.605
26797WAT     H180633   1.838   1.184   7.626
26797WAT     H280634   1.691   1.117   7.652
26798WAT      O80635   4.789   2.921   0.175
26798WAT     H180636   4.882   2.910   0.140
26798WAT     H280637   4.774   2.861   0.253
26799WAT      O80638   9.511   7.127   4.938
26799WAT     H180639   9.554   7.075   5.011
26799WAT     H280640   9.496   7.067   4.859
26800WAT      O80641   0.493   2.678   4.938
26800WAT     H180642   0.578   2.691   4.990
26800WAT     H280643   0.503   2.598   4.878
26801WAT      O80644   4.007   3.062   5.307
26801WAT     H180645   3.985   2.988   5.370
26801WAT     H280646   3.965   3.147   5.339
26802WAT      O80647   2.112   1.082   0.604
26802WAT     H180648   2.022   1.092   0.647
26802WAT     H280649   2.182   1.068   0.675
26803WAT      O80650   7.468   1.622   4.144
26803WAT     H180651   7.533   1.678   4.196
26803WAT     H280652   7.375   1.650   4.167
26804WAT      O80653   0.537   9.769   1.071
26804WAT     H180654   0.444   9.796   1.046
26804WAT     H280655   0.560   9.684   1.025
26805WAT      O80656   8.886   6.861   6.128
26805WAT     H180657   8.953   6.934   6.114
26805WAT     H280658   8.916   6.779   6.079
26806WAT      O80659   0.915   9.588   6.512
26806WAT     H180660   0.926   9.627   6.420
26806WAT     H280661   0.822   9.554   6.523
26807WAT      O80662   6.777   6.330   9.336
26807WAT     H180663   6.677   6.325   9.346
26807WAT     H280664   6.808   6.422   9.357
26808WAT      O80665   2.579   7.093   7.985
26808WAT     H180666   2.611   7.182   7.953
26808WAT     H280667   2.482   7.083   7.963
26809WAT      O80668   4.261   8.584   5.947
26809WAT     H180669   4.162   8.592   5.941
26809WAT     H280670   4.302   8.611   5.859
26810WAT      O80671   5.029   3.794   4.996
26810WAT     H180672   4.977   3.713   4.969
26810WAT     H280673   5.118   3.794   4.950
26811WAT      O80674   5.474   4.833   8.983
26811WAT     H180675   5.485   4.898   9.058
26811WAT     H280676   5.537   4.857   8.909
26812WAT      O80677   7.451   3.291   2.284
26812WAT     H180678   7.442   3.259   2.378
26812WAT     H280679   7.547   3.314   2.265
26813WAT      O80680   2.364   0.181   8.880
26813WAT     H180681   2.311   0.229   8.810
26813WAT     H280682   2.302   0.147   8.951
26814WAT      O80683   3.099   7.955   3.809
26814WAT     H180684   3.100   8.012   3.728
26814WAT     H280685   3.014   7.903   3.812
26815WAT      O80686   3.782   3.146   8.137
26815WAT     H180687   3.731   3.231   8.151
26815WAT     H280688   3.863   3.145   8.196
26816WAT      O80689   7.867   2.284   0.226
26816WAT     H180690   7.814   2.261   0.144
26816WAT     H280691   7.965   2.275   0.206
26817WAT      O80692   7.799   6.217   2.809
26817WAT     H180693   7.809   6.176   2.900
26817WAT     H280694   7.819   6.148   2.740
26818WAT      O80695   1.983   9.082   6.687
26818WAT     H180696   2.078   9.054   6.681
26818WAT     H280697   1.979   9.179   6.715
26819WAT      O80698   4.282   2.094   8.940
26819WAT     H180699   4.274   2.029   8.864
26819WAT     H280700   4.237   2.180   8.915
26820WAT      O80701   0.572   6.013   3.125
26820WAT     H180702   0.541   6.104   3.154
26820WAT     H280703   0.506   5.944   3.157
26821WAT      O80704   8.818   9.555   2.799
26821WAT     H180705   8.779   9.473   2.841
26821WAT     H280706   8.917   9.553   2.808
26822WAT      O80707   4.273   5.635   3.708
26822WAT     H180708   4.360   5.673   3.675
26822WAT     H280709   4.282   5.536   3.719
26823WAT      O80710   6.171   0.862   7.382
26823WAT     H180711   6.112   0.942   7.373
26823WAT     H280712   6.247   0.883   7.443
26824WAT      O80713   3.420   6.419   9.295
26824WAT     H180714   3.352   6.350   9.272
26824WAT     H280715   3.509   6.393   9.257
26825WAT      O80716   8.651   6.580   3.567
26825WAT     H180717   8.739   6.544   3.537
26825WAT     H280718   8.605   6.624   3.490
26826WAT      O80719   3.484   2.663   9.105
26826WAT     H180720   3.524   2.577   9.138
26826WAT     H280721   3.391   2.672   9.140
26827WAT      O80722   0.986   6.003   8.471
26827WAT     H180723   1.017   5.985   8.378
26827WAT     H280724   1.040   6.078   8.510
26828WAT      O80725   8.623   2.474   4.677
26828WAT     H180726   8.718   2.463   4.648
26828WAT     H280727   8.593   2.392   4.725
26829WAT      O80728   3.949   0.873   2.202
26829WAT     H180729   3.937   0.970   2.182
26829WAT     H280730   3.998   0.863   2.288
26830WAT      O80731   2.266   2.723   8.769
26830WAT     H180732   2.335   2.720   8.697
26830WAT     H280733   2.304   2.768   8.849
26831WAT      O80734   3.458   8.902   8.028
26831WAT     H180735   3.513   8.855   8.097
26831WAT     H280736   3.500   8.991   8.007
26832WAT      O80737   7.070   4.976   8.417
26832WAT     H180738   7.142   5.044   8.406
26832WAT     H280739   7.062   4.951   8.514
26833WAT      O80740   9.607   8.727   1.396
26833WAT     H180741   9.695   8.764   1.424
26833WAT     H280742   9.621   8.643   1.344
26834WAT      O80743   7.116   8.411   1.329
26834WAT     H180744   7.209   8.424   1.294
26834WAT     H280745   7.050   8.440   1.259
26835WAT      O80746   1.093   0.668   1.734
26835WAT     H180747   1.113   0.618   1.818
26835WAT     H280748   1.088   0.766   1.753
26836WAT      O80749   5.290   8.806   2.360
26836WAT     H180750   5.258   8.840   2.272
26836WAT     H280751   5.253   8.715   2.377
26837WAT      O80752   5.998   2.532   6.283
26837WAT     H180753   5.937   2.531   6.204
26837WAT     H280754   6.014   2.627   6.311
26838WAT      O80755   0.323   4.284   6.916
26838WAT     H180756   0.398   4.242   6.864
26838WAT     H280757   0.355   4.369   6.957
26839WAT      O80758   5.356   6.608   3.103
26839WAT     H180759   5.294   6.543   3.058
26839WAT     H280760   5.446   6.603   3.060
26840WAT      O80761   4.354   1.608   0.122
26840WAT     H180762   4.388   1.552   0.046
26840WAT     H280763   4.368   1.705   0.101
26841WAT      O80764   0.395   5.952   0.362
26841WAT     H180765   0.387   5.862   0.404
26841WAT     H280766   0.331   5.959   0.286
26842WAT      O80767   1.805   4.325   9.828
26842WAT     H180768   1.761   4.264   9.762
26842WAT     H280769   1.734   4.366   9.887
26843WAT      O80770   3.555   8.230   0.786
26843WAT     H180771   3.455   8.236   0.783
26843WAT     H280772   3.587   8.171   0.713
26844WAT      O80773   2.561   7.026   5.483
26844WAT     H180774   2.649   7.073   5.491
26844WAT     H280775   2.569   6.934   5.524
26845WAT      O80776   7.122   1.296   0.307
26845WAT     H180777   7.110   1.395   0.315
26845WAT     H280778   7.038   1.249   0.337
26846WAT      O80779   1.882   3.203   0.643
26846WAT     H180780   1.912   3.120   0.690
26846WAT     H280781   1.837   3.263   0.709
26847WAT      O80782   2.766   6.732   4.855
26847WAT     H180783   2.860   6.700   4.864
26847WAT     H280784   2.717   6.714   4.941
26848WAT      O80785   8.146   6.865   4.869
26848WAT     H180786   8.097   6.885   4.953
26848WAT     H280787   8.196   6.778   4.879
26849WAT      O80788   5.646   1.704   0.942
26849WAT     H180789   5.626   1.739   0.851
26849WAT     H280790   5.616   1.770   1.011
26850WAT      O80791   0.676   8.777   5.246
26850WAT     H180792   0.676   8.876   5.232
26850WAT     H280793   0.771   8.746   5.258
26851WAT      O80794   7.354   4.514   9.173
26851WAT     H180795   7.256   4.497   9.167
26851WAT     H280796   7.403   4.427   9.166
26852WAT      O80797   5.171   5.941   4.337
26852WAT     H180798   5.121   5.925   4.252
26852WAT     H280799   5.256   5.887   4.336
26853WAT      O80800   4.884   0.824   5.621
26853WAT     H180801   4.940   0.838   5.702
26853WAT     H280802   4.829   0.741   5.632
26854WAT      O80803   9.575   4.193   5.390
26854WAT     H180804   9.566   4.126   5.316
26854WAT     H280805   9.605   4.280   5.352
26855WAT      O80806   4.362   0.612   1.098
26855WAT     H180807   4.299   0.575   1.166
26855WAT     H280808   4.310   0.660   1.027
26856WAT      O80809   1.649   7.507   7.153
26856WAT     H180810   1.629   7.528   7.249
26856WAT     H280811   1.741   7.538   7.131
26857WAT      O80812   2.834   4.711   3.504
26857WAT     H180813   2.901   4.652   3.459
26857WAT     H280814   2.855   4.807   3.485
26858WAT      O80815   4.026   4.377   9.854
26858WAT     H180816   3.927   4.381   9.844
26858WAT     H280817   4.069   4.397   9.766
26859WAT      O80818   9.450   4.643   2.367
26859WAT     H180819   9.498   4.710   2.424
26859WAT     H280820   9.511   4.568   2.344
26860WAT      O80821   4.415   1.376   4.002
26860WAT     H180822   4.494   1.389   3.942
26860WAT     H280823   4.427   1.430   4.085
26861WAT      O80824   9.283   4.965   3.265
26861WAT     H180825   9.295   4.874   3.305
26861WAT     H280826   9.205   4.963   3.202
26862WAT      O80827   5.499   1.291   2.279
26862WAT     H180828   5.440   1.317   2.202
26862WAT     H280829   5.467   1.336   2.362
26863WAT      O80830   7.507   2.652   9.555
26863WAT     H180831   7.549   2.718   9.493
26863WAT     H280832   7.454   2.586   9.502
26864WAT      O80833   2.319   6.350   2.656
26864WAT     H180834   2.360   6.436   2.628
26864WAT     H280835   2.278   6.304   2.577
26865WAT      O80836   7.580   2.307   6.308
26865WAT     H180837   7.567   2.208   6.307
26865WAT     H280838   7.518   2.350   6.241
26866WAT      O80839   3.934   2.415   8.501
26866WAT     H180840   3.839   2.384   8.494
26866WAT     H280841   3.990   2.344   8.544
26867WAT      O80842   1.581   1.618   6.633
26867WAT     H180843   1.633   1.668   6.564
26867WAT     H280844   1.542   1.536   6.592
26868WAT      O80845   2.265   4.623   0.210
26868WAT     H180846   2.211   4.598   0.292
26868WAT     H280847   2.301   4.715   0.221
26869WAT      O80848   4.159   8.094   9.717
26869WAT     H180849   4.077   8.148   9.733
26869WAT     H280850   4.139   7.997   9.736
26870WAT      O80851   2.613   9.791   2.138
26870WAT     H180852   2.708   9.767   2.157
26870WAT     H280853   2.584   9.750   2.052
26871WAT      O80854   3.195   9.392   2.552
26871WAT     H180855   3.184   9.489   2.531
26871WAT     H280856   3.274   9.356   2.502
26872WAT      O80857   4.679   1.641   7.625
26872WAT     H180858   4.657   1.737   7.603
26872WAT     H280859   4.595   1.594   7.652
26873WAT      O80860   3.521   5.567   4.764
26873WAT     H180861   3.605   5.611   4.730
26873WAT     H280862   3.453   5.637   4.785
26874WAT      O80863   2.569   3.357   5.871
26874WAT     H180864   2.619   3.355   5.957
26874WAT     H280865   2.516   3.273   5.861
26875WAT      O80866   4.286   0.884   1.816
26875WAT     H180867   4.250   0.807   1.870
26875WAT     H280868   4.316   0.956   1.878
26876WAT      O80869   1.754   2.694   0.639
26876WAT     H180870   1.739   2.791   0.653
26876WAT     H280871   1.675   2.642   0.672
26877WAT      O80872   6.093   3.651   9.067
26877WAT     H180873   6.059   3.735   9.109
26877WAT     H280874   6.080   3.656   8.968
26878WAT      O80875   8.328   2.775   1.205
26878WAT     H180876   8.362   2.688   1.240
26878WAT     H280877   8.270   2.819   1.274
26879WAT      O80878   1.948   6.920   8.117
26879WAT     H180879   1.973   6.996   8.058
26879WAT     H280880   1.999   6.925   8.203
26880WAT      O80881   7.200   9.751   5.671
26880WAT     H180882   7.163   9.683   5.734
26880WAT     H280883   7.144   9.754   5.588
26881WAT      O80884   9.526   0.141   0.707
26881WAT     H180885   9.441   0.096   0.679
26881WAT     H280886   9.525   0.237   0.677
26882WAT      O80887   8.812   7.764   4.456
26882WAT     H180888   8.776   7.678   4.493
26882WAT     H280889   8.909   7.754   4.437
26883WAT      O80890   0.724   2.779   5.680
26883WAT     H180891   0.807   2.819   5.640
26883WAT     H280892   0.644   2.825   5.643
26884WAT      O80893   5.136   9.640   7.185
26884WAT     H180894   5.153   9.737   7.201
26884WAT     H280895   5.222   9.593   7.166
26885WAT      O80896   9.808   2.041   4.598
26885WAT     H180897   9.879   2.005   4.538
26885WAT     H280898   9.722   1.995   4.580
26886WAT      O80899   0.649   5.441   3.714
26886WAT     H180900   0.684   5.473   3.626
26886WAT     H280901   0.569   5.495   3.740
26887WAT      O80902   8.305   6.899   8.117
26887WAT     H180903   8.255   6.827   8.071
26887WAT     H280904   8.267   6.988   8.092
26888WAT      O80905   1.935   6.643   7.548
26888WAT     H180906   1.895   6.552   7.540
26888WAT     H280907   2.035   6.635   7.549
26889WAT      O80908   2.418   1.888   6.417
26889WAT     H180909   2.402   1.931   6.506
26889WAT     H280910   2.374   1.799   6.415
26890WAT      O80911   7.513   4.045   1.711
26890WAT     H180912   7.540   4.007   1.623
26890WAT     H280913   7.561   3.998   1.785
26891WAT      O80914   1.919   7.327   3.670
26891WAT     H180915   1.859   7.325   3.590
26891WAT     H280916   1.906   7.244   3.724
26892WAT      O80917   7.330   8.818   0.163
26892WAT     H180918   7.307   8.872   0.245
26892WAT     H280919   7.429   8.804   0.160
26893WAT      O80920   3.861   6.948   7.920
26893WAT     H180921   3.958   6.925   7.913
26893WAT     H280922   3.808   6.864   7.935
26894WAT      O80923   1.080   1.610   9.763
26894WAT     H180924   1.136   1.654   9.693
26894WAT     H280925   1.064   1.674   9.838
26895WAT      O80926   4.975   3.360   4.128
26895WAT     H180927   5.041   3.306   4.181
26895WAT     H280928   4.902   3.393   4.188
26896WAT      O80929   9.748   4.015   6.864
26896WAT     H180930   9.838   4.053   6.886
26896WAT     H280931   9.759   3.943   6.796
26897WAT      O80932   4.371   4.729   8.367
26897WAT     H180933   4.462   4.758   8.398
26897WAT     H280934   4.378   4.694   8.273
26898WAT      O80935   5.102   7.852   6.676
26898WAT     H180936   5.149   7.780   6.624
26898WAT     H280937   5.169   7.905   6.727
26899WAT      O80938   9.317   2.425   3.592
26899WAT     H180939   9.255   2.491   3.636
26899WAT     H280940   9.290   2.412   3.497
26900WAT      O80941   0.849   6.954   5.673
26900WAT     H180942   0.805   6.943   5.584
26900WAT     H280943   0.786   6.926   5.745
26901WAT      O80944   0.216   9.174   4.034
26901WAT     H180945   0.147   9.188   4.104
26901WAT     H280946   0.179   9.117   3.961
26902WAT      O80947   6.683   7.055   0.033
26902WAT     H180948   6.774   7.030   0.066
26902WAT     H280949   6.654   7.141   0.074
26903WAT      O80950   6.433   0.216   2.190
26903WAT     H180951   6.421   0.158   2.110
26903WAT     H280952   6.440   0.311   2.161
26904WAT      O80953   9.255   1.097   4.191
26904WAT     H180954   9.167   1.068   4.228
26904WAT     H280955   9.279   1.187   4.226
26905WAT      O80956   8.195   5.186   7.400
26905WAT     H180957   8.145   5.196   7.315
26905WAT     H280958   8.194   5.090   7.428
26906WAT      O80959   9.765   8.610   5.213
26906WAT     H180960   9.763   8.706   5.241
26906WAT     H280961   9.720   8.554   5.283
26907WAT      O80962   6.342   9.337   6.480
26907WAT     H180963   6.378   9.281   6.555
26907WAT     H280964   6.414   9.349   6.411
26908WAT      O80965   9.603   7.993   9.211
26908WAT     H180966   9.699   8.006   9.234
26908WAT     H280967   9.596   7.946   9.123
26909WAT      O80968   8.323   6.650   5.791
26909WAT     H180969   8.396   6.701   5.746
26909WAT     H280970   8.354   6.556   5.807
26910WAT      O80971   5.960   4.699   9.613
26910WAT     H180972   5.867   4.687   9.578
26910WAT     H280973   5.974   4.795   9.637
26911WAT      O80974   0.200   8.015   1.775
26911WAT     H180975   0.196   8.053   1.868
26911WAT     H280976   0.294   8.023   1.740
26912WAT      O80977   1.594   8.199   0.396
26912WAT     H180978   1.668   8.202   0.463
26912WAT     H280979   1.625   8.149   0.315
26913WAT      O80980   7.349   8.897   7.344
26913WAT     H180981   7.270   8.836   7.338
26913WAT     H280982   7.375   8.928   7.253
26914WAT      O80983   6.366   4.872   6.970
26914WAT     H180984   6.344   4.790   7.023
26914WAT     H280985   6.298   4.884   6.898
26915WAT      O80986   7.297   7.012   9.788
26915WAT     H180987   7.197   7.015   9.783
26915WAT     H280988   7.334   7.104   9.785
26916WAT      O80989   7.281   3.780   8.896
26916WAT     H180990   7.200   3.795   8.954
26916WAT     H280991   7.363   3.809   8.945
26917WAT      O80992   1.715   7.106   1.339
26917WAT     H180993   1.756   7.177   1.396
26917WAT     H280994   1.671   7.038   1.398
26918WAT      O80995   2.670   5.127   3.505
26918WAT     H180996   2.583   5.086   3.478
26918WAT     H280997   2.651   5.210   3.558
26919WAT      O80998   9.840   0.849   8.162
26919WAT     H180999   9.853   0.765   8.214
26919WAT     H281000   9.863   0.928   8.220
26920WAT      O81001   5.939   3.687   3.099
26920WAT     H181002   5.965   3.773   3.142
26920WAT     H281003   5.840   3.688   3.081
26921WAT      O81004   1.939   6.660   3.102
26921WAT     H181005   1.898   6.648   3.193
26921WAT     H281006   1.905   6.744   3.061
26922WAT      O81007   7.601   2.514   6.837
26922WAT     H181008   7.660   2.479   6.765
26922WAT     H281009   7.590   2.613   6.826
26923WAT      O81010   6.644   1.674   4.927
26923WAT     H181011   6.606   1.726   4.851
26923WAT     H281012   6.668   1.735   5.002
26924WAT      O81013   9.556   1.915   4.555
26924WAT     H181014   9.485   1.899   4.624
26924WAT     H281015   9.561   1.836   4.494
26925WAT      O81016   3.246   4.718   5.824
26925WAT     H181017   3.273   4.648   5.889
26925WAT     H281018   3.187   4.678   5.754
26926WAT      O81019   5.147   4.356   8.161
26926WAT     H181020   5.093   4.410   8.097
26926WAT     H281021   5.158   4.405   8.247
26927WAT      O81022   4.654   8.263   1.886
26927WAT     H181023   4.585   8.293   1.821
26927WAT     H281024   4.714   8.196   1.843
26928WAT      O81025   8.614   2.873   7.881
26928WAT     H181026   8.542   2.863   7.950
26928WAT     H281027   8.673   2.792   7.882
26929WAT      O81028   4.787   1.566   3.520
26929WAT     H181029   4.796   1.467   3.532
26929WAT     H281030   4.875   1.610   3.535
26930WAT      O81031   6.464   6.154   7.478
26930WAT     H181032   6.447   6.119   7.570
26930WAT     H281033   6.455   6.254   7.479
26931WAT      O81034   9.750   1.437   1.550
26931WAT     H181035   9.734   1.510   1.483
26931WAT     H281036   9.830   1.383   1.523
26932WAT      O81037   4.094   7.426   7.723
26932WAT     H181038   4.021   7.417   7.791
26932WAT     H281039   4.063   7.485   7.649
26933WAT      O81040   9.219   8.796   4.456
26933WAT     H181041   9.119   8.790   4.461
26933WAT     H281042   9.249   8.781   4.362
26934WAT      O81043   1.741   3.864   3.044
26934WAT     H181044   1.765   3.895   2.952
26934WAT     H281045   1.752   3.939   3.108
26935WAT      O81046   7.691   6.349   4.449
26935WAT     H181047   7.634   6.327   4.370
26935WAT     H281048   7.668   6.440   4.483
26936WAT      O81049   4.297   6.912   4.141
26936WAT     H181050   4.322   6.845   4.071
26936WAT     H281051   4.348   6.892   4.225
26937WAT      O81052   1.377   1.788   6.423
26937WAT     H181053   1.325   1.850   6.364
26937WAT     H281054   1.435   1.729   6.367
26938WAT      O81055   7.029   5.649   1.656
26938WAT     H181056   7.044   5.748   1.648
26938WAT     H281057   7.094   5.611   1.722
26939WAT      O81058   7.485   7.510   4.596
26939WAT     H181059   7.492   7.421   4.550
26939WAT     H281060   7.511   7.583   4.533
26940WAT      O81061   8.258   3.247   2.903
26940WAT     H181062   8.162   3.222   2.892
26940WAT     H281063   8.314   3.192   2.841
26941WAT      O81064   1.357   7.786   1.861
26941WAT     H181065   1.408   7.708   1.898
26941WAT     H281066   1.262   7.760   1.845
26942WAT      O81067   6.635   1.737   2.191
26942WAT     H181068   6.612   1.649   2.232
26942WAT     H281069   6.652   1.804   2.264
26943WAT      O81070   1.504   9.366   3.933
26943WAT     H181071   1.445   9.413   3.867
26943WAT     H281072   1.459   9.363   4.022
26944WAT      O81073   4.270   8.831   5.045
26944WAT     H181074   4.332   8.788   5.111
26944WAT     H281075   4.184   8.853   5.091
26945WAT      O81076   6.037   7.477   6.482
26945WAT     H181077   6.048   7.521   6.571
26945WAT     H281078   6.122   7.430   6.458
26946WAT      O81079   6.337   3.540   8.208
26946WAT     H181080   6.239   3.519   8.203
26946WAT     H281081   6.349   3.637   8.230
26947WAT      O81082   2.571   1.330   5.038
26947WAT     H181083   2.540   1.343   5.132
26947WAT     H281084   2.536   1.405   4.981
26948WAT      O81085   7.479   0.648   9.490
26948WAT     H181086   7.428   0.564   9.470
26948WAT     H281087   7.439   0.724   9.439
26949WAT      O81088   8.389   2.929   2.508
26949WAT     H181089   8.303   2.878   2.515
26949WAT     H281090   8.452   2.880   2.448
26950WAT      O81091   0.942   5.914   5.559
26950WAT     H181092   0.933   5.885   5.463
26950WAT     H281093   0.875   5.985   5.579
26951WAT      O81094   1.780   9.436   5.682
26951WAT     H181095   1.853   9.372   5.706
26951WAT     H281096   1.757   9.426   5.586
26952WAT      O81097   6.371   0.898   7.558
26952WAT     H181098   6.418   0.810   7.554
26952WAT     H281099   6.392   0.943   7.645
26953WAT      O81100   2.194   0.168   4.994
26953WAT     H181101   2.289   0.138   4.989
26953WAT     H281102   2.191   0.267   5.005
26954WAT      O81103   3.792   9.837   6.484
26954WAT     H181104   3.705   9.831   6.533
26954WAT     H281105   3.793   9.772   6.409
26955WAT      O81106   6.102   8.960   2.137
26955WAT     H181107   6.051   8.914   2.210
26955WAT     H281108   6.109   9.058   2.158
26956WAT      O81109   3.277   6.846   3.869
26956WAT     H181110   3.272   6.931   3.816
26956WAT     H281111   3.328   6.863   3.954
26957WAT      O81112   9.189   9.106   3.613
26957WAT     H181113   9.103   9.157   3.607
26957WAT     H281114   9.221   9.084   3.521
26958WAT      O81115   9.885   3.179   9.153
26958WAT     H181116   9.873   3.268   9.110
26958WAT     H281117   9.922   3.191   9.245
26959WAT      O81118   9.759   7.160   3.904
26959WAT     H181119   9.744   7.245   3.854
26959WAT     H281120   9.788   7.179   3.997
26960WAT      O81121   1.134   3.667   8.875
26960WAT     H181122   1.111   3.674   8.778
26960WAT     H281123   1.229   3.695   8.888
26961WAT      O81124   6.884   6.064   8.524
26961WAT     H181125   6.952   6.106   8.464
26961WAT     H281126   6.863   6.126   8.599
26962WAT      O81127   1.324   5.110   4.533
26962WAT     H181128   1.329   5.189   4.471
26962WAT     H281129   1.403   5.051   4.517
26963WAT      O81130   8.970   1.626   2.062
26963WAT     H181131   8.965   1.538   2.014
26963WAT     H281132   8.878   1.661   2.076
26964WAT      O81133   6.092   8.357   7.408
26964WAT     H181134   5.998   8.373   7.440
26964WAT     H281135   6.095   8.368   7.309
26965WAT      O81136   1.863   0.043   2.770
26965WAT     H181137   1.820   0.051   2.860
26965WAT     H281138   1.939   0.108   2.764
26966WAT      O81139   0.304   0.190   8.052
26966WAT     H181140   0.346   0.164   7.965
26966WAT     H281141   0.375   0.206   8.120
26967WAT      O81142   0.221   2.685   4.867
26967WAT     H181143   0.319   2.693   4.888
26967WAT     H281144   0.168   2.695   4.952
26968WAT      O81145   2.404   2.818   8.984
26968WAT     H181146   2.389   2.893   9.049
26968WAT     H281147   2.501   2.794   8.982
26969WAT      O81148   1.568   8.390   6.580
26969WAT     H181149   1.662   8.398   6.548
26969WAT     H281150   1.532   8.299   6.558
26970WAT      O81151   8.406   6.370   9.822
26970WAT     H181152   8.484   6.377   9.761
26970WAT     H281153   8.437   6.370   9.917
26971WAT      O81154   7.964   4.624   6.790
26971WAT     H181155   7.935   4.536   6.754
26971WAT     H281156   7.904   4.696   6.756
26972WAT      O81157   7.811   2.917   8.631
26972WAT     H181158   7.910   2.929   8.638
26972WAT     H281159   7.772   2.993   8.580
26973WAT      O81160   5.399   9.785   1.485
26973WAT     H181161   5.335   9.733   1.430
26973WAT     H281162   5.462   9.834   1.425
26974WAT      O81163   6.757   6.522   7.551
26974WAT     H181164   6.827   6.451   7.555
26974WAT     H281165   6.722   6.540   7.642
26975WAT      O81166   2.262   2.471   4.970
26975WAT     H181167   2.206   2.390   4.987
26975WAT     H281168   2.342   2.446   4.915
26976WAT      O81169   2.605   8.032   9.836
26976WAT     H181170   2.520   7.987   9.809
26976WAT     H281171   2.618   8.114   9.780
26977WAT      O81172   9.704   9.679   4.189
26977WAT     H181173   9.793   9.687   4.235
26977WAT     H281174   9.646   9.615   4.240
26978WAT      O81175   9.709   9.157   1.987
26978WAT     H181176   9.717   9.081   1.923
26978WAT     H281177   9.614   9.166   2.018
26979WAT      O81178   6.224   5.244   2.882
26979WAT     H181179   6.202   5.170   2.818
26979WAT     H281180   6.269   5.318   2.832
26980WAT      O81181   7.340   8.609   3.430
26980WAT     H181182   7.304   8.585   3.340
26980WAT     H281183   7.437   8.630   3.422
26981WAT      O81184   2.533   5.180   8.442
26981WAT     H181185   2.621   5.136   8.423
26981WAT     H281186   2.540   5.233   8.526
26982WAT      O81187   4.119   3.112   4.647
26982WAT     H181188   4.080   3.111   4.555
26982WAT     H281189   4.114   3.204   4.684
26983WAT      O81190   5.155   2.453   5.329
26983WAT     H181191   5.183   2.441   5.234
26983WAT     H281192   5.213   2.521   5.373
26984WAT      O81193   3.542   2.339   5.635
26984WAT     H181194   3.447   2.351   5.665
26984WAT     H281195   3.569   2.418   5.580
26985WAT      O81196   5.665   2.468   0.157
26985WAT     H181197   5.743   2.414   0.187
26985WAT     H281198   5.593   2.407   0.123
26986WAT      O81199   7.872   4.021   3.249
26986WAT     H181200   7.904   3.964   3.173
26986WAT     H281201   7.949   4.074   3.285
26987WAT      O81202   3.171   4.877   7.519
26987WAT     H181203   3.076   4.872   7.553
26987WAT     H281204   3.178   4.829   7.432
26988WAT      O81205   4.332   3.040   3.976
26988WAT     H181206   4.420   2.996   3.994
26988WAT     H281207   4.266   2.973   3.943
26989WAT      O81208   0.916   3.188   8.531
26989WAT     H181209   0.984   3.257   8.554
26989WAT     H281210   0.890   3.137   8.613
26990WAT      O81211   1.834   8.395   9.117
26990WAT     H181212   1.794   8.320   9.065
26990WAT     H281213   1.921   8.423   9.076
26991WAT      O81214   0.248   3.505   7.023
26991WAT     H181215   0.255   3.594   6.978
26991WAT     H281216   0.297   3.507   7.110
26992WAT      O81217   3.272   4.553   7.385
26992WAT     H181218   3.360   4.595   7.405
26992WAT     H281219   3.229   4.522   7.470
26993WAT      O81220   4.889   8.713   1.622
26993WAT     H181221   4.861   8.786   1.685
26993WAT     H281222   4.986   8.724   1.600
26994WAT      O81223   8.884   2.969   2.028
26994WAT     H181224   8.863   2.874   2.053
26994WAT     H281225   8.961   3.002   2.082
26995WAT      O81226   5.431   9.439   1.873
26995WAT     H181227   5.369   9.369   1.909
26995WAT     H281228   5.404   9.528   1.910
26996WAT      O81229   8.973   4.009   0.478
26996WAT     H181230   9.015   3.921   0.502
26996WAT     H281231   9.016   4.044   0.395
26997WAT      O81232   0.208   3.533   7.642
26997WAT     H181233   0.258   3.543   7.556
26997WAT     H281234   0.272   3.513   7.716
26998WAT      O81235   9.311   8.780   4.698
26998WAT     H181236   9.268   8.775   4.608
26998WAT     H281237   9.344   8.689   4.724
26999WAT      O81238   6.093   8.657   3.582
26999WAT     H181239   6.136   8.661   3.492
26999WAT     H281240   6.071   8.750   3.612
27000WAT      O81241   5.483   2.187   3.270
27000WAT     H181242   5.544   2.119   3.310
27000WAT     H281243   5.429   2.230   3.343
27001WAT      O81244   9.525   7.450   2.557
27001WAT     H181245   9.509   7.449   2.458
27001WAT     H281246   9.492   7.365   2.597
27002WAT      O81247   1.936   1.388   8.895
27002WAT     H181248   1.838   1.404   8.884
27002WAT     H281249   1.955   1.290   8.894
27003WAT      O81250   1.186   9.595   2.750
27003WAT     H181251   1.252   9.664   2.722
27003WAT     H281252   1.101   9.609   2.699
27004WAT      O81253   4.802   9.265   7.091
27004WAT     H181254   4.846   9.332   7.031
27004WAT     H281255   4.859   9.183   7.097
27005WAT      O81256   4.710   5.648   0.219
27005WAT     H181257   4.617   5.613   0.223
27005WAT     H281258   4.732   5.695   0.305
27006WAT      O81259   6.994   2.818   3.723
27006WAT     H181260   6.968   2.735   3.673
27006WAT     H281261   6.911   2.864   3.755
27007WAT      O81262   0.902   1.009   8.059
27007WAT     H181263   0.915   1.028   7.962
27007WAT     H281264   0.898   1.095   8.110
27008WAT      O81265   3.473   7.304   8.448
27008WAT     H181266   3.475   7.297   8.548
27008WAT     H281267   3.535   7.236   8.409
27009WAT      O81268   1.378   1.619   2.060
27009WAT     H181269   1.442   1.696   2.055
27009WAT     H281270   1.284   1.652   2.051
27010WAT      O81271   5.019   2.430   1.672
27010WAT     H181272   5.022   2.422   1.772
27010WAT     H281273   4.960   2.506   1.646
27011WAT      O81274   8.342   3.609   5.464
27011WAT     H181275   8.280   3.532   5.451
27011WAT     H281276   8.423   3.596   5.406
27012WAT      O81277   6.164   5.965   3.813
27012WAT     H181278   6.120   5.896   3.871
27012WAT     H281279   6.146   5.944   3.717
27013WAT      O81280   3.569   3.374   2.714
27013WAT     H181281   3.574   3.374   2.614
27013WAT     H281282   3.479   3.405   2.742
27014WAT      O81283   9.769   9.488   1.175
27014WAT     H181284   9.803   9.489   1.269
27014WAT     H281285   9.808   9.410   1.126
27015WAT      O81286   7.848   9.544   2.744
27015WAT     H181287   7.843   9.467   2.681
27015WAT     H281288   7.824   9.628   2.697
27016WAT      O81289   8.389   0.533   2.779
27016WAT     H181290   8.311   0.487   2.736
27016WAT     H281291   8.449   0.464   2.819
27017WAT      O81292   8.692   6.594   8.328
27017WAT     H181293   8.659   6.620   8.418
27017WAT     H281294   8.667   6.664   8.261
27018WAT      O81295   7.360   4.966   0.173
27018WAT     H181296   7.434   4.903   0.146
27018WAT     H281297   7.398   5.057   0.187
27019WAT      O81298   2.982   2.346   3.751
27019WAT     H181299   3.050   2.273   3.761
27019WAT     H281300   2.973   2.396   3.837
27020WAT      O81301   4.073   7.531   3.408
27020WAT     H181302   4.109   7.613   3.364
27020WAT     H281303   4.143   7.492   3.468
27021WAT      O81304   6.181   6.092   9.395
27021WAT     H181305   6.126   6.123   9.472
27021WAT     H281306   6.229   6.008   9.421
27022WAT      O81307   0.624   7.282   1.130
27022WAT     H181308   0.636   7.314   1.036
27022WAT     H281309   0.587   7.190   1.130
27023WAT      O81310   5.735   2.999   4.758
27023WAT     H181311   5.757   3.005   4.661
27023WAT     H281312   5.768   3.080   4.805
27024WAT      O81313   7.681   2.930   0.474
27024WAT     H181314   7.624   3.013   0.477
27024WAT     H281315   7.624   2.850   0.486
27025WAT      O81316   6.197   9.684   2.662
27025WAT     H181317   6.137   9.647   2.592
27025WAT     H281318   6.175   9.781   2.676
27026WAT      O81319   6.709   4.265   0.211
27026WAT     H181320   6.797   4.231   0.176
27026WAT     H281321   6.654   4.188   0.245
27027WAT      O81322   8.848   8.600   4.119
27027WAT     H181323   8.914   8.588   4.193
27027WAT     H281324   8.824   8.511   4.081
27028WAT      O81325   0.940   9.601   9.712
27028WAT     H181326   1.035   9.627   9.699
27028WAT     H281327   0.921   9.516   9.663
27029WAT      O81328   1.409   3.334   6.511
27029WAT     H181329   1.368   3.316   6.600
27029WAT     H281330   1.477   3.263   6.491
27030WAT      O81331   0.592   3.874   4.637
27030WAT     H181332   0.524   3.822   4.587
27030WAT     H281333   0.558   3.967   4.653
27031WAT      O81334   7.596   5.791   5.817
27031WAT     H181335   7.608   5.742   5.903
27031WAT     H281336   7.685   5.820   5.783
27032WAT      O81337   6.328   1.504   6.489
27032WAT     H181338   6.247   1.454   6.520
27032WAT     H281339   6.305   1.600   6.473
27033WAT      O81340   0.971   8.851   6.184
27033WAT     H181341   1.006   8.936   6.144
27033WAT     H281342   0.928   8.796   6.113
27034WAT      O81343   9.286   0.350   6.734
27034WAT     H181344   9.242   0.409   6.801
27034WAT     H281345   9.248   0.258   6.739
27035WAT      O81346   9.336   2.954   2.852
27035WAT     H181347   9.333   3.007   2.936
27035WAT     H281348   9.430   2.947   2.820
27036WAT      O81349   3.082   2.690   8.573
27036WAT     H181350   3.120   2.599   8.589
27036WAT     H281351   3.150   2.746   8.527
27037WAT      O81352   2.818   7.166   5.696
27037WAT     H181353   2.822   7.238   5.627
27037WAT     H281354   2.899   7.108   5.689
27038WAT      O81355   3.930   3.846   8.485
27038WAT     H181356   3.967   3.855   8.392
27038WAT     H281357   3.882   3.758   8.494
27039WAT      O81358   4.155   2.602   8.934
27039WAT     H181359   4.177   2.594   8.837
27039WAT     H281360   4.151   2.698   8.960
27040WAT      O81361   7.898   8.811   1.580
27040WAT     H181362   7.973   8.819   1.646
27040WAT     H281363   7.934   8.775   1.494
27041WAT      O81364   5.871   1.843   6.124
27041WAT     H181365   5.881   1.843   6.025
27041WAT     H281366   5.863   1.748   6.156
27042WAT      O81367   2.448   2.355   0.248
27042WAT     H181368   2.446   2.271   0.302
27042WAT     H281369   2.478   2.334   0.155
27043WAT      O81370   4.635   8.799   0.714
27043WAT     H181371   4.624   8.700   0.701
27043WAT     H281372   4.570   8.831   0.783
27044WAT      O81373   1.445   8.802   3.566
27044WAT     H181374   1.480   8.837   3.479
27044WAT     H281375   1.502   8.837   3.641
27045WAT      O81376   8.077   8.306   1.035
27045WAT     H181377   8.129   8.225   1.005
27045WAT     H281378   7.988   8.278   1.069
27046WAT      O81379   4.722   5.055   0.517
27046WAT     H181380   4.635   5.104   0.527
27046WAT     H281381   4.766   5.046   0.606
27047WAT      O81382   9.331   8.567   8.918
27047WAT     H181383   9.378   8.541   9.002
27047WAT     H281384   9.258   8.632   8.939
27048WAT      O81385   6.127   7.670   7.382
27048WAT     H181386   6.099   7.766   7.381
27048WAT     H281387   6.049   7.613   7.410
27049WAT      O81388   1.854   9.412   9.299
27049WAT     H181389   1.793   9.356   9.355
27049WAT     H281390   1.812   9.501   9.284
27050WAT      O81391   3.618   7.922   7.945
27050WAT     H181392   3.644   7.954   8.036
27050WAT     H281393   3.643   7.990   7.877
27051WAT      O81394   5.756   4.862   0.129
27051WAT     H181395   5.806   4.901   0.206
27051WAT     H281396   5.776   4.914   0.046
27052WAT      O81397   8.342   0.028   2.371
27052WAT     H181398   8.275  -0.045   2.351
27052WAT     H281399   8.373   0.019   2.466
27053WAT      O81400   3.233   9.367   3.983
27053WAT     H181401   3.164   9.392   4.050
27053WAT     H281402   3.316   9.422   3.997
27054WAT      O81403   9.382   7.011   8.064
27054WAT     H181404   9.450   7.059   8.008
27054WAT     H281405   9.422   6.927   8.100
27055WAT      O81406   1.775   8.797   0.214
27055WAT     H181407   1.680   8.766   0.216
27055WAT     H281408   1.778   8.896   0.200
27056WAT      O81409   2.677   5.323   4.603
27056WAT     H181410   2.593   5.307   4.551
27056WAT     H281411   2.667   5.284   4.694
27057WAT      O81412   3.921   8.318   2.864
27057WAT     H181413   3.975   8.235   2.851
27057WAT     H281414   3.966   8.377   2.930
27058WAT      O81415   8.052   3.063   2.447
27058WAT     H181416   8.041   3.070   2.546
27058WAT     H281417   8.009   2.978   2.415
27059WAT      O81418   0.952   8.036   9.844
27059WAT     H181419   0.860   8.010   9.874
27059WAT     H281420   0.971   7.995   9.755
27060WAT      O81421   7.644   2.511   4.710
27060WAT     H181422   7.616   2.603   4.734
27060WAT     H281423   7.565   2.450   4.715
27061WAT      O81424   3.535   2.165   0.731
27061WAT     H181425   3.496   2.248   0.692
27061WAT     H281426   3.562   2.102   0.657
27062WAT      O81427   3.388   3.903   6.913
27062WAT     H181428   3.298   3.860   6.917
27062WAT     H281429   3.380   3.998   6.885
27063WAT      O81430   8.581   5.232   4.450
27063WAT     H181431   8.549   5.217   4.543
27063WAT     H281432   8.508   5.276   4.397
27064WAT      O81433   4.923   3.095   2.162
27064WAT     H181434   5.007   3.044   2.148
27064WAT     H281435   4.878   3.063   2.245
27065WAT      O81436   7.859   0.930   3.475
27065WAT     H181437   7.846   1.029   3.480
27065WAT     H281438   7.822   0.895   3.389
27066WAT      O81439   9.427   1.231   0.445
27066WAT     H181440   9.500   1.208   0.510
27066WAT     H281441   9.442   1.180   0.360
27067WAT      O81442   4.908   0.670   7.738
27067WAT     H181443   4.829   0.702   7.684
27067WAT     H281444   4.951   0.593   7.692
27068WAT      O81445   7.544   3.097   3.233
27068WAT     H181446   7.570   3.106   3.137
27068WAT     H281447   7.459   3.146   3.249
27069WAT      O81448   8.633   8.142   9.793
27069WAT     H181449   8.593   8.097   9.714
27069WAT     H281450   8.565   8.147   9.867
27070WAT      O81451   9.471   9.440   8.766
27070WAT     H181452   9.393   9.441   8.703
27070WAT     H281453   9.544   9.384   8.728
27071WAT      O81454   7.253   4.497   1.990
27071WAT     H181455   7.166   4.546   1.998
27071WAT     H281456   7.255   4.422   2.056
27072WAT      O81457   6.520   2.411   4.499
27072WAT     H181458   6.472   2.460   4.426
27072WAT     H281459   6.589   2.471   4.539
27073WAT      O81460   3.166   6.614   9.871
27073WAT     H181461   3.218   6.538   9.832
27073WAT     H281462   3.194   6.629   9.966
27074WAT      O81463   4.065   0.987   5.183
27074WAT     H181464   4.017   0.980   5.270
27074WAT     H281465   4.024   0.924   5.117
27075WAT      O81466   1.691   6.300   3.959
27075WAT     H181467   1.683   6.308   4.058
27075WAT     H281468   1.787   6.303   3.932
27076WAT      O81469   7.337   7.488   0.143
27076WAT     H181470   7.265   7.526   0.085
27076WAT     H281471   7.302   7.409   0.193
27077WAT      O81472   9.767   6.150   0.200
27077WAT     H181473   9.775   6.067   0.145
27077WAT     H281474   9.799   6.131   0.293
27078WAT      O81475   2.031   1.673   4.358
27078WAT     H181476   1.975   1.666   4.440
27078WAT     H281477   2.028   1.766   4.323
27079WAT      O81478   1.179   7.488   3.650
27079WAT     H181479   1.142   7.451   3.565
27079WAT     H281480   1.185   7.416   3.718
27080WAT      O81481   8.781   5.124   1.734
27080WAT     H181482   8.754   5.039   1.687
27080WAT     H281483   8.870   5.110   1.778
27081WAT      O81484   7.985   9.073   2.717
27081WAT     H181485   8.044   9.042   2.792
27081WAT     H281486   7.890   9.075   2.748
27082WAT      O81487   5.447   6.939   5.308
27082WAT     H181488   5.407   6.867   5.252
27082WAT     H281489   5.515   6.900   5.369
27083WAT      O81490   3.481   8.086   1.070
27083WAT     H181491   3.498   8.183   1.053
27083WAT     H281492   3.567   8.035   1.064
27084WAT      O81493   3.440   2.901   9.324
27084WAT     H181494   3.509   2.830   9.314
27084WAT     H281495   3.353   2.861   9.353
27085WAT      O81496   8.920   2.102   9.206
27085WAT     H181497   8.996   2.054   9.162
27085WAT     H281498   8.903   2.188   9.158
27086WAT      O81499   1.871   0.728   7.887
27086WAT     H181500   1.938   0.666   7.926
27086WAT     H281501   1.901   0.756   7.796
27087WAT      O81502   2.016   2.900   4.635
27087WAT     H181503   1.999   2.971   4.567
27087WAT     H281504   1.931   2.881   4.685
27088WAT      O81505   3.121   0.421   3.448
27088WAT     H181506   3.050   0.477   3.489
27088WAT     H281507   3.202   0.421   3.506
27089WAT      O81508   4.515   5.313   4.788
27089WAT     H181509   4.536   5.406   4.758
27089WAT     H281510   4.433   5.280   4.741
27090WAT      O81511   1.150   3.371   0.857
27090WAT     H181512   1.204   3.400   0.936
27090WAT     H281513   1.077   3.309   0.887
27091WAT      O81514   4.351   6.412   3.946
27091WAT     H181515   4.279   6.383   3.882
27091WAT     H281516   4.348   6.355   4.028
27092WAT      O81517   0.366   9.055   0.821
27092WAT     H181518   0.276   9.079   0.785
27092WAT     H281519   0.433   9.123   0.792
27093WAT      O81520   0.302   4.197   2.846
27093WAT     H181521   0.400   4.180   2.840
27093WAT     H281522   0.268   4.227   2.757
27094WAT      O81523   7.984   2.142   8.786
27094WAT     H181524   7.896   2.135   8.739
27094WAT     H281525   7.971   2.189   8.873
27095WAT      O81526   8.400   7.766   4.384
27095WAT     H181527   8.337   7.842   4.391
27095WAT     H281528   8.352   7.680   4.399
27096WAT      O81529   7.807   9.028   7.352
27096WAT     H181530   7.844   8.937   7.333
27096WAT     H281531   7.721   9.020   7.402
27097WAT      O81532   0.459   0.784   5.291
27097WAT     H181533   0.494   0.871   5.255
27097WAT     H281534   0.427   0.727   5.215
27098WAT      O81535   9.747   2.445   0.707
27098WAT     H181536   9.666   2.503   0.717
27098WAT     H281537   9.819   2.497   0.660
27099WAT      O81538   2.503   4.590   9.128
27099WAT     H181539   2.444   4.662   9.091
27099WAT     H281540   2.525   4.524   9.056
27100WAT      O81541   3.543   4.195   4.442
27100WAT     H181542   3.459   4.175   4.492
27100WAT     H281543   3.572   4.113   4.392
27101WAT      O81544   4.062   3.440   3.730
27101WAT     H181545   3.972   3.408   3.759
27101WAT     H281546   4.133   3.387   3.776
27102WAT      O81547   5.445   6.261   5.796
27102WAT     H181548   5.415   6.182   5.850
27102WAT     H281549   5.436   6.344   5.852
27103WAT      O81550   6.659   2.764   1.508
27103WAT     H181551   6.655   2.768   1.408
27103WAT     H281552   6.710   2.683   1.536
27104WAT      O81553   0.852   3.432   4.071
27104WAT     H181554   0.773   3.483   4.037
27104WAT     H281555   0.877   3.361   4.005
27105WAT      O81556   5.448   2.902   4.114
27105WAT     H181557   5.433   2.913   4.212
27105WAT     H281558   5.467   2.806   4.093
27106WAT      O81559   8.897   6.449   9.528
27106WAT     H181560   8.859   6.389   9.457
27106WAT     H281561   8.993   6.426   9.544
27107WAT      O81562   3.693   8.202   1.300
27107WAT     H181563   3.765   8.205   1.230
27107WAT     H281564   3.734   8.217   1.390
27108WAT      O81565   5.960   1.320   5.018
27108WAT     H181566   5.988   1.401   4.966
27108WAT     H281567   5.893   1.347   5.087
27109WAT      O81568   6.518   8.677   2.823
27109WAT     H181569   6.453   8.745   2.856
27109WAT     H281570   6.484   8.637   2.738
27110WAT      O81571   1.768   2.225   6.631
27110WAT     H181572   1.761   2.231   6.730
27110WAT     H281573   1.678   2.239   6.589
27111WAT      O81574   6.747   4.717   1.568
27111WAT     H181575   6.805   4.795   1.591
27111WAT     H281576   6.776   4.638   1.622
27112WAT      O81577   8.012   5.014   7.580
27112WAT     H181578   7.955   5.080   7.629
27112WAT     H281579   8.011   5.034   7.482
27113WAT      O81580   6.187   9.688   7.876
27113WAT     H181581   6.255   9.615   7.860
27113WAT     H281582   6.146   9.714   7.789
27114WAT      O81583   5.283   3.598   1.253
27114WAT     H181584   5.315   3.623   1.345
27114WAT     H281585   5.184   3.590   1.253
27115WAT      O81586   1.889   9.547   3.219
27115WAT     H181587   1.827   9.469   3.233
27115WAT     H281588   1.868   9.618   3.286
27116WAT      O81589   2.281   8.155   7.805
27116WAT     H181590   2.307   8.141   7.901
27116WAT     H281591   2.185   8.134   7.793
27117WAT      O81592   3.147   9.430   0.417
27117WAT     H181593   3.084   9.435   0.494
27117WAT     H281594   3.241   9.437   0.450
27118WAT      O81595   4.280   2.251   2.544
27118WAT     H181596   4.265   2.347   2.521
27118WAT     H281597   4.211   2.222   2.611
27119WAT      O81598   6.808   3.162   5.707
27119WAT     H181599   6.804   3.118   5.796
27119WAT     H281600   6.715   3.178   5.673
27120WAT      O81601   8.131   3.664   9.895
27120WAT     H181602   8.185   3.588   9.931
27120WAT     H281603   8.133   3.662   9.795
27121WAT      O81604   6.556   8.845   0.786
27121WAT     H181605   6.459   8.866   0.774
27121WAT     H281606   6.600   8.839   0.697
27122WAT      O81607   8.556   5.516   8.397
27122WAT     H181608   8.576   5.577   8.474
27122WAT     H281609   8.633   5.454   8.383
27123WAT      O81610   7.183   4.309   1.439
27123WAT     H181611   7.248   4.237   1.415
27123WAT     H281612   7.105   4.270   1.487
27124WAT      O81613   6.264   2.684   2.825
27124WAT     H181614   6.279   2.751   2.897
27124WAT     H281615   6.253   2.593   2.866
27125WAT      O81616   7.515   5.622   8.384
27125WAT     H181617   7.513   5.655   8.478
27125WAT     H281618   7.422   5.622   8.347
27126WAT      O81619   3.893   1.332   7.555
27126WAT     H181620   3.880   1.278   7.638
27126WAT     H281621   3.928   1.274   7.482
27127WAT      O81622   0.877   6.637   9.682
27127WAT     H181623   0.893   6.711   9.747
27127WAT     H281624   0.929   6.557   9.709
27128WAT      O81625   5.068   5.665   9.086
27128WAT     H181626   5.158   5.660   9.043
27128WAT     H281627   5.045   5.576   9.125
27129WAT      O81628   8.566   3.464   1.297
27129WAT     H181629   8.475   3.466   1.339
27129WAT     H281630   8.618   3.387   1.332
27130WAT      O81631   3.692   5.344   5.770
27130WAT     H181632   3.680   5.275   5.842
27130WAT     H281633   3.765   5.315   5.708
27131WAT      O81634   8.473   7.814   9.758
27131WAT     H181635   8.466   7.730   9.705
27131WAT     H281636   8.466   7.893   9.697
27132WAT      O81637   3.616   7.511   1.233
27132WAT     H181638   3.650   7.497   1.326
27132WAT     H281639   3.569   7.428   1.202
27133WAT      O81640   9.519   2.484   3.779
27133WAT     H181641   9.600   2.426   3.776
27133WAT     H281642   9.458   2.460   3.704
27134WAT      O81643   4.242   3.503   1.380
27134WAT     H181644   4.310   3.443   1.422
27134WAT     H281645   4.180   3.537   1.450
27135WAT      O81646   2.899   4.485   1.621
27135WAT     H181647   2.825   4.544   1.654
27135WAT     H281648   2.892   4.396   1.665
27136WAT      O81649   5.802   0.564   7.961
27136WAT     H181650   5.767   0.496   7.897
27136WAT     H281651   5.802   0.525   8.054
27137WAT      O81652   2.494   2.139   1.092
27137WAT     H181653   2.459   2.124   1.185
27137WAT     H281654   2.591   2.114   1.090
27138WAT      O81655   1.574   8.222   8.146
27138WAT     H181656   1.671   8.198   8.146
27138WAT     H281657   1.522   8.152   8.097
27139WAT      O81658   0.161   0.411   0.900
27139WAT     H181659   0.214   0.349   0.958
27139WAT     H281660   0.078   0.439   0.947
27140WAT      O81661   4.123   8.062   6.159
27140WAT     H181662   4.112   7.974   6.113
27140WAT     H281663   4.216   8.068   6.197
27141WAT      O81664   7.508   2.040   4.641
27141WAT     H181665   7.446   2.100   4.691
27141WAT     H281666   7.455   1.966   4.598
27142WAT      O81667   0.487   2.894   5.575
27142WAT     H181668   0.390   2.878   5.592
27142WAT     H281669   0.503   2.992   5.559
27143WAT      O81670   7.866   7.628   6.158
27143WAT     H181671   7.803   7.589   6.090
27143WAT     H281672   7.827   7.713   6.194
27144WAT      O81673   2.967   1.406   3.866
27144WAT     H181674   2.954   1.419   3.965
27144WAT     H281675   3.042   1.342   3.851
27145WAT      O81676   3.399   5.401   8.675
27145WAT     H181677   3.498   5.404   8.670
27145WAT     H281678   3.370   5.384   8.769
27146WAT      O81679   7.497   5.335   2.999
27146WAT     H181680   7.565   5.376   3.060
27146WAT     H281681   7.456   5.407   2.942
27147WAT      O81682   4.047   6.222   6.266
27147WAT     H181683   4.021   6.285   6.193
27147WAT     H281684   4.040   6.269   6.354
27148WAT      O81685   8.486   5.394   6.719
27148WAT     H181686   8.574   5.429   6.689
27148WAT     H281687   8.431   5.468   6.756
27149WAT      O81688   9.283   1.224   0.109
27149WAT     H181689   9.199   1.199   0.157
27149WAT     H281690   9.349   1.148   0.115
27150WAT      O81691   8.779   0.370   6.720
27150WAT     H181692   8.831   0.292   6.753
27150WAT     H281693   8.830   0.415   6.646
27151WAT      O81694   0.811   6.566   3.706
27151WAT     H181695   0.894   6.589   3.757
27151WAT     H281696   0.748   6.643   3.708
27152WAT      O81697   8.144   2.068   6.111
27152WAT     H181698   8.077   2.134   6.077
27152WAT     H281699   8.224   2.068   6.051
27153WAT      O81700   8.501   7.138   8.968
27153WAT     H181701   8.571   7.067   8.960
27153WAT     H281702   8.502   7.196   8.887
27154WAT      O81703   9.171   8.214   5.860
27154WAT     H181704   9.154   8.138   5.922
27154WAT     H281705   9.220   8.287   5.909
27155WAT      O81706   8.790   2.520   5.208
27155WAT     H181707   8.824   2.427   5.191
27155WAT     H281708   8.706   2.515   5.261
27156WAT      O81709   7.766   4.039   4.181
27156WAT     H181710   7.763   4.138   4.170
27156WAT     H281711   7.856   4.005   4.154
27157WAT      O81712   8.857   0.814   8.578
27157WAT     H181713   8.764   0.780   8.590
27157WAT     H281714   8.855   0.900   8.528
27158WAT      O81715   8.745   7.506   4.525
27158WAT     H181716   8.807   7.456   4.464
27158WAT     H281717   8.753   7.470   4.618
27159WAT      O81718   7.083   6.789   0.038
27159WAT     H181719   6.983   6.792   0.033
27159WAT     H281720   7.118   6.735  -0.039
27160WAT      O81721   7.641   0.133   0.899
27160WAT     H181722   7.693   0.190   0.835
27160WAT     H281723   7.570   0.187   0.942
27161WAT      O81724   5.248   3.450   7.995
27161WAT     H181725   5.234   3.405   8.083
27161WAT     H281726   5.346   3.463   7.980
27162WAT      O81727   8.266   3.713   2.972
27162WAT     H181728   8.226   3.701   2.881
27162WAT     H281729   8.267   3.625   3.019
27163WAT      O81730   9.769   3.841   0.839
27163WAT     H181731   9.834   3.765   0.832
27163WAT     H281732   9.819   3.927   0.847
27164WAT      O81733   0.883   1.326   2.111
27164WAT     H181734   0.937   1.292   2.188
27164WAT     H281735   0.790   1.346   2.142
27165WAT      O81736   7.835   1.555   8.569
27165WAT     H181737   7.912   1.493   8.581
27165WAT     H281738   7.755   1.504   8.539
27166WAT      O81739   4.201   1.661   4.708
27166WAT     H181740   4.251   1.583   4.745
27166WAT     H281741   4.224   1.744   4.760
27167WAT      O81742   0.329   6.909   9.394
27167WAT     H181743   0.346   7.007   9.392
27167WAT     H281744   0.379   6.864   9.319
27168WAT      O81745   2.202   9.558   9.158
27168WAT     H181746   2.124   9.498   9.139
27168WAT     H281747   2.286   9.505   9.155
27169WAT      O81748   6.109   6.236   3.903
27169WAT     H181749   6.104   6.139   3.879
27169WAT     H281750   6.021   6.266   3.941
27170WAT      O81751   4.599   6.689   0.110
27170WAT     H181752   4.525   6.743   0.150
27170WAT     H281753   4.620   6.724   0.019
27171WAT      O81754   9.340   7.886   2.468
27171WAT     H181755   9.436   7.910   2.480
27171WAT     H281756   9.286   7.970   2.458
27172WAT      O81757   7.956   0.488   0.639
27172WAT     H181758   7.984   0.402   0.683
27172WAT     H281759   7.981   0.565   0.698
27173WAT      O81760   0.442   5.046   4.466
27173WAT     H181761   0.403   4.962   4.504
27173WAT     H281762   0.396   5.125   4.508
27174WAT      O81763   4.849   1.303   5.672
27174WAT     H181764   4.841   1.212   5.632
27174WAT     H281765   4.758   1.339   5.693
27175WAT      O81766   1.319   2.736   1.396
27175WAT     H181767   1.341   2.743   1.299
27175WAT     H281768   1.294   2.826   1.431
27176WAT      O81769   0.859   2.431   3.203
27176WAT     H181770   0.851   2.421   3.104
27176WAT     H281771   0.811   2.356   3.248
27177WAT      O81772   6.644   2.460   4.955
27177WAT     H181773   6.648   2.381   5.017
27177WAT     H281774   6.570   2.447   4.890
27178WAT      O81775   9.006   2.798   8.596
27178WAT     H181776   8.996   2.717   8.537
27178WAT     H281777   9.013   2.880   8.540
27179WAT      O81778   2.327   7.271   2.289
27179WAT     H181779   2.384   7.343   2.329
27179WAT     H281780   2.380   7.187   2.280
27180WAT      O81781   2.732   3.471   8.356
27180WAT     H181782   2.663   3.428   8.414
27180WAT     H281783   2.773   3.548   8.404
27181WAT      O81784   6.309   1.820   0.591
27181WAT     H181785   6.387   1.866   0.634
27181WAT     H281786   6.267   1.881   0.524
27182WAT      O81787   5.524   5.502   6.014
27182WAT     H181788   5.552   5.408   6.035
27182WAT     H281789   5.439   5.523   6.063
27183WAT      O81790   6.562   7.180   2.095
27183WAT     H181791   6.596   7.230   2.015
27183WAT     H281792   6.637   7.165   2.159
27184WAT      O81793   1.249   9.818   1.889
27184WAT     H181794   1.329   9.766   1.918
27184WAT     H281795   1.228   9.798   1.794
27185WAT      O81796   6.038   6.193   2.486
27185WAT     H181797   6.039   6.210   2.388
27185WAT     H281798   5.977   6.258   2.531
27186WAT      O81799   7.883   8.574   8.358
27186WAT     H181800   7.979   8.580   8.388
27186WAT     H281801   7.866   8.483   8.320
27187WAT      O81802   8.040   1.206   6.880
27187WAT     H181803   8.068   1.158   6.963
27187WAT     H281804   7.944   1.232   6.887
27188WAT      O81805   4.888   6.565   6.331
27188WAT     H181806   4.844   6.575   6.242
27188WAT     H281807   4.847   6.630   6.396
27189WAT      O81808   3.706   2.373   7.124
27189WAT     H181809   3.776   2.438   7.152
27189WAT     H281810   3.628   2.422   7.086
27190WAT      O81811   4.524   9.001   4.756
27190WAT     H181812   4.473   9.055   4.689
27190WAT     H281813   4.483   9.012   4.847
27191WAT      O81814   6.663   6.836   0.276
27191WAT     H181815   6.710   6.780   0.344
27191WAT     H281816   6.708   6.925   0.269
27192WAT      O81817   2.524   7.908   2.620
27192WAT     H181818   2.587   7.902   2.697
27192WAT     H281819   2.447   7.846   2.635
27193WAT      O81820   3.405   4.511   5.326
27193WAT     H181821   3.431   4.454   5.248
27193WAT     H281822   3.314   4.484   5.358
27194WAT      O81823   7.158   6.907   3.955
27194WAT     H181824   7.110   6.989   3.987
27194WAT     H281825   7.105   6.863   3.883
27195WAT      O81826   7.385   1.084   7.844
27195WAT     H181827   7.309   1.029   7.810
27195WAT     H281828   7.453   1.025   7.887
27196WAT      O81829   5.270   2.711   2.282
27196WAT     H181830   5.186   2.659   2.296
27196WAT     H281831   5.342   2.649   2.250
27197WAT      O81832   1.131   6.688   5.287
27197WAT     H181833   1.049   6.639   5.318
27197WAT     H281834   1.213   6.639   5.318
27198WAT      O81835   6.165   4.011   6.665
27198WAT     H181836   6.243   4.072   6.650
27198WAT     H281837   6.084   4.065   6.690
27199WAT      O81838   7.500   2.656   6.279
27199WAT     H181839   7.588   2.690   6.246
27199WAT     H281840   7.465   2.587   6.215
27200WAT      O81841   8.974   7.195   4.894
27200WAT     H181842   8.988   7.156   4.803
27200WAT     H281843   8.959   7.121   4.959
27201WAT      O81844   6.674   7.515   9.229
27201WAT     H181845   6.744   7.585   9.220
27201WAT     H281846   6.608   7.542   9.299
27202WAT      O81847   4.986   2.964   6.114
27202WAT     H181848   4.905   3.022   6.106
27202WAT     H281849   5.044   2.977   6.033
27203WAT      O81850   9.267   6.996   3.831
27203WAT     H181851   9.228   6.924   3.773
27203WAT     H281852   9.281   6.961   3.923
27204WAT      O81853   1.620   5.778   1.576
27204WAT     H181854   1.717   5.791   1.594
27204WAT     H281855   1.573   5.866   1.577
27205WAT      O81856   7.310   4.959   5.759
27205WAT     H181857   7.228   4.985   5.707
27205WAT     H281858   7.386   5.018   5.732
27206WAT      O81859   5.829   2.116   7.429
27206WAT     H181860   5.770   2.176   7.484
27206WAT     H281861   5.806   2.126   7.332
27207WAT      O81862   7.627   0.385   3.452
27207WAT     H181863   7.622   0.480   3.422
27207WAT     H281864   7.556   0.331   3.406
27208WAT      O81865   3.508   0.989   8.996
27208WAT     H181866   3.461   0.903   9.014
27208WAT     H281867   3.454   1.065   9.033
27209WAT      O81868   4.074   8.402   4.203
27209WAT     H181869   3.986   8.402   4.252
27209WAT     H281870   4.148   8.407   4.270
27210WAT      O81871   9.601   2.384   6.044
27210WAT     H181872   9.592   2.305   5.983
27210WAT     H281873   9.674   2.365   6.110
27211WAT      O81874   3.365   0.222   1.349
27211WAT     H181875   3.356   0.172   1.263
27211WAT     H281876   3.277   0.265   1.371
27212WAT      O81877   7.841   1.507   0.887
27212WAT     H181878   7.852   1.606   0.886
27212WAT     H281879   7.744   1.484   0.897
27213WAT      O81880   9.633   2.937   3.881
27213WAT     H181881   9.718   2.906   3.838
27213WAT     H281882   9.601   3.020   3.836
27214WAT      O81883   0.837   1.522   9.467
27214WAT     H181884   0.817   1.527   9.369
27214WAT     H281885   0.754   1.495   9.517
27215WAT      O81886   0.929   8.390   8.858
27215WAT     H181887   0.945   8.449   8.937
27215WAT     H281888   0.924   8.447   8.775
27216WAT      O81889   4.194   2.824   3.456
27216WAT     H181890   4.174   2.731   3.425
27216WAT     H281891   4.163   2.835   3.550
27217WAT      O81892   2.587   4.107   4.503
27217WAT     H181893   2.670   4.142   4.461
27217WAT     H281894   2.595   4.008   4.517
27218WAT      O81895   8.648   6.675   6.212
27218WAT     H181896   8.741   6.647   6.233
27218WAT     H281897   8.647   6.771   6.183
27219WAT      O81898   5.063   3.152   4.911
27219WAT     H181899   4.967   3.127   4.907
27219WAT     H281900   5.104   3.113   4.993
27220WAT      O81901   5.807   8.047   1.818
27220WAT     H181902   5.711   8.035   1.842
27220WAT     H281903   5.864   7.992   1.879
27221WAT      O81904   1.488   3.281   8.956
27221WAT     H181905   1.498   3.368   9.005
27221WAT     H281906   1.521   3.291   8.863
27222WAT      O81907   5.130   0.582   8.923
27222WAT     H181908   5.119   0.666   8.977
27222WAT     H281909   5.047   0.527   8.931
27223WAT      O81910   0.940   1.277   4.092
27223WAT     H181911   1.014   1.233   4.142
27223WAT     H281912   0.891   1.209   4.037
27224WAT      O81913   6.147   5.290   9.022
27224WAT     H181914   6.180   5.206   9.064
27224WAT     H281915   6.108   5.269   8.932
27225WAT      O81916   5.010   7.639   9.234
27225WAT     H181917   5.004   7.668   9.330
27225WAT     H281918   4.982   7.714   9.175
27226WAT      O81919   2.038   8.569   7.166
27226WAT     H181920   1.940   8.588   7.157
27226WAT     H281921   2.062   8.489   7.111
27227WAT      O81922   3.185   7.401   7.340
27227WAT     H181923   3.240   7.479   7.371
27227WAT     H281924   3.114   7.434   7.277
27228WAT      O81925   3.311   2.085   0.010
27228WAT     H181926   3.286   2.153   0.078
27228WAT     H281927   3.365   2.127  -0.062
27229WAT      O81928   6.779   7.355   4.889
27229WAT     H181929   6.797   7.257   4.893
27229WAT     H281930   6.686   7.370   4.855
27230WAT      O81931   0.242   3.813   6.379
27230WAT     H181932   0.243   3.910   6.357
27230WAT     H281933   0.332   3.785   6.412
27231WAT      O81934   4.963   1.220   8.790
27231WAT     H181935   4.917   1.223   8.880
27231WAT     H281936   4.924   1.146   8.736
27232WAT      O81937   9.808   4.389   3.809
27232WAT     H181938   9.745   4.320   3.846
27232WAT     H281939   9.763   4.438   3.735
27233WAT      O81940   0.764   5.756   4.386
27233WAT     H181941   0.841   5.693   4.385
27233WAT     H281942   0.737   5.777   4.291
27234WAT      O81943   9.544   9.609   5.451
27234WAT     H181944   9.532   9.512   5.474
27234WAT     H281945   9.629   9.642   5.490
27235WAT      O81946   2.283   6.394   0.059
27235WAT     H181947   2.363   6.444   0.025
27235WAT     H281948   2.312   6.323   0.122
27236WAT      O81949   4.661   7.492   2.271
27236WAT     H181950   4.628   7.463   2.181
27236WAT     H281951   4.605   7.569   2.304
27237WAT      O81952   6.848   7.901   8.538
27237WAT     H181953   6.820   7.987   8.497
27237WAT     H281954   6.785   7.829   8.511
27238WAT      O81955   4.838   9.672   1.785
27238WAT     H181956   4.759   9.712   1.830
27238WAT     H281957   4.913   9.662   1.850
27239WAT      O81958   0.970   8.589   9.040
27239WAT     H181959   0.947   8.668   9.096
27239WAT     H281960   1.035   8.615   8.969
27240WAT      O81961   3.603   8.439   1.175
27240WAT     H181962   3.675   8.381   1.211
27240WAT     H281963   3.518   8.423   1.226
27241WAT      O81964   3.749   9.098   7.278
27241WAT     H181965   3.673   9.116   7.341
27241WAT     H281966   3.835   9.126   7.322
27242WAT      O81967   1.246   2.956   7.610
27242WAT     H181968   1.147   2.963   7.600
27242WAT     H281969   1.276   2.866   7.580
27243WAT      O81970   9.732   4.619   5.329
27243WAT     H181971   9.760   4.686   5.398
27243WAT     H281972   9.772   4.530   5.351
27244WAT      O81973   0.108   9.657   0.217
27244WAT     H181974   0.013   9.634   0.236
27244WAT     H281975   0.126   9.752   0.244
27245WAT      O81976   4.100   2.281   4.841
27245WAT     H181977   4.028   2.215   4.862
27245WAT     H281978   4.073   2.372   4.873
27246WAT      O81979   8.714   3.922   3.477
27246WAT     H181980   8.709   3.822   3.481
27246WAT     H281981   8.698   3.952   3.384
27247WAT      O81982   7.044   1.803   7.491
27247WAT     H181983   7.047   1.797   7.392
27247WAT     H281984   6.955   1.841   7.519
27248WAT      O81985   4.471   9.421   3.026
27248WAT     H181986   4.372   9.431   3.019
27248WAT     H281987   4.496   9.401   3.121
27249WAT      O81988   8.598   8.855   9.540
27249WAT     H181989   8.631   8.842   9.446
27249WAT     H281990   8.636   8.941   9.576
27250WAT      O81991   3.579   1.568   0.652
27250WAT     H181992   3.542   1.475   0.654
27250WAT     H281993   3.511   1.631   0.689
27251WAT      O81994   3.425   7.671   1.156
27251WAT     H181995   3.488   7.600   1.187
27251WAT     H281996   3.394   7.724   1.235
27252WAT      O81997   9.082   5.184   5.242
27252WAT     H181998   9.178   5.172   5.265
27252WAT     H281999   9.042   5.096   5.216
27253WAT      O82000   0.318   0.339   6.878
27253WAT     H182001   0.285   0.248   6.853
27253WAT     H282002   0.391   0.367   6.815
27254WAT      O82003   5.959   8.252   2.787
27254WAT     H182004   6.049   8.233   2.827
27254WAT     H282005   5.900   8.172   2.797
27255WAT      O82006   0.425   8.253   2.932
27255WAT     H182007   0.375   8.177   2.974
27255WAT     H282008   0.364   8.332   2.923
27256WAT      O82009   2.618   7.553   1.792
27256WAT     H182010   2.580   7.481   1.735
27256WAT     H282011   2.579   7.547   1.884
27257WAT      O82012   7.453   1.793   0.069
27257WAT     H182013   7.372   1.816   0.123
27257WAT     H282014   7.425   1.744  -0.014
27258WAT      O82015   0.750   2.447   6.362
27258WAT     H182016   0.698   2.489   6.288
27258WAT     H282017   0.702   2.366   6.395
27259WAT      O82018   0.633   8.520   6.024
27259WAT     H182019   0.542   8.491   6.056
27259WAT     H282020   0.625   8.562   5.934
27260WAT      O82021   4.139   2.201   1.795
27260WAT     H182022   4.174   2.228   1.705
27260WAT     H282023   4.083   2.118   1.784
27261WAT      O82024   1.673   0.220   2.224
27261WAT     H182025   1.639   0.314   2.229
27261WAT     H282026   1.773   0.220   2.234
27262WAT      O82027   7.486   5.801   1.353
27262WAT     H182028   7.387   5.806   1.341
27262WAT     H282029   7.508   5.749   1.435
27263WAT      O82030   2.267   4.400   6.507
27263WAT     H182031   2.294   4.306   6.527
27263WAT     H282032   2.218   4.438   6.585
27264WAT      O82033   9.853   7.151   6.115
27264WAT     H182034   9.825   7.094   6.192
27264WAT     H282035   9.776   7.162   6.052
27265WAT      O82036   8.809   9.117   6.808
27265WAT     H182037   8.731   9.166   6.768
27265WAT     H282038   8.869   9.182   6.855
27266WAT      O82039   9.076   3.249   7.635
27266WAT     H182040   9.090   3.200   7.721
27266WAT     H282041   9.146   3.222   7.569
27267WAT      O82042   3.910   2.543   6.105
27267WAT     H182043   3.982   2.604   6.137
27267WAT     H282044   3.821   2.589   6.113
27268WAT      O82045   4.109   2.835   4.067
27268WAT     H182046   4.124   2.761   4.001
27268WAT     H282047   4.011   2.845   4.084
27269WAT      O82048   6.267   5.521   2.507
27269WAT     H182049   6.223   5.524   2.417
27269WAT     H282050   6.366   5.512   2.495
27270WAT      O82051   8.090   3.066   9.734
27270WAT     H182052   8.126   3.158   9.748
27270WAT     H282053   7.991   3.067   9.745
27271WAT      O82054   3.737   9.793   9.001
27271WAT     H182055   3.693   9.714   9.045
27271WAT     H282056   3.707   9.877   9.046
27272WAT      O82057   3.406   6.844   4.879
27272WAT     H182058   3.467   6.802   4.812
27272WAT     H282059   3.436   6.820   4.971
27273WAT      O82060   0.775   2.678   9.037
27273WAT     H182061   0.745   2.617   8.964
27273WAT     H282062   0.838   2.629   9.098
27274WAT      O82063   8.745   8.061   1.512
27274WAT     H182064   8.748   8.156   1.483
27274WAT     H282065   8.666   8.046   1.572
27275WAT      O82066   3.899   9.183   6.286
27275WAT     H182067   3.940   9.098   6.253
27275WAT     H282068   3.862   9.169   6.378
27276WAT      O82069   4.521   3.366   8.736
27276WAT     H182070   4.474   3.362   8.824
27276WAT     H282071   4.454   3.362   8.662
27277WAT      O82072   8.578   0.179   4.018
27277WAT     H182073   8.545   0.272   4.004
27277WAT     H282074   8.587   0.133   3.930
27278WAT      O82075   8.208   0.484   6.056
27278WAT     H182076   8.139   0.532   6.110
27278WAT     H282077   8.272   0.550   6.017
27279WAT      O82078   4.613   0.624   3.442
27279WAT     H182079   4.689   0.589   3.495
27279WAT     H282080   4.547   0.551   3.425
27280WAT      O82081   6.075   2.235   0.820
27280WAT     H182082   6.037   2.322   0.789
27280WAT     H282083   6.039   2.161   0.764
27281WAT      O82084   4.704   1.874   7.243
27281WAT     H182085   4.668   1.966   7.257
27281WAT     H282086   4.804   1.876   7.252
27282WAT      O82087   0.532   6.946   7.218
27282WAT     H182088   0.610   6.938   7.156
27282WAT     H282089   0.490   6.856   7.231
27283WAT      O82090   0.060   6.568   5.002
27283WAT     H182091   0.032   6.504   4.930
27283WAT     H282092   0.152   6.544   5.033
27284WAT      O82093   0.302   4.145   4.462
27284WAT     H182094   0.341   4.237   4.467
27284WAT     H282095   0.320   4.107   4.372
27285WAT      O82096   0.104   2.493   1.320
27285WAT     H182097   0.006   2.480   1.335
27285WAT     H282098   0.152   2.489   1.407
27286WAT      O82099   8.801   9.555   2.014
27286WAT     H182100   8.744   9.515   1.942
27286WAT     H282101   8.852   9.482   2.060
27287WAT      O82102   7.892   7.362   6.029
27287WAT     H182103   7.900   7.265   6.005
27287WAT     H282104   7.981   7.398   6.056
27288WAT      O82105   8.804   5.469   3.771
27288WAT     H182106   8.723   5.511   3.811
27288WAT     H282107   8.777   5.411   3.694
27289WAT      O82108   5.752   5.102   1.234
27289WAT     H182109   5.803   5.033   1.286
27289WAT     H282110   5.685   5.056   1.175
27290WAT      O82111   9.876   0.679   6.983
27290WAT     H182112   9.837   0.709   6.896
27290WAT     H282113   9.923   0.592   6.970
27291WAT      O82114   0.554   2.301   2.977
27291WAT     H182115   0.581   2.264   3.066
27291WAT     H282116   0.489   2.240   2.933
27292WAT      O82117   2.751   1.865   8.568
27292WAT     H182118   2.711   1.919   8.494
27292WAT     H282119   2.698   1.879   8.652
27293WAT      O82120   2.018   0.995   4.744
27293WAT     H182121   2.107   1.036   4.720
27293WAT     H282122   1.965   0.981   4.660
27294WAT      O82123   8.245   6.939   2.779
27294WAT     H182124   8.325   6.997   2.772
27294WAT     H282125   8.192   6.963   2.861
27295WAT      O82126   4.663   1.355   4.803
27295WAT     H182127   4.612   1.338   4.719
27295WAT     H282128   4.622   1.303   4.878
27296WAT      O82129   4.429   0.445   2.279
27296WAT     H182130   4.466   0.392   2.203
27296WAT     H282131   4.504   0.493   2.325
27297WAT      O82132   4.735   6.935   2.371
27297WAT     H182133   4.666   6.929   2.443
27297WAT     H282134   4.773   7.027   2.368
27298WAT      O82135   6.439   8.578   2.544
27298WAT     H182136   6.428   8.620   2.454
27298WAT     H282137   6.487   8.491   2.535
27299WAT      O82138   4.774   7.772   8.279
27299WAT     H182139   4.767   7.673   8.261
27299WAT     H282140   4.786   7.787   8.377
27300WAT      O82141   8.071   0.846   9.327
27300WAT     H182142   8.132   0.786   9.379
27300WAT     H282143   8.116   0.876   9.243
27301WAT      O82144   6.599   3.143   2.734
27301WAT     H182145   6.567   3.197   2.656
27301WAT     H282146   6.661   3.198   2.790
27302WAT      O82147   9.721   3.212   8.581
27302WAT     H182148   9.820   3.213   8.587
27302WAT     H282149   9.682   3.170   8.663
27303WAT      O82150   0.148   4.903   4.859
27303WAT     H182151   0.182   4.841   4.929
27303WAT     H282152   0.207   4.897   4.778
27304WAT      O82153   7.266   3.841   3.082
27304WAT     H182154   7.224   3.921   3.039
27304WAT     H282155   7.344   3.810   3.027
27305WAT      O82156   7.507   5.373   9.831
27305WAT     H182157   7.570   5.305   9.869
27305WAT     H282158   7.413   5.350   9.858
27306WAT      O82159   4.598   1.505   0.565
27306WAT     H182160   4.602   1.574   0.494
27306WAT     H282161   4.545   1.540   0.642
27307WAT      O82162   7.308   8.587   3.707
27307WAT     H182163   7.265   8.661   3.758
27307WAT     H282164   7.318   8.613   3.611
27308WAT      O82165   1.797   3.737   8.330
27308WAT     H182166   1.715   3.703   8.377
27308WAT     H282167   1.771   3.815   8.273
27309WAT      O82168   2.841   4.963   4.079
27309WAT     H182169   2.795   5.012   4.153
27309WAT     H282170   2.940   4.981   4.084
27310WAT      O82171   3.384   0.418   7.613
27310WAT     H182172   3.451   0.423   7.539
27310WAT     H282173   3.339   0.507   7.623
27311WAT      O82174   9.121   5.755   6.363
27311WAT     H182175   9.215   5.752   6.329
27311WAT     H282176   9.063   5.803   6.297
27312WAT      O82177   6.662   3.547   0.105
27312WAT     H182178   6.734   3.605   0.067
27312WAT     H282179   6.615   3.595   0.179
27313WAT      O82180   4.057   8.148   4.641
27313WAT     H182181   4.080   8.240   4.675
27313WAT     H282182   3.983   8.110   4.697
27314WAT      O82183   5.823   3.539   6.290
27314WAT     H182184   5.756   3.490   6.234
27314WAT     H282185   5.782   3.563   6.378
27315WAT      O82186   7.481   9.729   1.652
27315WAT     H182187   7.505   9.684   1.738
27315WAT     H282188   7.412   9.799   1.669
27316WAT      O82189   0.327   5.020   5.920
27316WAT     H182190   0.274   4.964   5.983
27316WAT     H282191   0.266   5.064   5.854
27317WAT      O82192   8.268   7.848   8.203
27317WAT     H182193   8.188   7.816   8.254
27317WAT     H282194   8.237   7.892   8.118
27318WAT      O82195   4.924   2.032   7.515
27318WAT     H182196   4.951   2.009   7.608
27318WAT     H282197   4.980   1.978   7.451
27319WAT      O82198   2.099   7.374   0.912
27319WAT     H182199   2.099   7.470   0.884
27319WAT     H282200   2.025   7.326   0.866
27320WAT      O82201   0.725   6.673   4.994
27320WAT     H182202   0.799   6.631   4.941
27320WAT     H282203   0.739   6.772   4.995
27321WAT      O82204   8.291   8.704   3.585
27321WAT     H182205   8.226   8.650   3.532
27321WAT     H282206   8.343   8.644   3.645
27322WAT      O82207   2.842   0.166   5.777
27322WAT     H182208   2.820   0.073   5.805
27322WAT     H282209   2.767   0.203   5.721
27323WAT      O82210   9.317   6.210   8.261
27323WAT     H182211   9.259   6.128   8.258
27323WAT     H282212   9.276   6.281   8.203
27324WAT      O82213   4.134   3.309   7.117
27324WAT     H182214   4.067   3.286   7.047
27324WAT     H282215   4.099   3.383   7.175
27325WAT      O82216   4.934   2.013   9.695
27325WAT     H182217   4.858   1.954   9.667
27325WAT     H282218   5.014   1.994   9.637
27326WAT      O82219   7.008   9.225   1.440
27326WAT     H182220   6.952   9.307   1.452
27326WAT     H282221   7.099   9.241   1.477
27327WAT      O82222   8.598   9.074   8.261
27327WAT     H182223   8.636   9.167   8.263
27327WAT     H282224   8.511   9.075   8.211
27328WAT      O82225   5.963   5.099   0.761
27328WAT     H182226   5.988   5.002   0.755
27328WAT     H282227   6.043   5.155   0.742
27329WAT      O82228   8.133   3.580   9.017
27329WAT     H182229   8.043   3.538   9.020
27329WAT     H282230   8.194   3.525   8.959
27330WAT      O82231   8.909   0.052   5.211
27330WAT     H182232   8.841   0.069   5.282
27330WAT     H282233   8.991   0.012   5.252
27331WAT      O82234   1.197   6.712   6.007
27331WAT     H182235   1.184   6.781   5.936
27331WAT     H282236   1.118   6.712   6.069
27332WAT      O82237   3.532   7.932   0.178
27332WAT     H182238   3.440   7.903   0.206
27332WAT     H282239   3.591   7.851   0.169
27333WAT      O82240   6.160   0.405   8.684
27333WAT     H182241   6.142   0.348   8.764
27333WAT     H282242   6.074   0.430   8.640
27334WAT      O82243   7.750   8.177   6.201
27334WAT     H182244   7.743   8.236   6.121
27334WAT     H282245   7.666   8.185   6.256
27335WAT      O82246   7.027   6.405   7.518
27335WAT     H182247   7.118   6.442   7.498
27335WAT     H282248   6.984   6.374   7.434
27336WAT      O82249   8.132   6.487   8.231
27336WAT     H182250   8.176   6.438   8.306
27336WAT     H282251   8.137   6.431   8.148
27337WAT      O82252   8.689   8.720   9.285
27337WAT     H182253   8.788   8.720   9.298
27337WAT     H282254   8.653   8.627   9.297
27338WAT      O82255   3.791   3.274   1.977
27338WAT     H182256   3.782   3.363   1.933
27338WAT     H282257   3.885   3.242   1.968
27339WAT      O82258   9.593   7.309   8.028
27339WAT     H182259   9.675   7.329   8.083
27339WAT     H282260   9.607   7.343   7.935
27340WAT      O82261   0.099   3.052   3.494
27340WAT     H182262   0.058   2.979   3.438
27340WAT     H282263   0.195   3.032   3.510
27341WAT      O82264   3.895   5.779   8.665
27341WAT     H182265   3.848   5.694   8.642
27341WAT     H282266   3.991   5.759   8.684
27342WAT      O82267   3.677   0.007   3.824
27342WAT     H182268   3.604   0.074   3.832
27342WAT     H282269   3.760   0.051   3.792
27343WAT      O82270   9.827   7.710   0.708
27343WAT     H182271   9.893   7.668   0.771
27343WAT     H282272   9.739   7.662   0.714
27344WAT      O82273   8.239   7.337   2.729
27344WAT     H182274   8.307   7.264   2.740
27344WAT     H282275   8.191   7.324   2.643
27345WAT      O82276   3.283   5.601   3.409
27345WAT     H182277   3.210   5.661   3.442
27345WAT     H282278   3.356   5.656   3.369
27346WAT      O82279   6.853   9.016   4.287
27346WAT     H182280   6.767   9.005   4.337
27346WAT     H282281   6.901   8.928   4.284
27347WAT      O82282   2.649   1.104   8.495
27347WAT     H182283   2.663   1.194   8.454
27347WAT     H282284   2.562   1.066   8.465
27348WAT      O82285   2.248   1.159   4.645
27348WAT     H182286   2.340   1.130   4.620
27348WAT     H282287   2.199   1.191   4.564
27349WAT      O82288   2.836   6.443   8.015
27349WAT     H182289   2.933   6.465   8.024
27349WAT     H282290   2.791   6.512   7.959
27350WAT      O82291   4.563   1.331   4.549
27350WAT     H182292   4.566   1.247   4.494
27350WAT     H282293   4.490   1.390   4.515
27351WAT      O82294   3.814   9.208   8.841
27351WAT     H182295   3.882   9.271   8.877
27351WAT     H282296   3.792   9.140   8.911
27352WAT      O82297   3.495   7.862   8.713
27352WAT     H182298   3.421   7.814   8.760
27352WAT     H282299   3.477   7.862   8.614
27353WAT      O82300   2.238   3.917   8.278
27353WAT     H182301   2.171   3.844   8.267
27353WAT     H282302   2.271   3.946   8.188
27354WAT      O82303   5.150   9.172   4.408
27354WAT     H182304   5.180   9.158   4.313
27354WAT     H282305   5.055   9.144   4.417
27355WAT      O82306   3.503   5.204   7.046
27355WAT     H182307   3.483   5.292   7.089
27355WAT     H282308   3.581   5.214   6.984
27356WAT      O82309   3.024   6.084   2.817
27356WAT     H182310   2.938   6.075   2.867
27356WAT     H282311   3.006   6.075   2.719
27357WAT      O82312   0.611   7.730   3.416
27357WAT     H182313   0.679   7.733   3.343
27357WAT     H282314   0.630   7.803   3.481
27358WAT      O82315   1.801   7.333   6.780
27358WAT     H182316   1.773   7.241   6.804
27358WAT     H282317   1.742   7.368   6.706
27359WAT      O82318   7.176   6.763   6.131
27359WAT     H182319   7.249   6.815   6.087
27359WAT     H282320   7.197   6.665   6.127
27360WAT      O82321   3.013   9.394   6.407
27360WAT     H182322   3.033   9.403   6.505
27360WAT     H282323   2.921   9.430   6.388
27361WAT      O82324   6.393   7.949   2.962
27361WAT     H182325   6.431   8.017   2.899
27361WAT     H282326   6.409   7.978   3.056
27362WAT      O82327   7.664   7.159   2.577
27362WAT     H182328   7.680   7.092   2.649
27362WAT     H282329   7.666   7.113   2.488
27363WAT      O82330   6.177   4.733   6.318
27363WAT     H182331   6.118   4.807   6.285
27363WAT     H282332   6.130   4.646   6.310
27364WAT      O82333   2.489   8.749   6.946
27364WAT     H182334   2.466   8.787   6.856
27364WAT     H282335   2.482   8.821   7.014
27365WAT      O82336   2.809   1.308   3.517
27365WAT     H182337   2.833   1.377   3.449
27365WAT     H282338   2.710   1.295   3.517
27366WAT      O82339   1.716   5.952   2.777
27366WAT     H182340   1.807   5.911   2.791
27366WAT     H282341   1.670   5.961   2.865
27367WAT      O82342   1.206   1.250   0.121
27367WAT     H182343   1.130   1.222   0.180
27367WAT     H282344   1.206   1.195   0.038
27368WAT      O82345   0.217   0.876   6.007
27368WAT     H182346   0.160   0.925   6.073
27368WAT     H282347   0.169   0.794   5.976
27369WAT      O82348   0.012   8.457   1.063
27369WAT     H182349  -0.043   8.420   0.988
27369WAT     H282350   0.103   8.481   1.028
27370WAT      O82351   4.899   0.321   9.189
27370WAT     H182352   4.859   0.287   9.274
27370WAT     H282353   4.841   0.393   9.151
27371WAT      O82354   7.663   8.163   6.747
27371WAT     H182355   7.751   8.132   6.713
27371WAT     H282356   7.651   8.260   6.726
27372WAT      O82357   7.243   3.272   2.669
27372WAT     H182358   7.187   3.345   2.629
27372WAT     H282359   7.325   3.259   2.614
27373WAT      O82360   7.890   4.135   5.325
27373WAT     H182361   7.923   4.200   5.257
27373WAT     H282362   7.966   4.106   5.383
27374WAT      O82363   8.037   2.553   0.493
27374WAT     H182364   8.117   2.520   0.543
27374WAT     H282365   7.956   2.504   0.525
27375WAT      O82366   5.845   1.097   1.670
27375WAT     H182367   5.927   1.109   1.727
27375WAT     H282368   5.838   1.001   1.642
27376WAT      O82369   0.181   1.162   7.094
27376WAT     H182370   0.147   1.256   7.093
27376WAT     H282371   0.256   1.153   7.029
27377WAT      O82372   3.628   7.056   4.428
27377WAT     H182373   3.709   7.078   4.482
27377WAT     H282374   3.564   7.132   4.430
27378WAT      O82375   9.785   4.471   9.140
27378WAT     H182376   9.848   4.476   9.062
27378WAT     H282377   9.724   4.550   9.139
27379WAT      O82378   7.434   0.142   6.528
27379WAT     H182379   7.471   0.059   6.571
27379WAT     H282380   7.394   0.201   6.598
27380WAT      O82381   7.112   1.764   0.486
27380WAT     H182382   7.111   1.827   0.564
27380WAT     H282383   7.164   1.682   0.510
27381WAT      O82384   9.880   0.412   8.449
27381WAT     H182385   9.884   0.329   8.393
27381WAT     H282386   9.811   0.400   8.521
27382WAT      O82387   5.436   3.234   6.929
27382WAT     H182388   5.407   3.279   6.844
27382WAT     H282389   5.529   3.200   6.919
27383WAT      O82390   6.052   9.125   3.126
27383WAT     H182391   5.996   9.042   3.128
27383WAT     H282392   6.129   9.114   3.189
27384WAT      O82393   2.435   6.262   0.897
27384WAT     H182394   2.448   6.315   0.981
27384WAT     H282395   2.476   6.172   0.907
27385WAT      O82396   2.536   9.021   0.298
27385WAT     H182397   2.634   9.006   0.291
27385WAT     H282398   2.494   8.947   0.351
27386WAT      O82399   0.845   1.983   3.797
27386WAT     H182400   0.903   1.918   3.845
27386WAT     H282401   0.844   2.070   3.846
27387WAT      O82402   3.647   8.758   8.943
27387WAT     H182403   3.663   8.666   8.978
27387WAT     H282404   3.576   8.755   8.872
27388WAT      O82405   3.261   5.901   7.462
27388WAT     H182406   3.207   5.853   7.393
27388WAT     H282407   3.358   5.891   7.442
27389WAT      O82408   2.606   0.101   4.846
27389WAT     H182409   2.563   0.156   4.774
27389WAT     H282410   2.632   0.012   4.808
27390WAT      O82411   1.121   8.190   4.417
27390WAT     H182412   1.141   8.095   4.394
27390WAT     H282413   1.204   8.234   4.450
27391WAT      O82414   2.324   3.743   5.876
27391WAT     H182415   2.386   3.767   5.802
27391WAT     H282416   2.345   3.799   5.956
27392WAT      O82417   9.501   5.133   5.170
27392WAT     H182418   9.438   5.071   5.123
27392WAT     H282419   9.484   5.226   5.140
27393WAT      O82420   8.522   2.209   1.455
27393WAT     H182421   8.469   2.263   1.390
27393WAT     H282422   8.619   2.213   1.431
27394WAT      O82423   7.735   9.781   1.837
27394WAT     H182424   7.821   9.753   1.879
27394WAT     H282425   7.729   9.743   1.745
27395WAT      O82426   2.999   5.414   5.208
27395WAT     H182427   2.956   5.435   5.120
27395WAT     H282428   2.981   5.489   5.272
27396WAT      O82429   7.969   7.804   0.335
27396WAT     H182430   8.045   7.801   0.400
27396WAT     H282431   7.955   7.714   0.295
27397WAT      O82432   5.994   1.577   3.525
27397WAT     H182433   6.071   1.621   3.478
27397WAT     H282434   5.909   1.621   3.498
27398WAT      O82435   1.233   9.066   2.883
27398WAT     H182436   1.215   9.124   2.962
27398WAT     H282437   1.171   8.987   2.885
27399WAT      O82438   4.514   2.517   2.076
27399WAT     H182439   4.549   2.492   1.985
27399WAT     H282440   4.415   2.502   2.079
27400WAT      O82441   7.886   4.531   1.395
27400WAT     H182442   7.872   4.544   1.493
27400WAT     H282443   7.804   4.560   1.345
27401WAT      O82444   1.422   1.374   8.655
27401WAT     H182445   1.513   1.361   8.615
27401WAT     H282446   1.395   1.470   8.646
27402WAT      O82447   6.629   0.875   2.956
27402WAT     H182448   6.634   0.912   2.864
27402WAT     H282449   6.542   0.901   2.998
27403WAT      O82450   1.180   5.810   2.869
27403WAT     H182451   1.214   5.902   2.850
27403WAT     H282452   1.243   5.742   2.830
27404WAT      O82453   0.599   9.508   0.991
27404WAT     H182454   0.694   9.497   1.020
27404WAT     H282455   0.590   9.488   0.894
27405WAT      O82456   7.263   9.274   9.535
27405WAT     H182457   7.297   9.314   9.450
27405WAT     H282458   7.237   9.179   9.520
27406WAT      O82459   3.159   6.751   5.549
27406WAT     H182460   3.158   6.666   5.602
27406WAT     H282461   3.212   6.737   5.465
27407WAT      O82462   4.953   5.668   7.939
27407WAT     H182463   5.005   5.753   7.934
27407WAT     H282464   5.015   5.590   7.943
27408WAT      O82465   0.530   6.239   6.266
27408WAT     H182466   0.607   6.198   6.314
27408WAT     H282467   0.493   6.174   6.200
27409WAT      O82468   2.842   4.829   0.850
27409WAT     H182469   2.803   4.777   0.926
27409WAT     H282470   2.937   4.851   0.869
27410WAT      O82471   9.514   7.926   6.793
27410WAT     H182472   9.435   7.919   6.854
27410WAT     H282473   9.598   7.914   6.846
27411WAT      O82474   4.487   0.379   3.367
27411WAT     H182475   4.556   0.319   3.407
27411WAT     H282476   4.487   0.368   3.267
27412WAT      O82477   0.272   9.186   2.311
27412WAT     H182478   0.204   9.192   2.238
27412WAT     H282479   0.233   9.223   2.395
27413WAT      O82480   2.967   2.555   9.252
27413WAT     H182481   3.041   2.585   9.192
27413WAT     H282482   2.942   2.461   9.230
27414WAT      O82483   3.491   0.671   8.330
27414WAT     H182484   3.412   0.719   8.368
27414WAT     H282485   3.531   0.725   8.256
27415WAT      O82486   8.186   5.693   7.714
27415WAT     H182487   8.146   5.602   7.725
27415WAT     H282488   8.165   5.728   7.623
27416WAT      O82489   4.606   3.540   9.384
27416WAT     H182490   4.691   3.591   9.372
27416WAT     H282491   4.548   3.552   9.303
27417WAT      O82492   3.380   3.814   8.169
27417WAT     H182493   3.460   3.755   8.179
27417WAT     H282494   3.303   3.761   8.136
27418WAT      O82495   4.262   2.396   4.653
27418WAT     H182496   4.294   2.339   4.578
27418WAT     H282497   4.199   2.342   4.711
27419WAT      O82498   5.727   9.586   0.180
27419WAT     H182499   5.663   9.663   0.183
27419WAT     H282500   5.815   9.615   0.217
27420WAT      O82501   2.026   0.109   7.568
27420WAT     H182502   2.108   0.118   7.625
27420WAT     H282503   1.955   0.170   7.603
27421WAT      O82504   0.215   3.838   7.405
27421WAT     H182505   0.195   3.887   7.490
27421WAT     H282506   0.146   3.768   7.389
27422WAT      O82507   5.037   2.881   0.120
27422WAT     H182508   5.053   2.798   0.173
27422WAT     H282509   5.106   2.950   0.145
27423WAT      O82510   7.171   1.041   4.177
27423WAT     H182511   7.113   1.112   4.137
27423WAT     H282512   7.266   1.073   4.181
27424WAT      O82513   2.612   1.766   3.463
27424WAT     H182514   2.683   1.774   3.532
27424WAT     H282515   2.590   1.670   3.447
27425WAT      O82516   4.061   5.811   2.115
27425WAT     H182517   4.114   5.758   2.049
27425WAT     H282518   3.966   5.779   2.116
27426WAT      O82519   4.859   1.294   3.498
27426WAT     H182520   4.782   1.233   3.518
27426WAT     H282521   4.918   1.252   3.430
27427WAT      O82522   3.637   3.312   6.585
27427WAT     H182523   3.722   3.272   6.620
27427WAT     H282524   3.614   3.268   6.498
27428WAT      O82525   2.824   9.184   3.700
27428WAT     H182526   2.837   9.114   3.770
27428WAT     H282527   2.870   9.268   3.729
27429WAT      O82528   8.304   7.948   6.717
27429WAT     H182529   8.355   7.939   6.631
27429WAT     H282530   8.245   7.869   6.729
27430WAT      O82531   7.561   6.007   3.572
27430WAT     H182532   7.658   5.984   3.588
27430WAT     H282533   7.528   6.062   3.648
27431WAT      O82534   4.284   9.310   6.969
27431WAT     H182535   4.377   9.301   7.004
27431WAT     H282536   4.229   9.363   7.033
27432WAT      O82537   3.771   7.895   7.186
27432WAT     H182538   3.714   7.827   7.139
27432WAT     H282539   3.765   7.982   7.138
27433WAT      O82540   7.014   8.863   1.779
27433WAT     H182541   6.921   8.848   1.812
27433WAT     H282542   7.029   8.961   1.765
27434WAT      O82543   9.314   4.304   5.158
27434WAT     H182544   9.252   4.240   5.204
27434WAT     H282545   9.342   4.267   5.070
27435WAT      O82546   9.492   1.588   3.772
27435WAT     H182547   9.509   1.687   3.766
27435WAT     H282548   9.573   1.539   3.739
27436WAT      O82549   7.658   6.102   1.051
27436WAT     H182550   7.663   6.037   1.127
27436WAT     H282551   7.726   6.174   1.065
27437WAT      O82552   0.573   8.682   2.152
27437WAT     H182553   0.578   8.717   2.059
27437WAT     H282554   0.592   8.584   2.153
27438WAT      O82555   3.721   8.124   1.853
27438WAT     H182556   3.645   8.123   1.918
27438WAT     H282557   3.781   8.202   1.872
27439WAT      O82558   9.093   0.253   5.434
27439WAT     H182559   9.056   0.175   5.485
27439WAT     H282560   9.169   0.221   5.376
27440WAT      O82561   5.012   0.233   8.065
27440WAT     H182562   4.986   0.150   8.114
27440WAT     H282563   5.103   0.221   8.026
27441WAT      O82564   4.514   6.645   0.904
27441WAT     H182565   4.534   6.672   0.998
27441WAT     H282566   4.504   6.726   0.847
27442WAT      O82567   2.126   3.114   8.275
27442WAT     H182568   2.057   3.047   8.302
27442WAT     H282569   2.160   3.161   8.356
27443WAT      O82570   0.895   4.157   6.119
27443WAT     H182571   0.820   4.220   6.137
27443WAT     H282572   0.920   4.162   6.022
27444WAT      O82573   7.837   9.278   1.071
27444WAT     H182574   7.815   9.372   1.098
27444WAT     H282575   7.782   9.252   0.992
27445WAT      O82576   2.050   8.440   6.042
27445WAT     H182577   2.095   8.367   6.094
27445WAT     H282578   2.002   8.501   6.105
27446WAT      O82579   0.462   2.060   9.401
27446WAT     H182580   0.464   1.960   9.405
27446WAT     H282581   0.414   2.095   9.481
27447WAT      O82582   2.065   4.394   2.976
27447WAT     H182583   2.156   4.436   2.977
27447WAT     H282584   2.072   4.303   2.936
27448WAT      O82585   3.503   1.373   4.174
27448WAT     H182586   3.512   1.422   4.087
27448WAT     H282587   3.431   1.305   4.167
27449WAT      O82588   2.534   7.979   8.418
27449WAT     H182589   2.474   7.899   8.408
27449WAT     H282590   2.596   7.983   8.339
27450WAT      O82591   0.598   1.050   8.139
27450WAT     H182592   0.676   1.055   8.076
27450WAT     H282593   0.537   0.976   8.111
27451WAT      O82594   2.019   9.030   9.398
27451WAT     H182595   2.058   9.001   9.485
27451WAT     H282596   1.943   8.970   9.374
27452WAT      O82597   3.220   8.744   8.271
27452WAT     H182598   3.303   8.688   8.268
27452WAT     H282599   3.188   8.762   8.178
27453WAT      O82600   1.375   5.859   0.860
27453WAT     H182601   1.340   5.945   0.822
27453WAT     H282602   1.418   5.806   0.788
27454WAT      O82603   9.699   3.563   2.710
27454WAT     H182604   9.783   3.606   2.676
27454WAT     H282605   9.704   3.554   2.810
27455WAT      O82606   6.024   0.660   7.064
27455WAT     H182607   5.932   0.684   7.097
27455WAT     H282608   6.031   0.682   6.967
27456WAT      O82609   8.934   2.952   5.660
27456WAT     H182610   9.025   2.924   5.632
27456WAT     H282611   8.933   2.970   5.758
27457WAT      O82612   7.396   8.274   1.760
27457WAT     H182613   7.454   8.353   1.782
27457WAT     H282614   7.306   8.287   1.801
27458WAT      O82615   7.289   2.966   4.585
27458WAT     H182616   7.259   2.871   4.582
27458WAT     H282617   7.389   2.969   4.585
27459WAT      O82618   5.659   9.198   8.882
27459WAT     H182619   5.617   9.231   8.966
27459WAT     H282620   5.604   9.123   8.844
27460WAT      O82621   2.909   2.219   5.822
27460WAT     H182622   2.832   2.215   5.886
27460WAT     H282623   2.936   2.314   5.808
27461WAT      O82624   7.654   4.081   7.263
27461WAT     H182625   7.678   4.162   7.317
27461WAT     H282626   7.638   4.004   7.325
27462WAT      O82627   1.940   8.406   8.474
27462WAT     H182628   1.852   8.371   8.504
27462WAT     H282629   1.926   8.482   8.410
27463WAT      O82630   2.759   4.077   6.902
27463WAT     H182631   2.762   4.022   6.819
27463WAT     H282632   2.704   4.031   6.972
27464WAT      O82633   9.463   7.896   1.857
27464WAT     H182634   9.544   7.865   1.806
27464WAT     H282635   9.401   7.818   1.872
27465WAT      O82636   5.941   5.836   2.992
27465WAT     H182637   5.866   5.867   2.934
27465WAT     H282638   5.919   5.852   3.088
27466WAT      O82639   1.462   9.353   7.870
27466WAT     H182640   1.553   9.344   7.830
27466WAT     H282641   1.441   9.450   7.882
27467WAT      O82642   7.880   6.742   2.307
27467WAT     H182643   7.957   6.756   2.244
27467WAT     H282644   7.913   6.707   2.394
27468WAT      O82645   8.191   5.251   0.958
27468WAT     H182646   8.275   5.271   1.009
27468WAT     H282647   8.149   5.337   0.930
27469WAT      O82648   4.790   9.338   4.774
27469WAT     H182649   4.767   9.369   4.682
27469WAT     H282650   4.872   9.386   4.806
27470WAT      O82651   8.060   8.330   7.889
27470WAT     H182652   8.104   8.392   7.824
27470WAT     H282653   8.122   8.314   7.967
27471WAT      O82654   1.226   9.678   1.041
27471WAT     H182655   1.310   9.652   0.994
27471WAT     H282656   1.171   9.735   0.981
27472WAT      O82657   1.150   4.041   6.577
27472WAT     H182658   1.138   4.073   6.483
27472WAT     H282659   1.080   4.083   6.635
27473WAT      O82660   7.392   6.520   2.862
27473WAT     H182661   7.313   6.550   2.807
27473WAT     H282662   7.396   6.573   2.946
27474WAT      O82663   3.781   5.107   9.209
27474WAT     H182664   3.773   5.029   9.271
27474WAT     H282665   3.855   5.092   9.144
27475WAT      O82666   4.832   4.047   7.097
27475WAT     H182667   4.756   3.996   7.136
27475WAT     H282668   4.820   4.145   7.116
27476WAT      O82669   7.542   3.175   8.826
27476WAT     H182670   7.472   3.245   8.813
27476WAT     H282671   7.598   3.168   8.744
27477WAT      O82672   4.659   8.727   3.029
27477WAT     H182673   4.601   8.646   3.029
27477WAT     H282674   4.685   8.750   2.935
27478WAT      O82675   6.853   1.524   7.943
27478WAT     H182676   6.873   1.490   8.035
27478WAT     H282677   6.806   1.454   7.890
27479WAT      O82678   9.417   6.181   3.476
27479WAT     H182679   9.402   6.180   3.575
27479WAT     H282680   9.514   6.167   3.457
27480WAT      O82681   2.588   1.681   5.260
27480WAT     H182682   2.544   1.592   5.268
27480WAT     H282683   2.572   1.718   5.168
27481WAT      O82684   7.174   3.731   4.128
27481WAT     H182685   7.195   3.706   4.034
27481WAT     H282686   7.081   3.701   4.151
27482WAT      O82687   2.896   0.749   8.975
27482WAT     H182688   2.863   0.693   9.050
27482WAT     H282689   2.975   0.803   9.006
27483WAT      O82690   2.180   6.474   7.800
27483WAT     H182691   2.278   6.479   7.783
27483WAT     H282692   2.158   6.523   7.885
27484WAT      O82693   2.025   8.744   2.260
27484WAT     H182694   2.076   8.787   2.186
27484WAT     H282695   1.999   8.652   2.232
27485WAT      O82696   3.259   7.006   2.703
27485WAT     H182697   3.189   7.077   2.691
27485WAT     H282698   3.300   6.985   2.614
27486WAT      O82699   8.978   0.584   6.555
27486WAT     H182700   9.029   0.498   6.550
27486WAT     H282701   8.923   0.594   6.472
27487WAT      O82702   2.986   2.907   7.921
27487WAT     H182703   3.013   3.003   7.915
27487WAT     H282704   2.895   2.900   7.963
27488WAT      O82705   1.396   9.649   3.239
27488WAT     H182706   1.482   9.668   3.191
27488WAT     H282707   1.358   9.735   3.275
27489WAT      O82708   5.410   4.545   2.319
27489WAT     H182709   5.367   4.473   2.265
27489WAT     H282710   5.439   4.508   2.407
27490WAT      O82711   6.363   2.834   2.613
27490WAT     H182712   6.337   2.775   2.690
27490WAT     H282713   6.461   2.826   2.597
27491WAT      O82714   4.017   6.482   5.584
27491WAT     H182715   3.924   6.476   5.546
27491WAT     H282716   4.011   6.505   5.681
27492WAT      O82717   2.961   4.997   4.439
27492WAT     H182718   3.044   4.956   4.401
27492WAT     H282719   2.902   5.028   4.364
27493WAT      O82720   0.886   0.904   2.349
27493WAT     H182721   0.929   0.843   2.416
27493WAT     H282722   0.901   0.868   2.257
27494WAT      O82723   4.554   5.927   7.373
27494WAT     H182724   4.507   6.009   7.340
27494WAT     H282725   4.509   5.893   7.455
27495WAT      O82726   0.536   7.453   6.962
27495WAT     H182727   0.594   7.448   7.043
27495WAT     H282728   0.443   7.423   6.986
27496WAT      O82729   5.803   6.717   2.892
27496WAT     H182730   5.735   6.675   2.951
27496WAT     H282731   5.768   6.805   2.858
27497WAT      O82732   2.527   8.788   3.490
27497WAT     H182733   2.575   8.876   3.491
27497WAT     H282734   2.594   8.714   3.481
27498WAT      O82735   4.893   8.467   4.568
27498WAT     H182736   4.991   8.458   4.550
27498WAT     H282737   4.847   8.382   4.541
27499WAT      O82738   8.169   6.049   2.990
27499WAT     H182739   8.208   6.028   3.079
27499WAT     H282740   8.166   5.965   2.935
27500WAT      O82741   4.579   9.662   5.216
27500WAT     H182742   4.573   9.625   5.123
27500WAT     H282743   4.616   9.591   5.277
27501WAT      O82744   9.629   4.391   7.736
27501WAT     H182745   9.582   4.321   7.790
27501WAT     H282746   9.707   4.350   7.690
27502WAT      O82747   7.765   7.182   9.435
27502WAT     H182748   7.808   7.124   9.365
27502WAT     H282749   7.688   7.231   9.394
27503WAT      O82750   5.727   2.148   3.929
27503WAT     H182751   5.683   2.183   3.846
27503WAT     H282752   5.690   2.058   3.950
27504WAT      O82753   3.950   5.440   0.439
27504WAT     H182754   3.890   5.384   0.494
27504WAT     H282755   4.037   5.454   0.487
27505WAT      O82756   8.260   4.344   4.177
27505WAT     H182757   8.199   4.407   4.225
27505WAT     H282758   8.285   4.382   4.088
27506WAT      O82759   7.723   4.564   9.197
27506WAT     H182760   7.717   4.503   9.118
27506WAT     H282761   7.663   4.529   9.270
27507WAT      O82762   2.588   8.421   8.019
27507WAT     H182763   2.665   8.375   8.065
27507WAT     H282764   2.503   8.376   8.044
27508WAT      O82765   1.874   7.442   2.264
27508WAT     H182766   1.810   7.497   2.318
27508WAT     H282767   1.824   7.371   2.214
27509WAT      O82768   3.215   6.391   5.226
27509WAT     H182769   3.311   6.417   5.220
27509WAT     H282770   3.206   6.305   5.275
27510WAT      O82771   3.128   1.923   4.055
27510WAT     H182772   3.061   1.939   4.127
27510WAT     H282773   3.082   1.884   3.975
27511WAT      O82774   9.191   1.551   4.847
27511WAT     H182775   9.228   1.486   4.914
27511WAT     H282776   9.261   1.617   4.822
27512WAT      O82777   5.121   7.587   1.254
27512WAT     H182778   5.143   7.661   1.190
27512WAT     H282779   5.148   7.614   1.347
27513WAT      O82780   0.291   4.306   9.191
27513WAT     H182781   0.373   4.250   9.209
27513WAT     H282782   0.219   4.248   9.155
27514WAT      O82783   1.191   2.333   3.529
27514WAT     H182784   1.272   2.278   3.507
27514WAT     H282785   1.154   2.304   3.617
27515WAT      O82786   6.906   3.834   4.598
27515WAT     H182787   6.974   3.772   4.559
27515WAT     H282788   6.930   3.928   4.575
27516WAT      O82789   0.627   3.503   3.108
27516WAT     H182790   0.722   3.505   3.138
27516WAT     H282791   0.593   3.596   3.100
27517WAT      O82792   1.998   6.908   0.975
27517WAT     H182793   2.073   6.974   0.973
27517WAT     H282794   1.970   6.892   1.070
27518WAT      O82795   7.120   7.286   7.442
27518WAT     H182796   7.206   7.270   7.392
27518WAT     H282797   7.096   7.203   7.493
27519WAT      O82798   4.125   4.815   7.912
27519WAT     H182799   4.056   4.786   7.978
27519WAT     H282800   4.191   4.742   7.898
27520WAT      O82801   7.785   1.154   2.888
27520WAT     H182802   7.792   1.082   2.819
27520WAT     H282803   7.829   1.124   2.972
27521WAT      O82804   4.708   8.656   6.928
27521WAT     H182805   4.645   8.590   6.967
27521WAT     H282806   4.699   8.743   6.976
27522WAT      O82807   1.722   0.310   4.965
27522WAT     H182808   1.709   0.403   4.930
27522WAT     H282809   1.788   0.262   4.907
27523WAT      O82810   7.228   2.634   3.008
27523WAT     H182811   7.306   2.599   2.956
27523WAT     H282812   7.261   2.700   3.076
27524WAT      O82813   8.812   4.160   8.839
27524WAT     H182814   8.849   4.252   8.840
27524WAT     H282815   8.740   4.152   8.908
27525WAT      O82816   4.457   2.577   4.525
27525WAT     H182817   4.462   2.528   4.438
27525WAT     H282818   4.459   2.513   4.601
27526WAT      O82819   7.455   2.789   0.520
27526WAT     H182820   7.432   2.746   0.433
27526WAT     H282821   7.380   2.849   0.548
27527WAT      O82822   9.467   5.489   7.048
27527WAT     H182823   9.488   5.439   7.132
27527WAT     H282824   9.369   5.505   7.042
27528WAT      O82825   4.043   6.658   3.224
27528WAT     H182826   4.015   6.590   3.292
27528WAT     H282827   4.001   6.746   3.246
27529WAT      O82828   8.306   5.414   6.061
27529WAT     H182829   8.245   5.478   6.108
27529WAT     H282830   8.324   5.447   5.968
27530WAT      O82831   9.666   1.236   3.778
27530WAT     H182832   9.688   1.228   3.875
27530WAT     H282833   9.610   1.157   3.751
27531WAT      O82834   6.834   8.020   1.478
27531WAT     H182835   6.929   8.028   1.447
27531WAT     H282836   6.829   7.956   1.555
27532WAT      O82837   1.590   4.374   9.377
27532WAT     H182838   1.575   4.463   9.420
27532WAT     H282839   1.523   4.309   9.411
27533WAT      O82840   4.646   9.176   3.783
27533WAT     H182841   4.627   9.258   3.836
27533WAT     H282842   4.628   9.193   3.686
27534WAT      O82843   1.293   4.151   4.703
27534WAT     H182844   1.304   4.241   4.661
27534WAT     H282845   1.374   4.130   4.757
27535WAT      O82846   7.759   2.233   7.239
27535WAT     H182847   7.779   2.284   7.323
27535WAT     H282848   7.736   2.297   7.166
27536WAT      O82849   1.710   2.683   9.273
27536WAT     H182850   1.650   2.690   9.353
27536WAT     H282851   1.805   2.675   9.303
27537WAT      O82852   2.545   2.036   5.973
27537WAT     H182853   2.494   1.970   5.917
27537WAT     H282854   2.548   2.003   6.067
27538WAT      O82855   9.852   6.470   3.454
27538WAT     H182856   9.823   6.533   3.526
27538WAT     H282857   9.940   6.502   3.417
27539WAT      O82858   6.320   2.146   6.939
27539WAT     H182859   6.403   2.109   6.982
27539WAT     H282860   6.305   2.102   6.851
27540WAT      O82861   2.994   7.080   1.049
27540WAT     H182862   3.057   7.141   1.000
27540WAT     H282863   2.988   6.993   1.000
27541WAT      O82864   0.469   6.866   0.485
27541WAT     H182865   0.384   6.916   0.502
27541WAT     H282866   0.468   6.828   0.393
27542WAT      O82867   6.658   9.321   6.876
27542WAT     H182868   6.637   9.226   6.854
27542WAT     H282869   6.648   9.335   6.974
27543WAT      O82870   9.864   5.428   0.462
27543WAT     H182871   9.782   5.450   0.514
27543WAT     H282872   9.854   5.459   0.368
27544WAT      O82873   1.787   2.496   0.928
27544WAT     H182874   1.732   2.567   0.884
27544WAT     H282875   1.787   2.414   0.871
27545WAT      O82876   5.252   7.358   7.863
27545WAT     H182877   5.321   7.378   7.934
27545WAT     H282878   5.168   7.407   7.885
27546WAT      O82879   7.682   4.905   2.728
27546WAT     H182880   7.772   4.887   2.689
27546WAT     H282881   7.667   4.845   2.807
27547WAT      O82882   8.520   3.207   3.518
27547WAT     H182883   8.562   3.220   3.607
27547WAT     H282884   8.429   3.168   3.529
27548WAT      O82885   8.984   5.725   3.838
27548WAT     H182886   8.922   5.674   3.779
27548WAT     H282887   8.933   5.798   3.884
27549WAT      O82888   1.063   1.835   2.574
27549WAT     H182889   1.021   1.749   2.604
27549WAT     H282890   1.130   1.865   2.642
27550WAT      O82891   7.429   9.150   0.907
27550WAT     H182892   7.342   9.137   0.859
27550WAT     H282893   7.460   9.062   0.942
27551WAT      O82894   6.039   3.671   9.446
27551WAT     H182895   6.119   3.619   9.415
27551WAT     H282896   5.956   3.623   9.421
27552WAT      O82897   4.762   6.802   6.633
27552WAT     H182898   4.739   6.820   6.537
27552WAT     H282899   4.682   6.768   6.681
27553WAT      O82900   3.327   2.511   7.840
27553WAT     H182901   3.387   2.459   7.900
27553WAT     H282902   3.272   2.574   7.895
27554WAT      O82903   4.689   7.105   7.916
27554WAT     H182904   4.694   7.117   7.817
27554WAT     H282905   4.661   7.011   7.936
27555WAT      O82906   1.831   6.169   5.620
27555WAT     H182907   1.744   6.198   5.581
27555WAT     H282908   1.843   6.211   5.710
27556WAT      O82909   8.200   6.031   0.219
27556WAT     H182910   8.165   6.116   0.259
27556WAT     H282911   8.220   6.046   0.122
27557WAT      O82912   6.293   8.799   4.117
27557WAT     H182913   6.220   8.803   4.049
27557WAT     H282914   6.356   8.725   4.093
27558WAT      O82915   0.826   8.188   1.240
27558WAT     H182916   0.845   8.211   1.145
27558WAT     H282917   0.790   8.095   1.245
27559WAT      O82918   0.070   0.074   9.673
27559WAT     H182919   0.010   0.100   9.749
27559WAT     H282920   0.060  -0.024   9.655
27560WAT      O82921   2.794   0.748   9.461
27560WAT     H182922   2.888   0.715   9.450
27560WAT     H282923   2.756   0.771   9.371
27561WAT      O82924   2.232   1.516   7.959
27561WAT     H182925   2.277   1.427   7.951
27561WAT     H282926   2.227   1.559   7.869
27562WAT      O82927   3.937   1.026   3.958
27562WAT     H182928   3.973   1.118   3.964
27562WAT     H282929   3.855   1.018   4.016
27563WAT      O82930   7.475   3.456   7.367
27563WAT     H182931   7.441   3.362   7.357
27563WAT     H282932   7.459   3.507   7.283
27564WAT      O82933   6.549   6.150   1.909
27564WAT     H182934   6.644   6.174   1.890
27564WAT     H282935   6.527   6.063   1.866
27565WAT      O82936   0.090   0.204   3.202
27565WAT     H182937   0.114   0.262   3.280
27565WAT     H282938   0.001   0.161   3.219
27566WAT      O82939   4.997   1.015   9.613
27566WAT     H182940   4.995   1.024   9.713
27566WAT     H282941   5.074   1.068   9.576
27567WAT      O82942   3.569   2.258   2.286
27567WAT     H182943   3.528   2.349   2.290
27567WAT     H282944   3.511   2.198   2.231
27568WAT      O82945   7.842   3.859   6.898
27568WAT     H182946   7.749   3.825   6.915
27568WAT     H282947   7.840   3.959   6.894
27569WAT      O82948   8.240   1.915   4.051
27569WAT     H182949   8.268   1.824   4.080
27569WAT     H282950   8.290   1.984   4.104
27570WAT      O82951   0.279   6.387   5.774
27570WAT     H182952   0.338   6.420   5.701
27570WAT     H282953   0.185   6.380   5.741
27571WAT      O82954   9.790   6.414   2.696
27571WAT     H182955   9.782   6.375   2.788
27571WAT     H282956   9.854   6.359   2.642
27572WAT      O82957   8.368   1.236   4.806
27572WAT     H182958   8.399   1.328   4.783
27572WAT     H282959   8.290   1.211   4.748
27573WAT      O82960   7.213   4.914   7.139
27573WAT     H182961   7.309   4.884   7.131
27573WAT     H282962   7.194   4.937   7.235
27574WAT      O82963   9.382   0.597   2.307
27574WAT     H182964   9.317   0.673   2.298
27574WAT     H282965   9.353   0.536   2.381
27575WAT      O82966   0.341   8.654   4.061
27575WAT     H182967   0.430   8.613   4.078
27575WAT     H282968   0.285   8.648   4.144
27576WAT      O82969   8.320   4.834   2.902
27576WAT     H182970   8.242   4.817   2.841
27576WAT     H282971   8.402   4.793   2.863
27577WAT      O82972   2.877   6.491   1.552
27577WAT     H182973   2.803   6.425   1.564
27577WAT     H282974   2.915   6.482   1.460
27578WAT      O82975   3.009   8.230   8.406
27578WAT     H182976   3.071   8.281   8.348
27578WAT     H282977   2.938   8.291   8.441
27579WAT      O82978   6.389   2.200   0.470
27579WAT     H182979   6.451   2.252   0.411
27579WAT     H282980   6.387   2.243   0.561
27580WAT      O82981   4.674   7.555   0.783
27580WAT     H182982   4.716   7.465   0.770
27580WAT     H282983   4.601   7.568   0.716
27581WAT      O82984   4.108   4.663   1.392
27581WAT     H182985   4.030   4.724   1.375
27581WAT     H282986   4.153   4.641   1.306
27582WAT      O82987   0.963   1.631   6.513
27582WAT     H182988   0.920   1.709   6.558
27582WAT     H282989   1.041   1.600   6.567
27583WAT      O82990   3.245   2.772   3.370
27583WAT     H182991   3.297   2.759   3.455
27583WAT     H282992   3.154   2.732   3.380
27584WAT      O82993   6.048   1.962   5.390
27584WAT     H182994   5.960   1.932   5.353
27584WAT     H282995   6.111   1.885   5.393
27585WAT      O82996   2.500   3.238   1.166
27585WAT     H182997   2.494   3.283   1.076
27585WAT     H282998   2.580   3.274   1.215
27586WAT      O82999   6.990   1.069   9.773
27586WAT     H183000   7.042   1.147   9.808
27586WAT     H283001   6.999   0.992   9.836
27587WAT      O83002   0.889   9.042   8.994
27587WAT     H183003   0.917   8.985   9.071
27587WAT     H283004   0.804   9.006   8.955
27588WAT      O83005   2.929   1.620   4.492
27588WAT     H183006   2.972   1.548   4.439
27588WAT     H283007   2.984   1.639   4.574
27589WAT      O83008   4.770   5.936   2.151
27589WAT     H183009   4.711   5.921   2.071
27589WAT     H283010   4.738   6.016   2.201
27590WAT      O83011   4.674   4.604   2.453
27590WAT     H183012   4.737   4.666   2.501
27590WAT     H283013   4.681   4.513   2.493
27591WAT      O83014   0.855   6.721   7.433
27591WAT     H183015   0.812   6.684   7.516
27591WAT     H283016   0.953   6.705   7.436
27592WAT      O83017   1.725   4.117   9.655
27592WAT     H183018   1.706   4.029   9.611
27592WAT     H283019   1.707   4.109   9.753
27593WAT      O83020   3.168   4.011   1.710
27593WAT     H183021   3.238   4.071   1.747
27593WAT     H283022   3.146   3.940   1.777
27594WAT      O83023   9.225   2.343   9.365
27594WAT     H183024   9.235   2.318   9.269
27594WAT     H283025   9.193   2.437   9.373
27595WAT      O83026   4.381   1.550   1.795
27595WAT     H183027   4.419   1.504   1.875
27595WAT     H283028   4.455   1.574   1.732
27596WAT      O83029   6.874   5.175   1.238
27596WAT     H183030   6.842   5.242   1.171
27596WAT     H283031   6.931   5.107   1.191
27597WAT      O83032   6.827   8.691   9.641
27597WAT     H183033   6.780   8.683   9.729
27597WAT     H283034   6.912   8.742   9.653
27598WAT      O83035   5.157   0.661   9.486
27598WAT     H183036   5.232   0.629   9.427
27598WAT     H283037   5.070   0.646   9.440
27599WAT      O83038   9.588   1.694   6.086
27599WAT     H183039   9.666   1.737   6.132
27599WAT     H283040   9.611   1.599   6.063
27600WAT      O83041   2.132   5.631   1.000
27600WAT     H183042   2.071   5.683   1.059
27600WAT     H283043   2.171   5.555   1.051
27601WAT      O83044   5.845   3.192   0.009
27601WAT     H183045   5.871   3.212   0.103
27601WAT     H283046   5.746   3.192   0.000
27602WAT      O83047   1.518   5.405   9.188
27602WAT     H183048   1.452   5.466   9.144
27602WAT     H283049   1.604   5.407   9.136
27603WAT      O83050   2.003   3.453   1.216
27603WAT     H183051   1.973   3.478   1.124
27603WAT     H283052   1.934   3.484   1.283
27604WAT      O83053   2.529   4.014   2.491
27604WAT     H183054   2.554   4.084   2.558
27604WAT     H283055   2.439   4.036   2.452
27605WAT      O83056   6.846   0.139   1.216
27605WAT     H183057   6.861   0.085   1.133
27605WAT     H283058   6.748   0.142   1.237
27606WAT      O83059   2.541   8.662   8.208
27606WAT     H183060   2.600   8.588   8.173
27606WAT     H283061   2.586   8.705   8.287
27607WAT      O83062   0.845   9.092   7.115
27607WAT     H183063   0.907   9.147   7.170
27607WAT     H283064   0.896   9.051   7.039
27608WAT      O83065   6.279   6.573   3.738
27608WAT     H183066   6.263   6.480   3.704
27608WAT     H283067   6.208   6.634   3.702
27609WAT      O83068   6.310   9.381   9.006
27609WAT     H183069   6.317   9.469   9.053
27609WAT     H283070   6.401   9.349   8.981
27610WAT      O83071   7.471   5.736   4.809
27610WAT     H183072   7.540   5.772   4.746
27610WAT     H283073   7.514   5.718   4.898
27611WAT      O83074   0.746   6.145   0.360
27611WAT     H183075   0.833   6.171   0.402
27611WAT     H283076   0.723   6.051   0.386
27612WAT      O83077   7.106   5.448   5.722
27612WAT     H183078   7.119   5.441   5.821
27612WAT     H283079   7.168   5.385   5.676
27613WAT      O83080   6.180   0.646   4.172
27613WAT     H183081   6.269   0.606   4.193
27613WAT     H283082   6.189   0.706   4.092
27614WAT      O83083   8.384   7.527   9.195
27614WAT     H183084   8.380   7.548   9.293
27614WAT     H283085   8.391   7.429   9.181
27615WAT      O83086   0.721   8.543   2.735
27615WAT     H183087   0.805   8.499   2.703
27615WAT     H283088   0.690   8.497   2.819
27616WAT      O83089   1.518   9.721   5.965
27616WAT     H183090   1.569   9.799   6.000
27616WAT     H283091   1.540   9.707   5.869
27617WAT      O83092   6.203   8.496   5.021
27617WAT     H183093   6.238   8.493   4.927
27617WAT     H283094   6.237   8.416   5.071
27618WAT      O83095   0.072   2.748   8.346
27618WAT     H183096   0.070   2.649   8.333
27618WAT     H283097  -0.021   2.781   8.365
27619WAT      O83098   5.791   4.651   9.220
27619WAT     H183099   5.867   4.591   9.195
27619WAT     H283100   5.714   4.636   9.159
27620WAT      O83101   3.315   7.211   2.502
27620WAT     H183102   3.414   7.227   2.497
27620WAT     H283103   3.267   7.298   2.490
27621WAT      O83104   4.351   0.955   3.877
27621WAT     H183105   4.425   0.911   3.927
27621WAT     H283106   4.309   1.026   3.934
27622WAT      O83107   9.809   8.635   4.718
27622WAT     H183108   9.760   8.711   4.762
27622WAT     H283109   9.841   8.571   4.787
27623WAT      O83110   4.195   0.079   2.194
27623WAT     H183111   4.205   0.139   2.115
27623WAT     H283112   4.254   0.111   2.268
27624WAT      O83113   1.182   2.064   9.681
27624WAT     H183114   1.246   2.138   9.661
27624WAT     H283115   1.185   2.043   9.779
27625WAT      O83116   1.170   5.641   5.900
27625WAT     H183117   1.258   5.597   5.883
27625WAT     H283118   1.152   5.708   5.828
27626WAT      O83119   2.576   4.789   0.764
27626WAT     H183120   2.671   4.811   0.787
27626WAT     H283121   2.516   4.823   0.837
27627WAT      O83122   0.338   9.821   8.472
27627WAT     H183123   0.435   9.795   8.475
27627WAT     H283124   0.301   9.798   8.382
27628WAT      O83125   3.625   8.734   2.048
27628WAT     H183126   3.589   8.790   2.123
27628WAT     H283127   3.610   8.782   1.961
27629WAT      O83128   9.670   7.949   0.156
27629WAT     H183129   9.752   8.005   0.141
27629WAT     H283130   9.616   7.989   0.230
27630WAT      O83131   7.522   0.738   4.237
27630WAT     H183132   7.570   0.767   4.320
27630WAT     H283133   7.568   0.776   4.157
27631WAT      O83134   7.277   3.782   0.293
27631WAT     H183135   7.287   3.842   0.373
27631WAT     H283136   7.293   3.835   0.210
27632WAT      O83137   9.148   0.724   7.454
27632WAT     H183138   9.082   0.795   7.431
27632WAT     H283139   9.240   0.764   7.457
27633WAT      O83140   4.187   5.577   0.135
27633WAT     H183141   4.095   5.583   0.174
27633WAT     H283142   4.181   5.575   0.035
27634WAT      O83143   4.503   1.246   0.096
27634WAT     H183144   4.507   1.295   0.182
27634WAT     H283145   4.594   1.240   0.055
27635WAT      O83146   0.127   7.853   2.239
27635WAT     H183147   0.078   7.773   2.206
27635WAT     H283148   0.102   7.872   2.333
27636WAT      O83149   8.388   2.049   2.736
27636WAT     H183150   8.348   2.005   2.655
27636WAT     H283151   8.442   2.128   2.707
27637WAT      O83152   8.338   5.010   0.205
27637WAT     H183153   8.361   5.052   0.292
27637WAT     H283154   8.340   4.910   0.214
27638WAT      O83155   9.699   6.521   3.215
27638WAT     H183156   9.740   6.575   3.142
27638WAT     H283157   9.771   6.491   3.279
27639WAT      O83158   2.017   2.287   2.337
27639WAT     H183159   1.970   2.367   2.374
27639WAT     H283160   2.031   2.220   2.409
27640WAT      O83161   9.142   0.541   3.729
27640WAT     H183162   9.123   0.564   3.825
27640WAT     H283163   9.107   0.614   3.670
27641WAT      O83164   2.433   5.440   6.504
27641WAT     H183165   2.426   5.536   6.478
27641WAT     H283166   2.524   5.405   6.480
27642WAT      O83167   3.948   2.024   7.920
27642WAT     H183168   3.910   1.956   7.857
27642WAT     H283169   3.971   1.980   8.007
27643WAT      O83170   4.055   5.384   2.262
27643WAT     H183171   4.055   5.333   2.176
27643WAT     H283172   3.966   5.427   2.275
27644WAT      O83173   7.837   4.282   8.515
27644WAT     H183174   7.904   4.272   8.588
27644WAT     H283175   7.884   4.287   8.427
27645WAT      O83176   8.505   6.186   8.039
27645WAT     H183177   8.563   6.193   8.121
27645WAT     H283178   8.481   6.090   8.024
27646WAT      O83179   5.298   3.526   2.949
27646WAT     H183180   5.271   3.469   2.871
27646WAT     H283181   5.330   3.467   3.023
27647WAT      O83182   6.281   2.442   5.218
27647WAT     H183183   6.377   2.468   5.221
27647WAT     H283184   6.274   2.342   5.217
27648WAT      O83185   9.384   2.367   4.694
27648WAT     H183186   9.341   2.383   4.605
27648WAT     H283187   9.400   2.455   4.739
27649WAT      O83188   6.027   3.424   7.027
27649WAT     H183189   6.001   3.491   6.957
27649WAT     H283190   6.064   3.343   6.982
27650WAT      O83191   5.477   6.522   2.738
27650WAT     H183192   5.458   6.424   2.743
27650WAT     H283193   5.397   6.573   2.769
27651WAT      O83194   3.669   4.822   7.044
27651WAT     H183195   3.726   4.903   7.031
27651WAT     H283196   3.692   4.754   6.974
27652WAT      O83197   5.098   6.331   9.307
27652WAT     H183198   5.092   6.418   9.356
27652WAT     H283199   5.018   6.275   9.330
27653WAT      O83200   6.855   2.454   6.417
27653WAT     H183201   6.953   2.440   6.435
27653WAT     H283202   6.801   2.412   6.489
27654WAT      O83203   4.879   7.148   4.616
27654WAT     H183204   4.824   7.224   4.580
27654WAT     H283205   4.820   7.087   4.669
27655WAT      O83206   5.069   9.308   6.690
27655WAT     H183207   5.009   9.372   6.737
27655WAT     H283208   5.079   9.335   6.595
27656WAT      O83209   8.134   4.366   4.948
27656WAT     H183210   8.053   4.420   4.969
27656WAT     H283211   8.202   4.377   5.021
27657WAT      O83212   3.967   1.847   0.786
27657WAT     H183213   4.004   1.919   0.844
27657WAT     H283214   3.893   1.800   0.835
27658WAT      O83215   3.973   9.676   7.921
27658WAT     H183216   3.884   9.690   7.965
27658WAT     H283217   3.984   9.579   7.898
27659WAT      O83218   5.761   8.966   6.444
27659WAT     H183219   5.694   9.040   6.448
27659WAT     H283220   5.742   8.901   6.519
27660WAT      O83221   2.046   2.288   4.981
27660WAT     H183222   1.961   2.266   4.934
27660WAT     H283223   2.083   2.206   5.024
27661WAT      O83224   7.141   5.953   9.367
27661WAT     H183225   7.180   5.922   9.454
27661WAT     H283226   7.063   6.013   9.384
27662WAT      O83227   8.745   1.860   3.001
27662WAT     H183228   8.751   1.910   2.915
27662WAT     H283229   8.691   1.914   3.067
27663WAT      O83230   8.251   3.831   7.220
27663WAT     H183231   8.328   3.769   7.208
27663WAT     H283232   8.199   3.836   7.135
27664WAT      O83233   8.588   7.599   2.813
27664WAT     H183234   8.615   7.605   2.717
27664WAT     H283235   8.488   7.602   2.820
27665WAT      O83236   8.074   1.122   6.486
27665WAT     H183237   8.056   1.219   6.503
27665WAT     H283238   8.099   1.108   6.391
27666WAT      O83239   3.414   9.010   8.724
27666WAT     H183240   3.395   8.923   8.768
27666WAT     H283241   3.462   8.994   8.638
27667WAT      O83242   5.893   8.117   7.601
27667WAT     H183243   5.893   8.216   7.612
27667WAT     H283244   5.801   8.086   7.577
27668WAT      O83245   5.995   7.789   2.701
27668WAT     H183246   6.094   7.791   2.686
27668WAT     H283247   5.961   7.696   2.688
27669WAT      O83248   3.681   4.577   7.236
27669WAT     H183249   3.689   4.662   7.184
27669WAT     H283250   3.656   4.503   7.175
27670WAT      O83251   4.612   1.549   0.987
27670WAT     H183252   4.569   1.587   0.905
27670WAT     H283253   4.553   1.567   1.067
27671WAT      O83254   7.431   9.212   7.578
27671WAT     H183255   7.454   9.127   7.530
27671WAT     H283256   7.376   9.270   7.518
27672WAT      O83257   6.405   4.405   4.813
27672WAT     H183258   6.426   4.448   4.725
27672WAT     H283259   6.400   4.306   4.802
27673WAT      O83260   0.038   1.830   8.283
27673WAT     H183261   0.034   1.844   8.382
27673WAT     H283262   0.123   1.870   8.248
27674WAT      O83263   8.694   5.561   2.589
27674WAT     H183264   8.636   5.614   2.527
27674WAT     H283265   8.787   5.598   2.588
27675WAT      O83266   6.968   4.878   1.606
27675WAT     H183267   6.999   4.973   1.604
27675WAT     H283268   7.040   4.820   1.643
27676WAT      O83269   1.314   9.031   6.819
27676WAT     H183270   1.311   9.017   6.918
27676WAT     H283271   1.346   9.124   6.800
27677WAT      O83272   6.492   8.988   2.915
27677WAT     H183273   6.500   9.021   3.009
27677WAT     H283274   6.405   8.939   2.904
27678WAT      O83275   9.729   1.181   9.688
27678WAT     H183276   9.828   1.167   9.681
27678WAT     H283277   9.711   1.263   9.742
27679WAT      O83278   3.890   6.289   7.040
27679WAT     H183279   3.943   6.294   7.125
27679WAT     H283280   3.822   6.362   7.039
27680WAT      O83281   3.966   2.857   0.449
27680WAT     H183282   3.945   2.760   0.433
27680WAT     H283283   4.055   2.864   0.495
27681WAT      O83284   7.035   0.777   9.011
27681WAT     H183285   7.076   0.863   9.039
27681WAT     H283286   7.078   0.701   9.060
27682WAT      O83287   2.765   6.336   0.347
27682WAT     H183288   2.684   6.301   0.299
27682WAT     H283289   2.740   6.360   0.440
27683WAT      O83290   7.127   0.979   5.797
27683WAT     H183291   7.134   0.932   5.885
27683WAT     H283292   7.134   1.078   5.812
27684WAT      O83293   2.243   8.511   5.366
27684WAT     H183294   2.160   8.533   5.417
27684WAT     H283295   2.318   8.498   5.430
27685WAT      O83296   6.952   2.388   7.409
27685WAT     H183297   6.949   2.306   7.465
27685WAT     H283298   6.933   2.469   7.466
27686WAT      O83299   6.529   9.836   8.277
27686WAT     H183300   6.497   9.912   8.220
27686WAT     H283301   6.508   9.854   8.373
27687WAT      O83302   9.318   6.336   3.924
27687WAT     H183303   9.260   6.257   3.941
27687WAT     H283304   9.381   6.349   4.001
27688WAT      O83305   9.111   4.210   0.292
27688WAT     H183306   9.099   4.292   0.349
27688WAT     H283307   9.171   4.232   0.215
27689WAT      O83308   3.256   1.297   6.063
27689WAT     H183309   3.301   1.280   5.975
27689WAT     H283310   3.317   1.349   6.122
27690WAT      O83311   5.461   4.592   5.629
27690WAT     H183312   5.530   4.574   5.699
27690WAT     H283313   5.442   4.508   5.578
27691WAT      O83314   9.117   6.909   3.115
27691WAT     H183315   9.202   6.881   3.161
27691WAT     H283316   9.120   7.007   3.096
27692WAT      O83317   0.985   0.676   8.697
27692WAT     H183318   0.895   0.721   8.701
27692WAT     H283319   1.042   0.709   8.772
27693WAT      O83320   8.400   8.338   5.431
27693WAT     H183321   8.392   8.266   5.499
27693WAT     H283322   8.496   8.358   5.413
27694WAT      O83323   0.579   0.329   4.704
27694WAT     H183324   0.556   0.380   4.787
27694WAT     H283325   0.496   0.286   4.668
27695WAT      O83326   1.975   9.570   7.787
27695WAT     H183327   2.009   9.509   7.716
27695WAT     H283328   2.049   9.631   7.816
27696WAT      O83329   2.872   1.254   3.139
27696WAT     H183330   2.958   1.304   3.130
27696WAT     H283331   2.887   1.172   3.194
27697WAT      O83332   3.801   5.313   7.287
27697WAT     H183333   3.795   5.394   7.344
27697WAT     H283334   3.792   5.339   7.191
27698WAT      O83335   8.710   0.010   3.487
27698WAT     H183336   8.800   0.053   3.479
27698WAT     H283337   8.673  -0.008   3.396
27699WAT      O83338  -0.001   1.589   4.329
27699WAT     H183339   0.027   1.585   4.425
27699WAT     H283340   0.054   1.658   4.282
27700WAT      O83341   1.271   1.967   6.234
27700WAT     H183342   1.212   1.975   6.153
27700WAT     H283343   1.242   2.033   6.303
27701WAT      O83344   4.308   8.628   7.264
27701WAT     H183345   4.376   8.701   7.265
27701WAT     H283346   4.221   8.663   7.298
27702WAT      O83347   9.105   9.589   9.418
27702WAT     H183348   9.171   9.632   9.478
27702WAT     H283349   9.065   9.509   9.462
27703WAT      O83350   7.163   5.864   8.022
27703WAT     H183351   7.072   5.900   8.001
27703WAT     H283352   7.219   5.865   7.939
27704WAT      O83353   2.179   4.136   8.601
27704WAT     H183354   2.237   4.088   8.666
27704WAT     H283355   2.097   4.081   8.582
27705WAT      O83356   8.638   7.471   7.095
27705WAT     H183357   8.734   7.499   7.107
27705WAT     H283358   8.623   7.384   7.140
27706WAT      O83359   4.508   1.657   7.966
27706WAT     H183360   4.570   1.594   8.013
27706WAT     H283361   4.482   1.618   7.878
27707WAT      O83362   5.952   0.420   1.074
27707WAT     H183363   5.949   0.503   1.018
27707WAT     H283364   5.991   0.441   1.164
27708WAT      O83365   2.176   2.714   1.918
27708WAT     H183366   2.233   2.710   2.000
27708WAT     H283367   2.168   2.810   1.888
27709WAT      O83368   5.605   2.638   3.097
27709WAT     H183369   5.694   2.644   3.051
27709WAT     H283370   5.603   2.558   3.157
27710WAT      O83371   6.973   6.020   7.402
27710WAT     H183372   6.891   6.043   7.453
27710WAT     H283373   6.972   5.923   7.378
27711WAT      O83374   9.589   2.596   4.197
27711WAT     H183375   9.497   2.601   4.158
27711WAT     H283376   9.634   2.512   4.166
27712WAT      O83377   7.164   6.595   5.895
27712WAT     H183378   7.122   6.681   5.866
27712WAT     H283379   7.214   6.554   5.818
27713WAT      O83380   7.873   2.701   8.817
27713WAT     H183381   7.817   2.780   8.795
27713WAT     H283382   7.882   2.642   8.737
27714WAT      O83383   0.126   0.470   2.721
27714WAT     H183384   0.065   0.409   2.670
27714WAT     H283385   0.200   0.417   2.763
27715WAT      O83386   1.682   2.596   6.201
27715WAT     H183387   1.645   2.686   6.226
27715WAT     H283388   1.725   2.601   6.111
27716WAT      O83389   7.540   6.638   6.336
27716WAT     H183390   7.501   6.614   6.246
27716WAT     H283391   7.483   6.598   6.408
27717WAT      O83392   0.998   9.168   2.605
27717WAT     H183393   1.005   9.096   2.535
27717WAT     H283394   1.082   9.222   2.606
27718WAT      O83395   2.229   4.324   0.643
27718WAT     H183396   2.309   4.265   0.649
27718WAT     H283397   2.258   4.418   0.624
27719WAT      O83398   5.314   9.259   5.831
27719WAT     H183399   5.248   9.186   5.844
27719WAT     H283400   5.369   9.240   5.750
27720WAT      O83401   2.242   3.963   9.405
27720WAT     H183402   2.327   3.911   9.403
27720WAT     H283403   2.259   4.054   9.442
27721WAT      O83404   9.427   2.076   3.722
27721WAT     H183405   9.451   2.121   3.636
27721WAT     H283406   9.344   2.117   3.759
27722WAT      O83407   1.768   3.608   0.368
27722WAT     H183408   1.776   3.532   0.302
27722WAT     H283409   1.783   3.694   0.320
27723WAT      O83410   4.455   4.702   3.579
27723WAT     H183411   4.470   4.687   3.481
27723WAT     H283412   4.392   4.633   3.614
27724WAT      O83413   3.293   3.265   2.321
27724WAT     H183414   3.385   3.299   2.343
27724WAT     H283415   3.251   3.227   2.403
27725WAT      O83416   6.407   3.201   2.485
27725WAT     H183417   6.359   3.169   2.567
27725WAT     H283418   6.343   3.245   2.423
27726WAT      O83419   2.450   1.912   9.167
27726WAT     H183420   2.434   1.859   9.250
27726WAT     H283421   2.370   1.970   9.149
27727WAT      O83422   1.950   3.820   3.402
27727WAT     H183423   1.960   3.744   3.337
27727WAT     H283424   2.009   3.895   3.374
27728WAT      O83425   6.320   5.226   8.060
27728WAT     H183426   6.234   5.204   8.014
27728WAT     H283427   6.394   5.175   8.018
27729WAT      O83428   2.268   5.938   0.489
27729WAT     H183429   2.272   5.868   0.418
27729WAT     H283430   2.359   5.979   0.501
27730WAT      O83431   5.177   6.838   2.280
27730WAT     H183432   5.227   6.904   2.224
27730WAT     H283433   5.212   6.746   2.263
27731WAT      O83434   9.281   9.494   8.576
27731WAT     H183435   9.220   9.571   8.555
27731WAT     H283436   9.352   9.488   8.506
27732WAT      O83437   2.699   5.035   8.757
27732WAT     H183438   2.755   5.067   8.834
27732WAT     H283439   2.685   4.936   8.764
27733WAT      O83440   8.524   5.431   7.497
27733WAT     H183441   8.525   5.436   7.397
27733WAT     H283442   8.611   5.392   7.529
27734WAT      O83443   4.573   0.453   7.891
27734WAT     H183444   4.602   0.359   7.907
27734WAT     H283445   4.497   0.476   7.952
27735WAT      O83446   0.776   2.238   2.783
27735WAT     H183447   0.723   2.257   2.866
27735WAT     H283448   0.860   2.293   2.784
27736WAT      O83449   8.579   5.900   8.238
27736WAT     H183450   8.522   5.926   8.160
27736WAT     H283451   8.529   5.917   8.323
27737WAT      O83452   1.580   4.269   3.694
27737WAT     H183453   1.590   4.243   3.790
27737WAT     H283454   1.483   4.268   3.670
27738WAT      O83455   5.280   7.422   3.772
27738WAT     H183456   5.226   7.358   3.827
27738WAT     H283457   5.268   7.400   3.675
27739WAT      O83458   8.881   4.127   5.976
27739WAT     H183459   8.888   4.186   5.895
27739WAT     H283460   8.817   4.168   6.042
27740WAT      O83461   3.199   2.181   7.262
27740WAT     H183462   3.118   2.155   7.315
27740WAT     H283463   3.281   2.160   7.315
27741WAT      O83464   2.114   2.007   5.679
27741WAT     H183465   2.137   2.035   5.772
27741WAT     H283466   2.167   1.926   5.655
27742WAT      O83467   8.008   4.880   9.339
27742WAT     H183468   8.013   4.976   9.312
27742WAT     H283469   8.000   4.874   9.438
27743WAT      O83470   8.133   2.546   7.825
27743WAT     H183471   8.107   2.487   7.901
27743WAT     H283472   8.088   2.515   7.741
27744WAT      O83473   7.727   9.725   1.577
27744WAT     H183474   7.777   9.783   1.513
27744WAT     H283475   7.633   9.759   1.587
27745WAT      O83476   6.250   3.756   7.351
27745WAT     H183477   6.254   3.691   7.275
27745WAT     H283478   6.287   3.844   7.321
27746WAT      O83479   5.016   5.902   5.956
27746WAT     H183480   5.040   5.979   5.896
27746WAT     H283481   4.926   5.867   5.930
27747WAT      O83482   5.717   3.999   2.814
27747WAT     H183483   5.815   4.018   2.818
27747WAT     H283484   5.669   4.057   2.880
27748WAT      O83485   8.227   6.463   9.433
27748WAT     H183486   8.218   6.542   9.494
27748WAT     H283487   8.170   6.388   9.467
27749WAT      O83488   4.336   6.696   3.960
27749WAT     H183489   4.428   6.696   3.920
27749WAT     H283490   4.316   6.606   3.999
27750WAT      O83491   4.391   3.114   9.281
27750WAT     H183492   4.324   3.041   9.296
27750WAT     H283493   4.474   3.075   9.242
27751WAT      O83494   4.813   0.788   3.069
27751WAT     H183495   4.732   0.763   3.121
27751WAT     H283496   4.787   0.807   2.974
27752WAT      O83497   6.282   7.694   9.146
27752WAT     H183498   6.349   7.742   9.089
27752WAT     H283499   6.278   7.598   9.120
27753WAT      O83500   1.360   8.437   2.627
27753WAT     H183501   1.343   8.395   2.717
27753WAT     H283502   1.366   8.536   2.638
27754WAT      O83503   3.531   5.247   1.757
27754WAT     H183504   3.455   5.285   1.810
27754WAT     H283505   3.603   5.316   1.748
27755WAT      O83506   6.363   2.704   9.587
27755WAT     H183507   6.425   2.626   9.587
27755WAT     H283508   6.268   2.671   9.587
27756WAT      O83509   0.724   5.359   9.158
27756WAT     H183510   0.807   5.415   9.165
27756WAT     H283511   0.682   5.373   9.069
27757WAT      O83512   6.284   5.748   6.876
27757WAT     H183513   6.264   5.742   6.974
27757WAT     H283514   6.362   5.809   6.862
27758WAT      O83515   0.593   1.359   5.102
27758WAT     H183516   0.656   1.359   5.025
27758WAT     H283517   0.604   1.443   5.155
27759WAT      O83518   5.549   0.101   5.012
27759WAT     H183519   5.569   0.007   4.986
27759WAT     H283520   5.451   0.110   5.031
27760WAT      O83521   3.395   5.428   7.187
27760WAT     H183522   3.419   5.484   7.266
27760WAT     H283523   3.312   5.464   7.145
27761WAT      O83524   6.197   7.434   7.941
27761WAT     H183525   6.179   7.490   7.859
27761WAT     H283526   6.281   7.465   7.984
27762WAT      O83527   6.484   4.082   3.872
27762WAT     H183528   6.454   4.165   3.920
27762WAT     H283529   6.438   4.077   3.784
27763WAT      O83530   4.849   5.090   7.913
27763WAT     H183531   4.913   5.058   7.843
27763WAT     H283532   4.760   5.046   7.899
27764WAT      O83533   3.503   1.999   5.506
27764WAT     H183534   3.549   2.022   5.591
27764WAT     H283535   3.566   1.947   5.447
27765WAT      O83536   6.145   6.810   4.526
27765WAT     H183537   6.091   6.874   4.470
27765WAT     H283538   6.107   6.806   4.618
27766WAT      O83539   9.771   1.212   4.927
27766WAT     H183540   9.763   1.310   4.948
27766WAT     H283541   9.753   1.159   5.010
27767WAT      O83542   6.656   7.866   3.709
27767WAT     H183543   6.662   7.794   3.778
27767WAT     H283544   6.666   7.955   3.752
27768WAT      O83545   8.839   8.832   8.783
27768WAT     H183546   8.888   8.774   8.847
27768WAT     H283547   8.831   8.925   8.820
27769WAT      O83548   2.775   3.053   1.327
27769WAT     H183549   2.716   3.092   1.397
27769WAT     H283550   2.868   3.088   1.339
27770WAT      O83551   0.203   5.152   4.921
27770WAT     H183552   0.186   5.064   4.878
27770WAT     H283553   0.292   5.151   4.966
27771WAT      O83554   9.825   0.542   9.440
27771WAT     H183555   9.861   0.504   9.355
27771WAT     H283556   9.868   0.630   9.458
27772WAT      O83557   8.585   5.704   9.198
27772WAT     H183558   8.601   5.789   9.248
27772WAT     H283559   8.535   5.724   9.114
27773WAT      O83560   0.725   9.769   4.953
27773WAT     H183561   0.671   9.704   5.006
27773WAT     H283562   0.769   9.834   5.015
27774WAT      O83563   6.845   0.138   9.525
27774WAT     H183564   6.789   0.216   9.550
27774WAT     H283565   6.786   0.061   9.499
27775WAT      O83566   8.140   3.169   0.885
27775WAT     H183567   8.192   3.231   0.943
27775WAT     H283568   8.131   3.208   0.794
27776WAT      O83569   4.091   4.225   4.011
27776WAT     H183570   4.164   4.266   4.065
27776WAT     H283571   4.048   4.151   4.064
27777WAT      O83572   6.079   2.314   9.059
27777WAT     H183573   6.041   2.297   9.150
27777WAT     H283574   6.178   2.298   9.061
27778WAT      O83575   4.435   4.019   8.502
27778WAT     H183576   4.373   4.060   8.436
27778WAT     H283577   4.440   4.076   8.584
27779WAT      O83578   2.906   4.132   2.427
27779WAT     H183579   2.851   4.062   2.381
27779WAT     H283580   2.880   4.222   2.393
27780WAT      O83581   4.885   1.667   3.908
27780WAT     H183582   4.913   1.762   3.920
27780WAT     H283583   4.791   1.664   3.873
27781WAT      O83584   8.082   2.362   1.417
27781WAT     H183585   8.096   2.387   1.321
27781WAT     H283586   8.168   2.368   1.466
27782WAT      O83587   8.177   3.005   4.695
27782WAT     H183588   8.093   2.992   4.748
27782WAT     H283589   8.187   2.931   4.629
27783WAT      O83590   8.466   6.504   2.610
27783WAT     H183591   8.556   6.547   2.609
27783WAT     H283592   8.426   6.510   2.701
27784WAT      O83593   4.917   5.792   1.015
27784WAT     H183594   4.986   5.743   1.069
27784WAT     H283595   4.941   5.889   1.012
27785WAT      O83596   3.959   2.352   3.434
27785WAT     H183597   3.974   2.402   3.519
27785WAT     H283598   4.003   2.400   3.358
27786WAT      O83599   1.301   6.407   4.454
27786WAT     H183600   1.339   6.349   4.526
27786WAT     H283601   1.350   6.390   4.369
27787WAT      O83602   5.158   5.283   7.337
27787WAT     H183603   5.102   5.226   7.277
27787WAT     H283604   5.118   5.375   7.343
27788WAT      O83605   7.316   4.824   4.517
27788WAT     H183606   7.309   4.779   4.606
27788WAT     H283607   7.339   4.756   4.447
27789WAT      O83608   8.803   5.535   2.269
27789WAT     H183609   8.874   5.584   2.217
27789WAT     H283610   8.834   5.522   2.363
27790WAT      O83611   8.946   0.034   4.791
27790WAT     H183612   9.037  -0.005   4.802
27790WAT     H283613   8.888   0.007   4.868
27791WAT      O83614   3.919   5.778   1.151
27791WAT     H183615   3.895   5.800   1.246
27791WAT     H283616   3.846   5.724   1.110
27792WAT      O83617   5.218   2.411   2.486
27792WAT     H183618   5.214   2.346   2.562
27792WAT     H283619   5.129   2.453   2.473
27793WAT      O83620   0.133   2.432   7.023
27793WAT     H183621   0.049   2.388   7.055
27793WAT     H283622   0.189   2.458   7.102
27794WAT      O83623   3.982   1.862   8.147
27794WAT     H183624   4.007   1.781   8.093
27794WAT     H283625   4.065   1.910   8.176
27795WAT      O83626   7.012   0.066   3.343
27795WAT     H183627   7.107   0.099   3.349
27795WAT     H283628   6.955   0.137   3.302
27796WAT      O83629   9.218   5.085   8.134
27796WAT     H183630   9.158   5.150   8.088
27796WAT     H283631   9.296   5.133   8.173
27797WAT      O83632   4.181   1.355   0.228
27797WAT     H183633   4.245   1.320   0.160
27797WAT     H283634   4.228   1.423   0.285
27798WAT      O83635   1.048   3.075   6.355
27798WAT     H183636   1.053   3.062   6.256
27798WAT     H283637   0.952   3.074   6.384
27799WAT      O83638   5.148   1.824   2.163
27799WAT     H183639   5.180   1.916   2.142
27799WAT     H283640   5.050   1.817   2.142
27800WAT      O83641   8.220   6.006   2.333
27800WAT     H183642   8.223   5.944   2.412
27800WAT     H283643   8.184   6.095   2.362
27801WAT      O83644   4.918   1.405   4.718
27801WAT     H183645   4.836   1.374   4.766
27801WAT     H283646   4.955   1.330   4.663
27802WAT      O83647   4.940   7.005   5.824
27802WAT     H183648   4.948   7.037   5.918
27802WAT     H283649   4.854   7.037   5.784
27803WAT      O83650   6.169   6.948   2.084
27803WAT     H183651   6.124   7.034   2.110
27803WAT     H283652   6.180   6.891   2.165
27804WAT      O83653   6.450   0.043   3.722
27804WAT     H183654   6.406   0.021   3.809
27804WAT     H283655   6.430  -0.029   3.655
27805WAT      O83656   1.297   0.915   4.504
27805WAT     H183657   1.282   0.849   4.579
27805WAT     H283658   1.293   0.867   4.417
27806WAT      O83659   4.784   3.234   1.977
27806WAT     H183660   4.795   3.333   1.973
27806WAT     H283661   4.870   3.193   2.007
27807WAT      O83662   6.531   1.509   2.305
27807WAT     H183663   6.601   1.558   2.357
27807WAT     H283664   6.441   1.544   2.328
27808WAT      O83665   5.201   8.466   3.711
27808WAT     H183666   5.215   8.531   3.637
27808WAT     H283667   5.232   8.506   3.797
27809WAT      O83668   4.394   9.050   7.935
27809WAT     H183669   4.413   8.958   7.903
27809WAT     H283670   4.325   9.047   8.007
27810WAT      O83671   8.566   7.756   2.465
27810WAT     H183672   8.648   7.805   2.434
27810WAT     H283673   8.589   7.660   2.480
27811WAT      O83674   6.427   7.742   3.281
27811WAT     H183675   6.329   7.732   3.265
27811WAT     H283676   6.454   7.837   3.269
27812WAT      O83677   4.552   7.660   2.943
27812WAT     H183678   4.517   7.578   2.989
27812WAT     H283679   4.536   7.740   3.000
27813WAT      O83680   7.911   2.950   9.019
27813WAT     H183681   7.982   2.883   8.996
27813WAT     H283682   7.841   2.905   9.075
27814WAT      O83683   1.014   6.294   2.791
27814WAT     H183684   1.037   6.356   2.866
27814WAT     H283685   0.926   6.250   2.810
27815WAT      O83686   5.431   5.714   0.752
27815WAT     H183687   5.424   5.722   0.852
27815WAT     H283688   5.473   5.627   0.728
27816WAT      O83689   9.170   2.223   3.720
27816WAT     H183690   9.214   2.301   3.675
27816WAT     H283691   9.151   2.245   3.815
27817WAT      O83692   2.671   5.766   5.963
27817WAT     H183693   2.713   5.832   5.900
27817WAT     H283694   2.711   5.778   6.054
27818WAT      O83695   3.960   0.611   0.063
27818WAT     H183696   4.049   0.573   0.039
27818WAT     H283697   3.906   0.541   0.110
27819WAT      O83698   1.576   5.231   2.429
27819WAT     H183699   1.618   5.273   2.510
27819WAT     H283700   1.510   5.293   2.389
27820WAT      O83701   2.978   1.076   4.563
27820WAT     H183702   2.916   1.013   4.517
27820WAT     H283703   3.022   1.135   4.494
27821WAT      O83704   0.775   0.937   2.941
27821WAT     H183705   0.843   0.981   2.882
27821WAT     H283706   0.819   0.864   2.993
27822WAT      O83707   9.443   6.082   1.437
27822WAT     H183708   9.475   6.055   1.528
27822WAT     H283709   9.343   6.083   1.436
27823WAT      O83710   8.903   1.261   6.611
27823WAT     H183711   8.843   1.288   6.687
27823WAT     H283712   8.947   1.343   6.573
27824WAT      O83713   9.544   0.017   3.635
27824WAT     H183714   9.455   0.063   3.636
27824WAT     H283715   9.547  -0.047   3.559
27825WAT      O83716   9.302   1.278   9.704
27825WAT     H183717   9.241   1.348   9.740
27825WAT     H283718   9.316   1.207   9.772
27826WAT      O83719   2.494   4.797   1.926
27826WAT     H183720   2.489   4.891   1.959
27826WAT     H283721   2.433   4.739   1.981
27827WAT      O83722   4.813   4.821   1.751
27827WAT     H183723   4.871   4.884   1.803
27827WAT     H283724   4.743   4.783   1.811
27828WAT      O83725   1.182   7.480   0.117
27828WAT     H183726   1.122   7.531   0.055
27828WAT     H283727   1.238   7.416   0.063
27829WAT      O83728   6.392   4.826   0.124
27829WAT     H183729   6.339   4.896   0.076
27829WAT     H283730   6.388   4.741   0.071
27830WAT      O83731   3.343   2.580   5.249
27830WAT     H183732   3.388   2.571   5.338
27830WAT     H283733   3.284   2.661   5.249
27831WAT      O83734   8.097   1.508   1.804
27831WAT     H183735   8.173   1.554   1.758
27831WAT     H283736   8.044   1.456   1.737
27832WAT      O83737   9.019   8.411   1.349
27832WAT     H183738   9.085   8.394   1.276
27832WAT     H283739   9.058   8.384   1.437
27833WAT      O83740   6.432   1.580   2.639
27833WAT     H183741   6.486   1.664   2.628
27833WAT     H283742   6.458   1.534   2.723
27834WAT      O83743   5.035   6.382   8.107
27834WAT     H183744   5.106   6.450   8.091
27834WAT     H283745   5.051   6.302   8.049
27835WAT      O83746   0.583   2.829   8.585
27835WAT     H183747   0.487   2.846   8.608
27835WAT     H283748   0.641   2.891   8.637
27836WAT      O83749   4.263   0.006   4.286
27836WAT     H183750   4.257   0.055   4.373
27836WAT     H283751   4.314   0.063   4.221
27837WAT      O83752   0.091   8.405   3.634
27837WAT     H183753   0.124   8.311   3.634
27837WAT     H283754   0.121   8.451   3.717
27838WAT      O83755   1.198   8.149   4.836
27838WAT     H183756   1.175   8.059   4.799
27838WAT     H283757   1.183   8.151   4.934
27839WAT      O83758   0.343   6.297   6.026
27839WAT     H183759   0.308   6.307   5.933
27839WAT     H283760   0.401   6.216   6.032
27840WAT      O83761   8.688   6.325   3.276
27840WAT     H183762   8.609   6.380   3.250
27840WAT     H283763   8.679   6.295   3.371
27841WAT      O83764   3.184   7.912   7.560
27841WAT     H183765   3.122   7.981   7.521
27841WAT     H283766   3.203   7.935   7.655
27842WAT      O83767   2.603   4.548   6.621
27842WAT     H183768   2.645   4.631   6.584
27842WAT     H283769   2.581   4.485   6.547
27843WAT      O83770   3.509   1.118   6.486
27843WAT     H183771   3.539   1.027   6.457
27843WAT     H283772   3.410   1.116   6.505
27844WAT      O83773   6.716   0.331   2.463
27844WAT     H183774   6.660   0.250   2.445
27844WAT     H283775   6.789   0.338   2.395
27845WAT      O83776   6.607   4.748   4.727
27845WAT     H183777   6.537   4.697   4.778
27845WAT     H283778   6.565   4.828   4.684
27846WAT      O83779   5.237   5.193   1.350
27846WAT     H183780   5.301   5.187   1.426
27846WAT     H283781   5.226   5.103   1.309
27847WAT      O83782   1.828   4.762   9.687
27847WAT     H183783   1.884   4.823   9.631
27847WAT     H283784   1.878   4.677   9.702
27848WAT      O83785   7.709   0.290   0.655
27848WAT     H183786   7.763   0.296   0.571
27848WAT     H283787   7.630   0.232   0.640
27849WAT      O83788   6.512   2.800   8.379
27849WAT     H183789   6.599   2.847   8.363
27849WAT     H283790   6.452   2.858   8.435
27850WAT      O83791   7.100   4.713   6.160
27850WAT     H183792   7.028   4.781   6.176
27850WAT     H283793   7.069   4.647   6.093
27851WAT      O83794   9.134   0.220   2.814
27851WAT     H183795   9.042   0.257   2.832
27851WAT     H283796   9.203   0.286   2.846
27852WAT      O83797   4.700   6.414   7.149
27852WAT     H183798   4.640   6.417   7.229
27852WAT     H283799   4.745   6.325   7.144
27853WAT      O83800   9.813   2.807   3.739
27853WAT     H183801   9.837   2.848   3.651
27853WAT     H283802   9.848   2.714   3.743
27854WAT      O83803   8.441   4.428   1.202
27854WAT     H183804   8.375   4.377   1.146
27854WAT     H283805   8.451   4.521   1.167
27855WAT      O83806   4.031   8.036   0.411
27855WAT     H183807   4.013   7.944   0.376
27855WAT     H283808   3.965   8.100   0.372
27856WAT      O83809   3.307   5.130   4.381
27856WAT     H183810   3.236   5.180   4.332
27856WAT     H283811   3.318   5.170   4.472
27857WAT      O83812   9.329   0.324   3.770
27857WAT     H183813   9.344   0.273   3.685
27857WAT     H283814   9.234   0.355   3.774
27858WAT      O83815   6.436   5.856   0.660
27858WAT     H183816   6.531   5.875   0.683
27858WAT     H283817   6.376   5.917   0.711
27859WAT      O83818   2.254   4.200   9.532
27859WAT     H183819   2.322   4.223   9.602
27859WAT     H283820   2.173   4.161   9.576
27860WAT      O83821   8.622   3.420   5.682
27860WAT     H183822   8.692   3.381   5.741
27860WAT     H283823   8.588   3.506   5.721
27861WAT      O83824   3.820   2.883   2.187
27861WAT     H183825   3.810   2.841   2.277
27861WAT     H283826   3.768   2.969   2.184
27862WAT      O83827   5.882   3.023   8.960
27862WAT     H183828   5.886   3.083   9.040
27862WAT     H283829   5.973   3.015   8.920
27863WAT      O83830   6.821   4.770   4.883
27863WAT     H183831   6.820   4.824   4.967
27863WAT     H283832   6.733   4.780   4.836
27864WAT      O83833   3.319   2.576   3.164
27864WAT     H183834   3.236   2.541   3.122
27864WAT     H283835   3.296   2.642   3.236
27865WAT      O83836   4.958   4.153   6.508
27865WAT     H183837   4.893   4.095   6.557
27865WAT     H283838   5.000   4.218   6.571
27866WAT      O83839   4.615   9.088   1.586
27866WAT     H183840   4.710   9.064   1.565
27866WAT     H283841   4.575   9.135   1.508
27867WAT      O83842   5.064   9.760   7.886
27867WAT     H183843   5.156   9.735   7.855
27867WAT     H283844   5.015   9.807   7.813
27868WAT      O83845   1.410   6.947   7.646
27868WAT     H183846   1.355   7.022   7.683
27868WAT     H283847   1.459   6.980   7.565
27869WAT      O83848   0.096   3.110   8.282
27869WAT     H183849   0.042   3.057   8.217
27869WAT     H283850   0.176   3.057   8.309
27870WAT      O83851   6.700   0.660   5.148
27870WAT     H183852   6.751   0.745   5.162
27870WAT     H283853   6.752   0.584   5.185
27871WAT      O83854   8.595   4.966   4.415
27871WAT     H183855   8.612   5.064   4.422
27871WAT     H283856   8.587   4.927   4.507
27872WAT      O83857   3.382   1.017   8.619
27872WAT     H183858   3.407   1.113   8.637
27872WAT     H283859   3.465   0.964   8.602
27873WAT      O83860   0.833   5.553   2.566
27873WAT     H183861   0.770   5.481   2.596
27873WAT     H283862   0.903   5.566   2.636
27874WAT      O83863   9.388   3.130   1.245
27874WAT     H183864   9.308   3.078   1.274
27874WAT     H283865   9.467   3.069   1.235
27875WAT      O83866   8.442   7.053   3.220
27875WAT     H183867   8.477   7.048   3.127
27875WAT     H283868   8.342   7.052   3.218
27876WAT      O83869   6.018   4.932   6.228
27876WAT     H183870   5.935   4.916   6.175
27876WAT     H283871   6.014   5.024   6.268
27877WAT      O83872   9.516   8.460   3.544
27877WAT     H183873   9.604   8.506   3.535
27877WAT     H283874   9.499   8.405   3.462
27878WAT      O83875   3.165   2.660   1.850
27878WAT     H183876   3.148   2.565   1.876
27878WAT     H283877   3.178   2.666   1.751
27879WAT      O83878   2.544   1.906   1.922
27879WAT     H183879   2.468   1.844   1.905
27879WAT     H283880   2.629   1.853   1.931
27880WAT      O83881   6.317   4.776   2.163
27880WAT     H183882   6.410   4.774   2.201
27880WAT     H283883   6.322   4.765   2.063
27881WAT      O83884   0.885   3.839   5.049
27881WAT     H183885   0.966   3.886   5.015
27881WAT     H283886   0.906   3.797   5.138
27882WAT      O83887   0.435   7.747   0.433
27882WAT     H183888   0.380   7.818   0.477
27882WAT     H283889   0.389   7.717   0.349
27883WAT      O83890   8.628   4.351   2.432
27883WAT     H183891   8.652   4.417   2.361
27883WAT     H283892   8.712   4.307   2.466
27884WAT      O83893   5.245   4.244   3.304
27884WAT     H183894   5.296   4.208   3.382
27884WAT     H283895   5.250   4.179   3.228
27885WAT      O83896   1.936   0.993   5.015
27885WAT     H183897   2.003   0.977   5.087
27885WAT     H283898   1.983   0.999   4.927
27886WAT      O83899   9.228   1.379   2.041
27886WAT     H183900   9.220   1.283   2.069
27886WAT     H283901   9.207   1.387   1.944
27887WAT      O83902   4.566   9.680   3.784
27887WAT     H183903   4.524   9.619   3.717
27887WAT     H283904   4.497   9.708   3.850
27888WAT      O83905   9.198   7.133   2.213
27888WAT     H183906   9.268   7.186   2.165
27888WAT     H283907   9.199   7.039   2.181
27889WAT      O83908   4.018   9.599   2.220
27889WAT     H183909   4.001   9.521   2.159
27889WAT     H283910   3.968   9.678   2.186
27890WAT      O83911   6.976   5.944   7.771
27890WAT     H183912   6.935   5.959   7.861
27890WAT     H283913   6.903   5.931   7.703
27891WAT      O83914   6.088   7.283   0.472
27891WAT     H183915   6.182   7.316   0.475
27891WAT     H283916   6.087   7.189   0.439
27892WAT      O83917   1.427   5.705   9.283
27892WAT     H183918   1.393   5.672   9.195
27892WAT     H283919   1.448   5.627   9.342
27893WAT      O83920   1.422   6.615   2.949
27893WAT     H183921   1.345   6.642   2.892
27893WAT     H283922   1.457   6.527   2.917
27894WAT      O83923   4.431   7.057   7.502
27894WAT     H183924   4.428   7.044   7.403
27894WAT     H283925   4.340   7.079   7.536
27895WAT      O83926   8.147   9.771   8.479
27895WAT     H183927   8.071   9.807   8.533
27895WAT     H283928   8.204   9.847   8.447
27896WAT      O83929   9.867   3.409   3.727
27896WAT     H183930   9.879   3.488   3.667
27896WAT     H283931   9.822   3.335   3.676
27897WAT      O83932   8.335   1.037   0.756
27897WAT     H183933   8.337   1.010   0.853
27897WAT     H283934   8.422   1.077   0.731
27898WAT      O83935   0.776   9.645   7.932
27898WAT     H183936   0.847   9.644   8.003
27898WAT     H283937   0.688   9.621   7.973
27899WAT      O83938   9.673   6.852   0.752
27899WAT     H183939   9.685   6.841   0.653
27899WAT     H283940   9.637   6.943   0.771
27900WAT      O83941   3.874   0.122   1.429
27900WAT     H183942   3.865   0.191   1.501
27900WAT     H283943   3.803   0.136   1.360
27901WAT      O83944   5.375   9.547   1.072
27901WAT     H183945   5.396   9.458   1.112
27901WAT     H283946   5.308   9.536   0.998
27902WAT      O83947   3.315   8.392   3.381
27902WAT     H183948   3.379   8.346   3.442
27902WAT     H283949   3.363   8.460   3.326
27903WAT      O83950   7.610   4.317   3.852
27903WAT     H183951   7.568   4.385   3.793
27903WAT     H283952   7.644   4.241   3.797
27904WAT      O83953   5.510   9.440   0.571
27904WAT     H183954   5.480   9.535   0.562
27904WAT     H283955   5.590   9.426   0.512
27905WAT      O83956   2.338   0.488   0.139
27905WAT     H183957   2.383   0.524   0.221
27905WAT     H283958   2.276   0.556   0.102
27906WAT      O83959   6.363   9.026   4.241
27906WAT     H183960   6.331   8.939   4.202
27906WAT     H283961   6.304   9.053   4.317
27907WAT      O83962   9.849   5.300   3.791
27907WAT     H183963   9.888   5.387   3.760
27907WAT     H283964   9.851   5.296   3.891
27908WAT      O83965   6.751   5.503   5.447
27908WAT     H183966   6.652   5.518   5.437
27908WAT     H283967   6.801   5.578   5.404
27909WAT      O83968   1.769   2.652   3.998
27909WAT     H183969   1.834   2.724   4.019
27909WAT     H283970   1.818   2.565   3.986
27910WAT      O83971   1.223   6.802   2.349
27910WAT     H183972   1.273   6.887   2.366
27910WAT     H283973   1.134   6.823   2.310
27911WAT      O83974   1.654   1.319   9.737
27911WAT     H183975   1.700   1.402   9.769
27911WAT     H283976   1.722   1.251   9.710
27912WAT      O83977   7.823   0.017   4.530
27912WAT     H183978   7.899   0.044   4.590
27912WAT     H283979   7.803  -0.080   4.544
27913WAT      O83980   7.571   8.981   7.479
27913WAT     H183981   7.491   8.943   7.433
27913WAT     H283982   7.577   8.943   7.572
27914WAT      O83983   3.165   3.334   5.860
27914WAT     H183984   3.075   3.341   5.902
27914WAT     H283985   3.170   3.253   5.802
27915WAT      O83986   4.792   4.789   9.407
27915WAT     H183987   4.882   4.831   9.421
27915WAT     H283988   4.728   4.824   9.475
27916WAT      O83989   5.437   3.206   4.882
27916WAT     H183990   5.373   3.267   4.930
27916WAT     H283991   5.448   3.238   4.788
27917WAT      O83992   2.857   6.436   2.533
27917WAT     H183993   2.921   6.411   2.460
27917WAT     H283994   2.903   6.497   2.598
27918WAT      O83995   5.837   8.941   1.380
27918WAT     H183996   5.860   8.844   1.372
27918WAT     H283997   5.915   8.996   1.349
27919WAT      O83998   3.876   7.839   8.626
27919WAT     H183999   3.819   7.847   8.545
27919WAT     H284000   3.920   7.927   8.645
27920WAT      O84001   2.972   5.365   8.459
27920WAT     H184002   2.942   5.435   8.394
27920WAT     H284003   2.900   5.296   8.469
27921WAT      O84004   4.052   9.037   2.551
27921WAT     H184005   4.091   9.106   2.490
27921WAT     H284006   4.088   8.946   2.527
27922WAT      O84007   2.988   0.197   4.180
27922WAT     H184008   3.000   0.097   4.183
27922WAT     H284009   2.991   0.234   4.272
27923WAT      O84010   6.262   3.019   4.563
27923WAT     H184011   6.322   3.026   4.483
27923WAT     H284012   6.169   3.000   4.534
27924WAT      O84013   9.587   0.852   5.338
27924WAT     H184014   9.624   0.912   5.409
27924WAT     H284015   9.517   0.902   5.286
27925WAT      O84016   0.742   8.093   4.843
27925WAT     H184017   0.776   8.016   4.896
27925WAT     H284018   0.743   8.175   4.899
27926WAT      O84019   8.814   1.703   7.311
27926WAT     H184020   8.899   1.652   7.321
27926WAT     H284021   8.835   1.795   7.276
27927WAT      O84022   4.898   5.096   2.649
27927WAT     H184023   4.803   5.078   2.624
27927WAT     H284024   4.905   5.183   2.697
27928WAT      O84025   4.964   9.140   9.148
27928WAT     H184026   4.976   9.217   9.086
27928WAT     H284027   4.923   9.064   9.099
27929WAT      O84028   2.329   4.839   5.796
27929WAT     H184029   2.307   4.893   5.716
27929WAT     H284030   2.417   4.869   5.834
27930WAT      O84031   4.337   7.316   7.007
27930WAT     H184032   4.335   7.230   6.956
27930WAT     H284033   4.298   7.302   7.098
27931WAT      O84034   1.252   3.376   8.405
27931WAT     H184035   1.232   3.279   8.392
27931WAT     H284036   1.207   3.430   8.334
27932WAT      O84037   0.033   6.031   8.490
27932WAT     H184038  -0.001   5.937   8.502
27932WAT     H284039  -0.002   6.089   8.563
27933WAT      O84040   6.485   0.006   4.678
27933WAT     H184041   6.515   0.022   4.584
27933WAT     H284042   6.540  -0.067   4.718
27934WAT      O84043   1.544   4.584   2.554
27934WAT     H184044   1.488   4.664   2.571
27934WAT     H284045   1.527   4.516   2.625
27935WAT      O84046   0.820   8.279   3.639
27935WAT     H184047   0.814   8.234   3.728
27935WAT     H284048   0.782   8.371   3.645
27936WAT      O84049   1.631   6.134   5.351
27936WAT     H184050   1.602   6.063   5.287
27936WAT     H284051   1.550   6.172   5.397
27937WAT      O84052   6.001   8.896   5.989
27937WAT     H184053   6.031   8.825   6.053
27937WAT     H284054   6.055   8.979   6.004
27938WAT      O84055   1.346   3.339   4.873
27938WAT     H184056   1.371   3.339   4.776
27938WAT     H284057   1.282   3.413   4.891
27939WAT      O84058   4.849   5.249   6.915
27939WAT     H184059   4.906   5.212   6.842
27939WAT     H284060   4.804   5.333   6.883
27940WAT      O84061   0.913   6.735   1.349
27940WAT     H184062   0.954   6.644   1.337
27940WAT     H284063   0.828   6.727   1.400
27941WAT      O84064   0.767   0.620   6.817
27941WAT     H184065   0.843   0.685   6.820
27941WAT     H284066   0.732   0.606   6.910
27942WAT      O84067   7.992   4.577   7.977
27942WAT     H184068   7.933   4.651   7.943
27942WAT     H284069   8.068   4.563   7.914
27943WAT      O84070   4.606   1.232   6.631
27943WAT     H184071   4.690   1.178   6.631
27943WAT     H284072   4.587   1.264   6.538
27944WAT      O84073   5.139   3.012   5.887
27944WAT     H184074   5.212   3.012   5.819
27944WAT     H284075   5.050   3.020   5.841
27945WAT      O84076   8.310   2.998   5.238
27945WAT     H184077   8.324   2.899   5.240
27945WAT     H284078   8.397   3.044   5.252
27946WAT      O84079   2.441   1.865   4.275
27946WAT     H184080   2.531   1.838   4.309
27946WAT     H284081   2.425   1.962   4.294
27947WAT      O84082   8.950   7.020   5.071
27947WAT     H184083   9.020   6.956   5.039
27947WAT     H284084   8.876   6.969   5.114
27948WAT      O84085   7.649   3.161   8.564
27948WAT     H184086   7.725   3.219   8.534
27948WAT     H284087   7.621   3.102   8.488
27949WAT      O84088   6.328   4.781   5.324
27949WAT     H184089   6.233   4.765   5.349
27949WAT     H284090   6.342   4.754   5.228
27950WAT      O84091   2.308   4.984   7.061
27950WAT     H184092   2.316   5.072   7.015
27950WAT     H284093   2.212   4.957   7.065
27951WAT      O84094   4.022   1.131   0.740
27951WAT     H184095   4.113   1.168   0.754
27951WAT     H284096   3.969   1.194   0.683
27952WAT      O84097   5.984   0.888   5.933
27952WAT     H184098   5.968   0.952   5.859
27952WAT     H284099   5.988   0.937   6.020
27953WAT      O84100   4.652   4.240   4.216
27953WAT     H184101   4.681   4.164   4.157
27953WAT     H284102   4.689   4.326   4.180
27954WAT      O84103   4.657   4.282   1.358
27954WAT     H184104   4.685   4.378   1.362
27954WAT     H284105   4.591   4.263   1.430
27955WAT      O84106   5.836   9.110   4.523
27955WAT     H184107   5.875   9.030   4.476
27955WAT     H284108   5.850   9.100   4.622
27956WAT      O84109   3.953   3.433   3.060
27956WAT     H184110   3.925   3.357   3.119
27956WAT     H284111   3.899   3.431   2.976
27957WAT      O84112   0.562   6.167   8.038
27957WAT     H184113   0.536   6.260   8.062
27957WAT     H284114   0.655   6.167   8.001
27958WAT      O84115   5.529   7.718   0.523
27958WAT     H184116   5.508   7.639   0.581
27958WAT     H284117   5.618   7.704   0.479
27959WAT      O84118   7.311   3.978   0.488
27959WAT     H184119   7.214   3.974   0.510
27959WAT     H284120   7.357   4.039   0.552
27960WAT      O84121   7.170   0.249   9.344
27960WAT     H184122   7.247   0.218   9.289
27960WAT     H284123   7.086   0.206   9.312
27961WAT      O84124   7.021   4.412   3.229
27961WAT     H184125   7.102   4.356   3.246
27961WAT     H284126   7.045   4.489   3.170
27962WAT      O84127   2.804   0.221   3.863
27962WAT     H184128   2.773   0.127   3.876
27962WAT     H284129   2.902   0.221   3.842
27963WAT      O84130   2.678   8.056   8.078
27963WAT     H184131   2.721   8.011   8.156
27963WAT     H284132   2.728   8.033   7.994
27964WAT      O84133   2.512   6.709   8.546
27964WAT     H184134   2.605   6.689   8.576
27964WAT     H284135   2.447   6.660   8.604
27965WAT      O84136   6.597   6.058   5.081
27965WAT     H184137   6.622   6.046   4.984
27965WAT     H284138   6.639   5.985   5.135
27966WAT      O84139   0.493   7.400   2.187
27966WAT     H184140   0.505   7.315   2.238
27966WAT     H284141   0.460   7.472   2.248
27967WAT      O84142   1.199   6.916   2.948
27967WAT     H184143   1.215   6.841   2.884
27967WAT     H284144   1.284   6.937   2.996
27968WAT      O84145   8.978   6.214   8.028
27968WAT     H184146   9.056   6.235   7.969
27968WAT     H284147   8.893   6.228   7.978
27969WAT      O84148   6.805   0.274   2.714
27969WAT     H184149   6.813   0.175   2.700
27969WAT     H284150   6.740   0.312   2.649
27970WAT      O84151   7.269   2.136   9.843
27970WAT     H184152   7.347   2.168   9.896
27970WAT     H284153   7.208   2.084   9.903
27971WAT      O84154   7.712   5.573   7.368
27971WAT     H184155   7.754   5.663   7.374
27971WAT     H284156   7.651   5.559   7.446
27972WAT      O84157   7.582   5.145   6.135
27972WAT     H184158   7.638   5.140   6.218
27972WAT     H284159   7.595   5.234   6.092
27973WAT      O84160   2.221   4.676   9.534
27973WAT     H184161   2.269   4.591   9.559
27973WAT     H284162   2.122   4.659   9.533
27974WAT      O84163   1.705   2.047   4.443
27974WAT     H184164   1.799   2.080   4.457
27974WAT     H284165   1.688   1.968   4.501
27975WAT      O84166   9.735   3.758   7.531
27975WAT     H184167   9.717   3.674   7.581
27975WAT     H284168   9.719   3.744   7.433
27976WAT      O84169   5.056   5.170   1.656
27976WAT     H184170   5.014   5.125   1.735
27976WAT     H284171   4.989   5.176   1.582
27977WAT      O84172   8.874   1.797   0.138
27977WAT     H184173   8.776   1.789   0.121
27977WAT     H284174   8.914   1.705   0.144
27978WAT      O84175   3.483   3.109   5.079
27978WAT     H184176   3.581   3.121   5.060
27978WAT     H284177   3.434   3.099   4.993
27979WAT      O84178   8.112   0.128   7.647
27979WAT     H184179   8.154   0.040   7.623
27979WAT     H284180   8.090   0.178   7.563
27980WAT      O84181   3.701   7.593   9.156
27980WAT     H184182   3.701   7.693   9.153
27980WAT     H284183   3.752   7.558   9.077
27981WAT      O84184   4.426   3.216   9.844
27981WAT     H184185   4.496   3.237   9.912
27981WAT     H284186   4.469   3.180   9.762
27982WAT      O84187   4.250   3.904   7.672
27982WAT     H184188   4.280   3.922   7.578
27982WAT     H284189   4.259   3.806   7.691
27983WAT      O84190   3.177   2.367   2.200
27983WAT     H184191   3.261   2.414   2.229
27983WAT     H284192   3.185   2.270   2.223
27984WAT      O84193   6.872   5.503   9.379
27984WAT     H184194   6.855   5.404   9.377
27984WAT     H284195   6.786   5.550   9.400
27985WAT      O84196   3.701   9.776   3.179
27985WAT     H184197   3.660   9.856   3.221
27985WAT     H284198   3.784   9.750   3.229
27986WAT      O84199   9.560   8.120   5.486
27986WAT     H184200   9.471   8.092   5.523
27986WAT     H284201   9.581   8.213   5.517
27987WAT      O84202   8.848   3.522   0.230
27987WAT     H184203   8.806   3.586   0.295
27987WAT     H284204   8.783   3.499   0.158
27988WAT      O84205   2.445   7.296   6.849
27988WAT     H184206   2.441   7.298   6.949
27988WAT     H284207   2.486   7.380   6.816
27989WAT      O84208   0.676   9.057   2.750
27989WAT     H184209   0.690   8.961   2.725
27989WAT     H284210   0.583   9.068   2.786
27990WAT      O84211   3.275   7.271   4.053
27990WAT     H184212   3.228   7.355   4.029
27990WAT     H284213   3.374   7.284   4.044
27991WAT      O84214   9.597   8.349   8.880
27991WAT     H184215   9.612   8.251   8.870
27991WAT     H284216   9.579   8.371   8.976
27992WAT      O84217   3.816   8.579   2.762
27992WAT     H184218   3.859   8.505   2.813
27992WAT     H284219   3.824   8.561   2.664
27993WAT      O84220   6.052   4.510   9.221
27993WAT     H184221   6.032   4.420   9.260
27993WAT     H284222   6.097   4.499   9.132
27994WAT      O84223   4.849   2.259   0.658
27994WAT     H184224   4.899   2.343   0.637
27994WAT     H284225   4.807   2.266   0.748
27995WAT      O84226   1.715   7.754   7.739
27995WAT     H184227   1.742   7.732   7.832
27995WAT     H284228   1.704   7.670   7.686
27996WAT      O84229   7.086   4.073   4.037
27996WAT     H184230   7.036   4.113   4.113
27996WAT     H284231   7.179   4.052   4.065
27997WAT      O84232   8.277   0.273   5.325
27997WAT     H184233   8.258   0.347   5.390
27997WAT     H284234   8.342   0.209   5.365
27998WAT      O84235   7.677   5.008   2.021
27998WAT     H184236   7.722   4.936   2.074
27998WAT     H284237   7.578   5.000   2.032
27999WAT      O84238   0.104   8.976   9.494
27999WAT     H184239   0.095   9.049   9.561
27999WAT     H284240   0.054   8.895   9.526
28000WAT      O84241   9.564   8.800   3.011
28000WAT     H184242   9.657   8.829   3.032
28000WAT     H284243   9.508   8.803   3.094
28001WAT      O84244   0.153   4.285   3.844
28001WAT     H184245   0.216   4.338   3.900
28001WAT     H284246   0.068   4.336   3.832
28002WAT      O84247   6.785   8.998   2.331
28002WAT     H184248   6.877   9.034   2.348
28002WAT     H284249   6.717   9.066   2.356
28003WAT      O84250   7.285   1.057   6.060
28003WAT     H184251   7.254   0.962   6.069
28003WAT     H284252   7.209   1.119   6.076
28004WAT      O84253   8.942   0.232   2.111
28004WAT     H184254   8.966   0.211   2.017
28004WAT     H284255   8.949   0.150   2.167
28005WAT      O84256   2.028   1.685   5.464
28005WAT     H184257   2.004   1.622   5.390
28005WAT     H284258   1.955   1.753   5.473
28006WAT      O84259   7.137   9.630   5.277
28006WAT     H184260   7.202   9.558   5.302
28006WAT     H284261   7.182   9.694   5.215
28007WAT      O84262   2.967   2.492   2.108
28007WAT     H184263   2.951   2.536   2.196
28007WAT     H284264   3.058   2.451   2.107
28008WAT      O84265   2.579   9.685   7.356
28008WAT     H184266   2.582   9.586   7.369
28008WAT     H284267   2.645   9.729   7.418
28009WAT      O84268   7.865   0.314   9.179
28009WAT     H184269   7.939   0.271   9.128
28009WAT     H284270   7.777   0.281   9.144
28010WAT      O84271   9.622   3.367   3.412
28010WAT     H184272   9.674   3.429   3.353
28010WAT     H284273   9.547   3.416   3.456
28011WAT      O84274   9.232   7.110   2.485
28011WAT     H184275   9.239   7.122   2.386
28011WAT     H284276   9.157   7.047   2.505
28012WAT      O84277   8.874   0.135   8.413
28012WAT     H184278   8.799   0.198   8.394
28012WAT     H284279   8.860   0.050   8.361
28013WAT      O84280   8.993   7.136   6.753
28013WAT     H184281   8.901   7.116   6.787
28013WAT     H284282   8.991   7.220   6.699
28014WAT      O84283   2.200   7.505   5.097
28014WAT     H184284   2.282   7.495   5.041
28014WAT     H284285   2.122   7.527   5.038
28015WAT      O84286   9.486   9.695   2.031
28015WAT     H184287   9.431   9.619   2.067
28015WAT     H284288   9.458   9.780   2.075
28016WAT      O84289   9.680   2.090   0.356
28016WAT     H184290   9.588   2.082   0.317
28016WAT     H284291   9.673   2.091   0.456
28017WAT      O84292   2.321   3.150   2.776
28017WAT     H184293   2.228   3.157   2.740
28017WAT     H284294   2.322   3.090   2.856
28018WAT      O84295   0.346   3.306   0.799
28018WAT     H184296   0.318   3.220   0.755
28018WAT     H284297   0.379   3.287   0.891
28019WAT      O84298   9.869   3.376   7.583
28019WAT     H184299   9.869   3.404   7.487
28019WAT     H284300   9.933   3.434   7.635
28020WAT      O84301   2.597   2.978   4.530
28020WAT     H184302   2.696   2.995   4.533
28020WAT     H284303   2.561   2.970   4.622
28021WAT      O84304   6.856   2.098   2.722
28021WAT     H184305   6.758   2.118   2.723
28021WAT     H284306   6.906   2.176   2.684
28022WAT      O84307   5.893   2.599   8.516
28022WAT     H184308   5.886   2.628   8.421
28022WAT     H284309   5.831   2.522   8.532
28023WAT      O84310   4.358   9.761   8.482
28023WAT     H184311   4.297   9.714   8.546
28023WAT     H284312   4.304   9.821   8.423
28024WAT      O84313   2.884   9.738   1.525
28024WAT     H184314   2.825   9.658   1.534
28024WAT     H284315   2.975   9.710   1.495
28025WAT      O84316   2.743   8.314   8.434
28025WAT     H184317   2.719   8.235   8.492
28025WAT     H284318   2.732   8.398   8.486
28026WAT      O84319   6.695   7.745   2.756
28026WAT     H184320   6.784   7.784   2.732
28026WAT     H284321   6.695   7.720   2.853
28027WAT      O84322   5.178   7.817   8.487
28027WAT     H184323   5.230   7.902   8.501
28027WAT     H284324   5.152   7.779   8.576
28028WAT      O84325   8.162   3.276   8.532
28028WAT     H184326   8.145   3.361   8.483
28028WAT     H284327   8.110   3.275   8.618
28029WAT      O84328   2.651   5.385   1.126
28029WAT     H184329   2.740   5.391   1.172
28029WAT     H284330   2.657   5.425   1.035
28030WAT      O84331   6.841   2.600   8.448
28030WAT     H184332   6.867   2.692   8.476
28030WAT     H284333   6.917   2.537   8.462
28031WAT      O84334   5.802   3.429   1.952
28031WAT     H184335   5.880   3.366   1.946
28031WAT     H284336   5.732   3.402   1.886
28032WAT      O84337   1.358   5.845   8.293
28032WAT     H184338   1.395   5.937   8.283
28032WAT     H284339   1.402   5.784   8.228
28033WAT      O84340   5.350   2.962   8.610
28033WAT     H184341   5.448   2.939   8.608
28033WAT     H284342   5.301   2.894   8.665
28034WAT      O84343   7.246   9.010   2.095
28034WAT     H184344   7.167   9.055   2.053
28034WAT     H284345   7.302   8.968   2.023
28035WAT      O84346   4.357   2.107   1.310
28035WAT     H184347   4.313   2.021   1.286
28035WAT     H284348   4.337   2.175   1.239
28036WAT      O84349   0.126   1.807   3.727
28036WAT     H184350   0.063   1.837   3.799
28036WAT     H284351   0.220   1.829   3.753
28037WAT      O84352   4.591   0.143   4.375
28037WAT     H184353   4.508   0.146   4.431
28037WAT     H284354   4.635   0.054   4.385
28038WAT      O84355   8.236   6.921   8.394
28038WAT     H184356   8.228   7.016   8.422
28038WAT     H284357   8.277   6.916   8.303
28039WAT      O84358   2.934   5.301   9.296
28039WAT     H184359   2.958   5.217   9.249
28039WAT     H284360   2.838   5.322   9.281
28040WAT      O84361   1.053   2.138   1.682
28040WAT     H184362   1.066   2.057   1.738
28040WAT     H284363   1.132   2.151   1.622
28041WAT      O84364   9.058   7.285   3.401
28041WAT     H184365   8.996   7.209   3.383
28041WAT     H284366   9.120   7.261   3.476
28042WAT      O84367   7.903   6.265   1.834
28042WAT     H184368   7.959   6.309   1.904
28042WAT     H284369   7.811   6.249   1.871
28043WAT      O84370   4.847   1.122   1.048
28043WAT     H184371   4.943   1.140   1.068
28043WAT     H284372   4.838   1.029   1.011
28044WAT      O84373   9.786   4.716   1.898
28044WAT     H184374   9.871   4.764   1.918
28044WAT     H284375   9.806   4.620   1.880
28045WAT      O84376   4.805   6.488   3.785
28045WAT     H184377   4.768   6.494   3.692
28045WAT     H284378   4.858   6.404   3.793
28046WAT      O84379   5.285   2.458   3.199
28046WAT     H184380   5.328   2.513   3.271
28046WAT     H284381   5.307   2.497   3.109
28047WAT      O84382   2.151   2.867   2.551
28047WAT     H184383   2.052   2.874   2.561
28047WAT     H284384   2.181   2.924   2.475
28048WAT      O84385   8.852   6.572   6.745
28048WAT     H184386   8.888   6.665   6.755
28048WAT     H284387   8.925   6.506   6.761
28049WAT      O84388   4.428   3.339   1.911
28049WAT     H184389   4.394   3.381   1.995
28049WAT     H284390   4.400   3.394   1.832
28050WAT      O84391   8.082   6.005   4.412
28050WAT     H184392   8.092   6.009   4.512
28050WAT     H284393   8.053   5.913   4.386
28051WAT      O84394   4.084   7.648   1.595
28051WAT     H184395   4.019   7.715   1.560
28051WAT     H284396   4.162   7.640   1.533
28052WAT      O84397   1.041   1.528   7.488
28052WAT     H184398   1.121   1.516   7.548
28052WAT     H284399   0.967   1.468   7.518
28053WAT      O84400   4.657   6.035   9.610
28053WAT     H184401   4.677   6.078   9.697
28053WAT     H284402   4.655   5.935   9.620
28054WAT      O84403   6.249   4.906   6.049
28054WAT     H184404   6.294   4.818   6.060
28054WAT     H284405   6.179   4.917   6.120
28055WAT      O84406   2.776   8.166   2.772
28055WAT     H184407   2.831   8.232   2.824
28055WAT     H284408   2.828   8.133   2.694
28056WAT      O84409   3.076   8.164   4.426
28056WAT     H184410   3.044   8.136   4.335
28056WAT     H284411   3.070   8.087   4.489
28057WAT      O84412   6.510   7.240   4.986
28057WAT     H184413   6.417   7.209   4.964
28057WAT     H284414   6.508   7.337   5.010
28058WAT      O84415   5.911   5.997   4.477
28058WAT     H184416   5.826   5.959   4.515
28058WAT     H284417   5.985   5.988   4.543
28059WAT      O84418   6.847   4.387   0.450
28059WAT     H184419   6.772   4.349   0.397
28059WAT     H284420   6.913   4.315   0.472
28060WAT      O84421   8.630   0.895   3.818
28060WAT     H184422   8.646   0.862   3.911
28060WAT     H284423   8.539   0.866   3.788
28061WAT      O84424   3.573   4.609   3.215
28061WAT     H184425   3.621   4.525   3.190
28061WAT     H284426   3.552   4.661   3.133
28062WAT      O84427   0.986   6.132   2.251
28062WAT     H184428   1.044   6.063   2.209
28062WAT     H284429   1.043   6.194   2.306
28063WAT      O84430   6.978   7.320   3.498
28063WAT     H184431   6.882   7.296   3.509
28063WAT     H284432   7.020   7.263   3.428
28064WAT      O84433   5.154   6.951   3.674
28064WAT     H184434   5.143   7.018   3.601
28064WAT     H284435   5.241   6.967   3.721
28065WAT      O84436   4.532   2.784   0.869
28065WAT     H184437   4.529   2.850   0.795
28065WAT     H284438   4.448   2.789   0.923
28066WAT      O84439   1.372   8.819   1.826
28066WAT     H184440   1.319   8.893   1.867
28066WAT     H284441   1.314   8.738   1.817
28067WAT      O84442   5.258   2.956   2.419
28067WAT     H184443   5.206   2.922   2.497
28067WAT     H284444   5.304   2.880   2.374
28068WAT      O84445   4.545   3.379   0.991
28068WAT     H184446   4.524   3.347   1.083
28068WAT     H284447   4.488   3.458   0.969
28069WAT      O84448   4.470   6.208   0.211
28069WAT     H184449   4.526   6.176   0.287
28069WAT     H284450   4.398   6.141   0.192
28070WAT      O84451   7.703   2.240   9.448
28070WAT     H184452   7.752   2.327   9.439
28070WAT     H284453   7.685   2.203   9.357
28071WAT      O84454   6.672   0.065   1.524
28071WAT     H184455   6.753   0.118   1.550
28071WAT     H284456   6.628   0.108   1.446
28072WAT      O84457   3.851   4.430   2.834
28072WAT     H184458   3.932   4.474   2.872
28072WAT     H284459   3.832   4.469   2.743
28073WAT      O84460   0.816   0.671   4.864
28073WAT     H184461   0.871   0.738   4.815
28073WAT     H284462   0.719   0.692   4.852
28074WAT      O84463   4.740   3.501   0.812
28074WAT     H184464   4.653   3.451   0.817
28074WAT     H284465   4.739   3.577   0.876
28075WAT      O84466   3.799   9.444   1.465
28075WAT     H184467   3.826   9.452   1.561
28075WAT     H284468   3.755   9.528   1.436
28076WAT      O84469   0.986   3.998   5.493
28076WAT     H184470   0.887   3.995   5.487
28076WAT     H284471   1.024   3.908   5.473
28077WAT      O84472   8.227   8.344   8.579
28077WAT     H184473   8.216   8.257   8.629
28077WAT     H284474   8.323   8.359   8.558
28078WAT      O84475   8.379   6.259   8.752
28078WAT     H184476   8.383   6.357   8.731
28078WAT     H284477   8.303   6.218   8.702
28079WAT      O84478   3.361   3.619   7.785
28079WAT     H184479   3.344   3.552   7.857
28079WAT     H284480   3.275   3.664   7.761
28080WAT      O84481   1.382   8.051   8.037
28080WAT     H184482   1.425   7.970   7.997
28080WAT     H284483   1.288   8.030   8.063
28081WAT      O84484   6.150   4.010   1.099
28081WAT     H184485   6.137   3.955   1.017
28081WAT     H284486   6.231   3.977   1.148
28082WAT      O84487   0.190   3.587   5.610
28082WAT     H184488   0.141   3.613   5.526
28082WAT     H284489   0.205   3.669   5.666
28083WAT      O84490   8.295   7.567   5.461
28083WAT     H184491   8.232   7.577   5.384
28083WAT     H284492   8.308   7.655   5.506
28084WAT      O84493   5.294   7.659   2.377
28084WAT     H184494   5.210   7.683   2.424
28084WAT     H284495   5.274   7.596   2.302
28085WAT      O84496   5.700   0.796   2.754
28085WAT     H184497   5.794   0.814   2.726
28085WAT     H284498   5.682   0.840   2.842
28086WAT      O84499   0.249   3.974   5.945
28086WAT     H184500   0.265   4.013   5.854
28086WAT     H284501   0.246   3.874   5.938
28087WAT      O84502   6.229   1.800   8.550
28087WAT     H184503   6.195   1.890   8.578
28087WAT     H284504   6.266   1.752   8.630
28088WAT      O84505   3.695   5.216   0.881
28088WAT     H184506   3.629   5.189   0.951
28088WAT     H284507   3.742   5.299   0.911
28089WAT      O84508   7.555   0.454   8.223
28089WAT     H184509   7.594   0.406   8.145
28089WAT     H284510   7.500   0.390   8.278
28090WAT      O84511   6.541   0.883   0.831
28090WAT     H184512   6.600   0.964   0.820
28090WAT     H284513   6.536   0.833   0.745
28091WAT      O84514   8.315   8.814   8.242
28091WAT     H184515   8.315   8.800   8.341
28091WAT     H284516   8.329   8.911   8.222
28092WAT      O84517   5.442   0.174   0.689
28092WAT     H184518   5.393   0.255   0.656
28092WAT     H284519   5.514   0.150   0.625
28093WAT      O84520   2.053   3.321   4.168
28093WAT     H184521   2.120   3.395   4.164
28093WAT     H284522   2.090   3.240   4.123
28094WAT      O84523   6.188   7.185   4.489
28094WAT     H184524   6.262   7.119   4.483
28094WAT     H284525   6.205   7.261   4.427
28095WAT      O84526   4.227   9.281   1.059
28095WAT     H184527   4.195   9.188   1.045
28095WAT     H284528   4.159   9.346   1.023
28096WAT      O84529   6.666   4.762   7.974
28096WAT     H184530   6.734   4.717   8.033
28096WAT     H284531   6.625   4.839   8.023
28097WAT      O84532   6.184   1.720   1.300
28097WAT     H184533   6.088   1.749   1.300
28097WAT     H284534   6.209   1.688   1.209
28098WAT      O84535   4.024   9.419   7.376
28098WAT     H184536   4.077   9.458   7.451
28098WAT     H284537   3.936   9.466   7.369
28099WAT      O84538   0.828   4.088   4.832
28099WAT     H184539   0.893   4.129   4.895
28099WAT     H284540   0.742   4.069   4.880
28100WAT      O84541   4.099   0.755   6.134
28100WAT     H184542   4.030   0.683   6.131
28100WAT     H284543   4.147   0.759   6.046
28101WAT      O84544   4.499   0.247   6.847
28101WAT     H184545   4.585   0.289   6.876
28101WAT     H284546   4.513   0.200   6.759
28102WAT      O84547   2.656   4.204   1.638
28102WAT     H184548   2.749   4.168   1.651
28102WAT     H284549   2.594   4.128   1.615
28103WAT      O84550   5.265   9.485   3.827
28103WAT     H184551   5.206   9.525   3.757
28103WAT     H284552   5.338   9.432   3.784
28104WAT      O84553   6.786   4.696   2.962
28104WAT     H184554   6.780   4.603   2.926
28104WAT     H284555   6.734   4.758   2.903
28105WAT      O84556   5.276   1.306   0.862
28105WAT     H184557   5.249   1.251   0.783
28105WAT     H284558   5.354   1.264   0.907
28106WAT      O84559   9.505   6.123   9.657
28106WAT     H184560   9.510   6.045   9.720
28106WAT     H284561   9.409   6.140   9.635
28107WAT      O84562   4.086   7.004   4.269
28107WAT     H184563   4.115   7.096   4.295
28107WAT     H284564   4.156   6.962   4.211
28108WAT      O84565   7.068   3.567   4.876
28108WAT     H184566   7.070   3.510   4.958
28108WAT     H284567   7.049   3.662   4.901
28109WAT      O84568   7.323   6.508   6.078
28109WAT     H184569   7.254   6.544   6.016
28109WAT     H284570   7.411   6.502   6.030
28110WAT      O84571   2.420   7.740   9.349
28110WAT     H184572   2.460   7.651   9.331
28110WAT     H284573   2.385   7.779   9.264
28111WAT      O84574   6.692   3.461   4.122
28111WAT     H184575   6.628   3.538   4.117
28111WAT     H284576   6.777   3.490   4.166
28112WAT      O84577   4.582   6.152   5.250
28112WAT     H184578   4.656   6.218   5.259
28112WAT     H284579   4.495   6.200   5.241
28113WAT      O84580   0.667   5.029   6.512
28113WAT     H184581   0.729   5.005   6.587
28113WAT     H284582   0.583   5.067   6.550
28114WAT      O84583   8.414   5.743   1.825
28114WAT     H184584   8.491   5.680   1.822
28114WAT     H284585   8.425   5.813   1.754
28115WAT      O84586   8.816   2.792   2.334
28115WAT     H184587   8.843   2.757   2.244
28115WAT     H284588   8.792   2.888   2.327
28116WAT      O84589   4.726   2.009   5.996
28116WAT     H184590   4.775   2.085   6.039
28116WAT     H284591   4.735   2.015   5.897
28117WAT      O84592   0.223   7.219   7.510
28117WAT     H184593   0.231   7.252   7.604
28117WAT     H284594   0.313   7.188   7.478
28118WAT      O84595   5.628   2.785   9.517
28118WAT     H184596   5.726   2.764   9.515
28118WAT     H284597   5.583   2.739   9.440
28119WAT      O84598   4.509   2.302   3.318
28119WAT     H184599   4.546   2.310   3.225
28119WAT     H284600   4.419   2.257   3.313
28120WAT      O84601   0.393   4.677   0.574
28120WAT     H184602   0.323   4.677   0.504
28120WAT     H284603   0.480   4.645   0.535
28121WAT      O84604   8.212   7.087   7.214
28121WAT     H184605   8.270   7.124   7.286
28121WAT     H284606   8.260   7.013   7.167
28122WAT      O84607   9.463   1.870   9.414
28122WAT     H184608   9.471   1.958   9.367
28122WAT     H284609   9.460   1.885   9.513
28123WAT      O84610   4.978   0.558   7.171
28123WAT     H184611   4.963   0.462   7.196
28123WAT     H284612   5.062   0.565   7.117
28124WAT      O84613   3.640   3.955   4.005
28124WAT     H184614   3.718   3.893   3.997
28124WAT     H284615   3.601   3.972   3.914
28125WAT      O84616   5.075   4.216   3.671
28125WAT     H184617   5.060   4.278   3.595
28125WAT     H284618   5.044   4.124   3.646
28126WAT      O84619   0.396   5.110   5.615
28126WAT     H184620   0.330   5.151   5.678
28126WAT     H284621   0.488   5.140   5.637
28127WAT      O84622   4.645   0.444   5.152
28127WAT     H184623   4.652   0.543   5.143
28127WAT     H284624   4.723   0.401   5.105
28128WAT      O84625   8.230   4.028   9.624
28128WAT     H184626   8.322   4.038   9.662
28128WAT     H284627   8.227   3.950   9.563
28129WAT      O84628   8.254   9.421   0.673
28129WAT     H184629   8.157   9.435   0.650
28129WAT     H284630   8.304   9.507   0.662
28130WAT      O84631   5.344   9.649   2.006
28130WAT     H184632   5.301   9.727   1.961
28130WAT     H284633   5.336   9.658   2.105
28131WAT      O84634   3.795   8.810   1.554
28131WAT     H184635   3.874   8.760   1.518
28131WAT     H284636   3.826   8.884   1.613
28132WAT      O84637   2.965   6.941   5.720
28132WAT     H184638   3.058   6.904   5.714
28132WAT     H284639   2.901   6.868   5.744
28133WAT      O84640   0.096   8.902   7.022
28133WAT     H184641   0.059   8.883   7.113
28133WAT     H284642   0.045   8.850   6.953
28134WAT      O84643   3.431   8.446   7.215
28134WAT     H184644   3.498   8.508   7.174
28134WAT     H284645   3.343   8.493   7.224
28135WAT      O84646   2.828   7.272   9.656
28135WAT     H184647   2.769   7.236   9.584
28135WAT     H284648   2.860   7.363   9.631
28136WAT      O84649   6.142   4.172   8.591
28136WAT     H184650   6.157   4.144   8.686
28136WAT     H284651   6.083   4.106   8.545
28137WAT      O84652   1.329   8.953   4.366
28137WAT     H184653   1.325   9.047   4.333
28137WAT     H284654   1.244   8.930   4.413
28138WAT      O84655   8.744   3.150   2.640
28138WAT     H184656   8.816   3.170   2.573
28138WAT     H284657   8.781   3.161   2.733
28139WAT      O84658   7.996   9.751   5.534
28139WAT     H184659   7.924   9.741   5.602
28139WAT     H284660   8.049   9.834   5.552
28140WAT      O84661   0.654   5.490   5.197
28140WAT     H184662   0.560   5.457   5.195
28140WAT     H284663   0.675   5.535   5.110
28141WAT      O84664   5.689   9.398   4.657
28141WAT     H184665   5.763   9.368   4.717
28141WAT     H284666   5.654   9.320   4.605
28142WAT      O84667   4.305   6.888   2.153
28142WAT     H184668   4.297   6.885   2.253
28142WAT     H284669   4.262   6.971   2.119
28143WAT      O84670   7.127   9.627   2.306
28143WAT     H184671   7.224   9.602   2.297
28143WAT     H284672   7.070   9.547   2.289
28144WAT      O84673   5.814   8.635   5.657
28144WAT     H184674   5.836   8.728   5.685
28144WAT     H284675   5.856   8.570   5.720
28145WAT      O84676   8.941   8.259   3.666
28145WAT     H184677   9.018   8.259   3.602
28145WAT     H284678   8.943   8.175   3.721
28146WAT      O84679   0.426   4.492   9.809
28146WAT     H184680   0.331   4.474   9.834
28146WAT     H284681   0.431   4.516   9.712
28147WAT      O84682   8.245   4.180   3.817
28147WAT     H184683   8.158   4.179   3.868
28147WAT     H284684   8.272   4.086   3.796
28148WAT      O84685   8.840   4.444   8.251
28148WAT     H184686   8.764   4.384   8.225
28148WAT     H284687   8.834   4.465   8.348
28149WAT      O84688   1.775   7.169   5.643
28149WAT     H184689   1.779   7.144   5.547
28149WAT     H284690   1.706   7.240   5.657
28150WAT      O84691   6.248   9.438   2.754
28150WAT     H184692   6.333   9.430   2.805
28150WAT     H284693   6.233   9.533   2.727
28151WAT      O84694   8.189   2.514   7.145
28151WAT     H184695   8.255   2.485   7.076
28151WAT     H284696   8.119   2.443   7.157
28152WAT      O84697   6.615   0.478   5.642
28152WAT     H184698   6.657   0.446   5.727
28152WAT     H284699   6.516   0.486   5.655
28153WAT      O84700   8.566   4.722   2.846
28153WAT     H184701   8.566   4.646   2.781
28153WAT     H284702   8.661   4.751   2.863
28154WAT      O84703   4.008   1.540   7.442
28154WAT     H184704   3.985   1.514   7.348
28154WAT     H284705   3.983   1.467   7.505
28155WAT      O84706   9.520   7.199   7.683
28155WAT     H184707   9.478   7.288   7.702
28155WAT     H284708   9.551   7.158   7.768
28156WAT      O84709   6.911   1.784   5.787
28156WAT     H184710   6.909   1.780   5.688
28156WAT     H284711   6.945   1.697   5.824
28157WAT      O84712   8.033   9.067   0.509
28157WAT     H184713   8.010   8.996   0.442
28157WAT     H284714   8.130   9.062   0.531
28158WAT      O84715   2.629   3.712   6.315
28158WAT     H184716   2.538   3.750   6.330
28158WAT     H284717   2.679   3.771   6.251
28159WAT      O84718   5.754   2.242   3.484
28159WAT     H184719   5.816   2.177   3.441
28159WAT     H284720   5.704   2.197   3.558
28160WAT      O84721   0.801   6.962   1.203
28160WAT     H184722   0.854   6.922   1.277
28160WAT     H284723   0.863   6.995   1.131
28161WAT      O84724   6.847   2.167   3.727
28161WAT     H184725   6.826   2.241   3.791
28161WAT     H284726   6.940   2.135   3.744
28162WAT      O84727   8.263   2.000   0.905
28162WAT     H184728   8.216   1.912   0.903
28162WAT     H284729   8.207   2.069   0.859
28163WAT      O84730   7.566   2.296   5.899
28163WAT     H184731   7.640   2.363   5.891
28163WAT     H284732   7.605   2.206   5.919
28164WAT      O84733   3.598   0.637   9.300
28164WAT     H184734   3.615   0.707   9.370
28164WAT     H284735   3.652   0.657   9.219
28165WAT      O84736   9.466   6.605   3.358
28165WAT     H184737   9.537   6.577   3.293
28165WAT     H284738   9.413   6.524   3.386
28166WAT      O84739   5.287   9.137   1.491
28166WAT     H184740   5.348   9.212   1.468
28166WAT     H284741   5.274   9.079   1.410
28167WAT      O84742   6.973   1.027   1.026
28167WAT     H184743   6.974   0.959   0.953
28167WAT     H284744   6.878   1.047   1.052
28168WAT      O84745   2.958   2.299   2.692
28168WAT     H184746   2.981   2.306   2.595
28168WAT     H284747   3.000   2.216   2.730
28169WAT      O84748   8.761   5.319   8.433
28169WAT     H184749   8.753   5.240   8.372
28169WAT     H284750   8.832   5.380   8.399
28170WAT      O84751   2.866   3.408   2.419
28170WAT     H184752   2.856   3.507   2.430
28170WAT     H284753   2.842   3.382   2.326
28171WAT      O84754   5.163   0.011   9.208
28171WAT     H184755   5.200   0.078   9.144
28171WAT     H284756   5.217  -0.073   9.204
28172WAT      O84757   2.186   7.924   4.345
28172WAT     H184758   2.200   8.013   4.389
28172WAT     H284759   2.133   7.935   4.261
28173WAT      O84760   7.034   3.027   3.488
28173WAT     H184761   6.995   3.023   3.396
28173WAT     H284762   6.963   3.051   3.554
28174WAT      O84763   1.281   6.091   4.970
28174WAT     H184764   1.351   6.154   5.006
28174WAT     H284765   1.191   6.131   4.984
28175WAT      O84766   5.113   5.738   7.449
28175WAT     H184767   5.099   5.711   7.354
28175WAT     H284768   5.082   5.664   7.509
28176WAT      O84769   6.059   0.552   5.798
28176WAT     H184770   6.131   0.615   5.826
28176WAT     H284771   6.099   0.479   5.742
28177WAT      O84772   0.075   8.907   0.124
28177WAT     H184773   0.162   8.856   0.127
28177WAT     H284774   0.091   8.998   0.087
28178WAT      O84775   3.677   4.772   5.566
28178WAT     H184776   3.722   4.817   5.643
28178WAT     H284777   3.635   4.841   5.507
28179WAT      O84778   3.381   0.191   6.324
28179WAT     H184779   3.303   0.250   6.341
28179WAT     H284780   3.443   0.235   6.259
28180WAT      O84781   2.648   3.715   0.564
28180WAT     H184782   2.697   3.628   0.570
28180WAT     H284783   2.601   3.721   0.476
28181WAT      O84784   3.021   8.104   0.822
28181WAT     H184785   2.957   8.062   0.886
28181WAT     H284786   2.973   8.167   0.762
28182WAT      O84787   7.940   2.726   3.046
28182WAT     H184788   7.885   2.699   2.967
28182WAT     H284789   7.996   2.805   3.021
28183WAT      O84790   6.524   2.767   9.810
28183WAT     H184791   6.448   2.804   9.864
28183WAT     H284792   6.548   2.831   9.737
28184WAT      O84793   7.857   5.955   3.661
28184WAT     H184794   7.856   6.032   3.596
28184WAT     H284795   7.910   5.880   3.622
28185WAT      O84796   4.236   1.114   1.410
28185WAT     H184797   4.277   1.096   1.499
28185WAT     H284798   4.162   1.049   1.393
28186WAT      O84799   5.806   0.001   9.792
28186WAT     H184800   5.845   0.069   9.730
28186WAT     H284801   5.714   0.029   9.818
28187WAT      O84802   1.864   9.312   8.648
28187WAT     H184803   1.791   9.294   8.714
28187WAT     H284804   1.899   9.226   8.612
28188WAT      O84805   0.323   0.209   4.291
28188WAT     H184806   0.349   0.142   4.221
28188WAT     H284807   0.240   0.257   4.261
28189WAT      O84808   3.414   6.118   2.407
28189WAT     H184809   3.435   6.198   2.462
28189WAT     H284810   3.471   6.119   2.324
28190WAT      O84811   0.602   0.743   7.819
28190WAT     H184812   0.625   0.760   7.915
28190WAT     H284813   0.546   0.660   7.812
28191WAT      O84814   5.846   4.407   9.758
28191WAT     H184815   5.781   4.411   9.683
28191WAT     H284816   5.810   4.459   9.836
28192WAT      O84817   0.475   8.686   0.744
28192WAT     H184818   0.408   8.692   0.670
28192WAT     H284819   0.540   8.761   0.738
28193WAT      O84820   4.376   0.982   1.189
28193WAT     H184821   4.349   1.006   1.095
28193WAT     H284822   4.354   1.057   1.251
28194WAT      O84823   1.012   9.822   2.354
28194WAT     H184824   1.106   9.856   2.354
28194WAT     H284825   0.975   9.826   2.262
28195WAT      O84826   0.564   6.730   8.055
28195WAT     H184827   0.648   6.739   8.002
28195WAT     H284828   0.550   6.634   8.078
28196WAT      O84829   1.261   4.861   0.987
28196WAT     H184830   1.262   4.862   0.887
28196WAT     H284831   1.328   4.796   1.021
28197WAT      O84832   6.874   2.244   3.007
28197WAT     H184833   6.910   2.270   2.918
28197WAT     H284834   6.932   2.172   3.046
28198WAT      O84835   8.149   9.738   2.782
28198WAT     H184836   8.181   9.780   2.867
28198WAT     H284837   8.052   9.758   2.770
28199WAT      O84838   3.004   8.507   0.856
28199WAT     H184839   3.086   8.518   0.800
28199WAT     H284840   3.029   8.507   0.953
28200WAT      O84841   4.090   0.236   0.107
28200WAT     H184842   4.046   0.200   0.024
28200WAT     H284843   4.044   0.197   0.187
28201WAT      O84844   7.210   1.153   6.927
28201WAT     H184845   7.165   1.127   7.013
28201WAT     H284846   7.142   1.158   6.854
28202WAT      O84847   4.498   2.904   9.477
28202WAT     H184848   4.421   2.857   9.522
28202WAT     H284849   4.508   2.869   9.384
28203WAT      O84850   3.600   9.374   4.609
28203WAT     H184851   3.688   9.417   4.630
28203WAT     H284852   3.590   9.289   4.661
28204WAT      O84853   6.404   1.467   5.111
28204WAT     H184854   6.350   1.389   5.143
28204WAT     H284855   6.475   1.434   5.048
28205WAT      O84856   0.847   2.813   2.032
28205WAT     H184857   0.787   2.883   2.069
28205WAT     H284858   0.909   2.780   2.104
28206WAT      O84859   0.940   6.868   6.476
28206WAT     H184860   1.011   6.904   6.537
28206WAT     H284861   0.850   6.890   6.515
28207WAT      O84862   6.581   0.165   1.293
28207WAT     H184863   6.532   0.102   1.231
28207WAT     H284864   6.528   0.249   1.303
28208WAT      O84865   6.478   0.963   2.692
28208WAT     H184866   6.564   1.013   2.685
28208WAT     H284867   6.402   1.026   2.681
28209WAT      O84868   1.020   3.011   9.891
28209WAT     H184869   1.056   3.104   9.877
28209WAT     H284870   1.096   2.949   9.913
28210WAT      O84871   7.964   0.185   2.395
28210WAT     H184872   8.043   0.243   2.413
28210WAT     H284873   7.974   0.144   2.304
28211WAT      O84874   7.687   6.183   1.974
28211WAT     H184875   7.622   6.177   1.898
28211WAT     H284876   7.720   6.091   1.997
28212WAT      O84877   5.133   2.449   2.795
28212WAT     H184878   5.171   2.539   2.773
28212WAT     H284879   5.196   2.400   2.855
28213WAT      O84880   6.234   7.572   1.956
28213WAT     H184881   6.222   7.634   2.033
28213WAT     H284882   6.186   7.486   1.974
28214WAT      O84883   3.915   2.701   5.820
28214WAT     H184884   3.940   2.604   5.823
28214WAT     H284885   3.984   2.754   5.869
28215WAT      O84886   4.456   8.372   5.937
28215WAT     H184887   4.539   8.420   5.908
28215WAT     H284888   4.377   8.432   5.928
28216WAT      O84889   1.583   2.277   6.008
28216WAT     H184890   1.539   2.334   6.078
28216WAT     H284891   1.513   2.230   5.954
28217WAT      O84892   9.619   3.159   1.574
28217WAT     H184893   9.642   3.242   1.523
28217WAT     H284894   9.520   3.144   1.570
28218WAT      O84895   6.173   9.499   7.662
28218WAT     H184896   6.238   9.526   7.591
28218WAT     H284897   6.198   9.409   7.697
28219WAT      O84898   0.744   0.765   5.822
28219WAT     H184899   0.785   0.724   5.740
28219WAT     H284900   0.773   0.860   5.830
28220WAT      O84901   9.143   7.662   0.908
28220WAT     H184902   9.075   7.605   0.863
28220WAT     H284903   9.186   7.611   0.982
28221WAT      O84904   2.309   2.340   2.323
28221WAT     H184905   2.211   2.324   2.316
28221WAT     H284906   2.326   2.436   2.347
28222WAT      O84907   7.896   1.921   3.108
28222WAT     H184908   7.841   1.859   3.164
28222WAT     H284909   7.970   1.959   3.164
28223WAT      O84910   9.787   7.512   2.452
28223WAT     H184911   9.689   7.495   2.459
28223WAT     H284912   9.817   7.569   2.529
28224WAT      O84913   1.458   8.130   7.082
28224WAT     H184914   1.378   8.169   7.128
28224WAT     H284915   1.441   8.125   6.984
28225WAT      O84916   8.154   2.899   5.725
28225WAT     H184917   8.142   2.878   5.627
28225WAT     H284918   8.200   2.823   5.770
28226WAT      O84919   9.012   7.771   7.216
28226WAT     H184920   8.988   7.798   7.123
28226WAT     H284921   8.932   7.782   7.275
28227WAT      O84922   5.366   6.271   3.654
28227WAT     H184923   5.443   6.305   3.601
28227WAT     H284924   5.360   6.171   3.643
28228WAT      O84925   9.097   3.535   4.106
28228WAT     H184926   9.091   3.438   4.080
28228WAT     H284927   9.190   3.568   4.093
28229WAT      O84928   7.045   2.424   4.144
28229WAT     H184929   7.067   2.522   4.138
28229WAT     H284930   6.993   2.407   4.227
28230WAT      O84931   8.495   4.861   7.435
28230WAT     H184932   8.413   4.848   7.380
28230WAT     H284933   8.470   4.895   7.526
28231WAT      O84934   3.874   4.371   4.385
28231WAT     H184935   3.911   4.283   4.413
28231WAT     H284936   3.853   4.425   4.466
28232WAT      O84937   9.803   4.513   6.654
28232WAT     H184938   9.886   4.471   6.691
28232WAT     H284939   9.725   4.486   6.710
28233WAT      O84940   5.379   7.539   7.199
28233WAT     H184941   5.449   7.607   7.221
28233WAT     H284942   5.400   7.497   7.110
28234WAT      O84943   3.225   8.283   4.624
28234WAT     H184944   3.161   8.266   4.550
28234WAT     H284945   3.264   8.197   4.655
28235WAT      O84946   0.887   8.348   0.305
28235WAT     H184947   0.798   8.311   0.278
28235WAT     H284948   0.958   8.280   0.284
28236WAT      O84949   2.330   3.486   6.704
28236WAT     H184950   2.429   3.498   6.706
28236WAT     H284951   2.299   3.480   6.609
28237WAT      O84952   8.530   6.045   2.286
28237WAT     H184953   8.601   6.077   2.224
28237WAT     H284954   8.503   6.119   2.348
28238WAT      O84955   1.957   2.912   6.767
28238WAT     H184956   1.915   2.916   6.858
28238WAT     H284957   1.982   2.817   6.747
28239WAT      O84958   3.592   6.072   9.411
28239WAT     H184959   3.590   5.987   9.358
28239WAT     H284960   3.598   6.149   9.348
28240WAT      O84961   4.042   3.706   8.917
28240WAT     H184962   3.982   3.627   8.924
28240WAT     H284963   4.127   3.688   8.968
28241WAT      O84964   1.845   1.451   5.053
28241WAT     H184965   1.784   1.530   5.066
28241WAT     H284966   1.860   1.406   5.140
28242WAT      O84967   2.959   8.001   0.382
28242WAT     H184968   2.897   8.039   0.451
28242WAT     H284969   3.053   8.008   0.416
28243WAT      O84970   3.408   2.468   0.296
28243WAT     H184971   3.403   2.562   0.329
28243WAT     H284972   3.494   2.453   0.249
28244WAT      O84973   7.745   0.271   6.152
28244WAT     H184974   7.687   0.193   6.174
28244WAT     H284975   7.839   0.253   6.181
28245WAT      O84976   1.947   6.802   1.847
28245WAT     H184977   2.001   6.718   1.847
28245WAT     H284978   2.009   6.881   1.843
28246WAT      O84979   2.277   6.773   0.040
28246WAT     H184980   2.343   6.715  -0.008
28246WAT     H284981   2.302   6.778   0.137
28247WAT      O84982   6.798   6.920   4.010
28247WAT     H184983   6.852   6.994   4.051
28247WAT     H284984   6.785   6.939   3.913
28248WAT      O84985   4.515   9.260   5.273
28248WAT     H184986   4.540   9.241   5.179
28248WAT     H284987   4.591   9.305   5.320
28249WAT      O84988   7.836   4.782   7.883
28249WAT     H184989   7.835   4.732   7.796
28249WAT     H284990   7.749   4.830   7.895
28250WAT      O84991   9.487   7.564   9.317
28250WAT     H184992   9.516   7.487   9.373
28250WAT     H284993   9.489   7.648   9.372
28251WAT      O84994   5.273   9.280   6.851
28251WAT     H184995   5.234   9.253   6.939
28251WAT     H284996   5.199   9.292   6.784
28252WAT      O84997   8.842   2.273   4.365
28252WAT     H184998   8.858   2.321   4.451
28252WAT     H284999   8.759   2.219   4.372
28253WAT      O85000   0.717   4.269   5.732
28253WAT     H185001   0.662   4.211   5.792
28253WAT     H285002   0.747   4.350   5.782
28254WAT      O85003   4.946   2.145   8.355
28254WAT     H185004   5.045   2.135   8.368
28254WAT     H285005   4.914   2.077   8.289
28255WAT      O85006   6.045   6.945   1.244
28255WAT     H185007   5.996   7.027   1.218
28255WAT     H285008   6.029   6.873   1.177
28256WAT      O85009   4.346   1.781   8.859
28256WAT     H185010   4.446   1.780   8.861
28256WAT     H285011   4.310   1.789   8.952
28257WAT      O85012   9.028   2.118   8.735
28257WAT     H185013   9.066   2.029   8.757
28257WAT     H285014   8.928   2.115   8.746
28258WAT      O85015   7.898   2.211   1.267
28258WAT     H185016   7.949   2.243   1.346
28258WAT     H285017   7.812   2.263   1.260
28259WAT      O85018   9.766   7.264   3.397
28259WAT     H185019   9.675   7.223   3.393
28259WAT     H285020   9.813   7.234   3.480
28260WAT      O85021   4.957   2.567   8.072
28260WAT     H185022   4.957   2.493   8.139
28260WAT     H285023   4.996   2.534   7.986
28261WAT      O85024   6.795   7.963   5.961
28261WAT     H185025   6.721   7.954   5.894
28261WAT     H285026   6.882   7.978   5.913
28262WAT      O85027   3.857   2.326   6.258
28262WAT     H185028   3.899   2.236   6.244
28262WAT     H285029   3.896   2.391   6.193
28263WAT      O85030   3.278   0.802   4.508
28263WAT     H185031   3.197   0.806   4.566
28263WAT     H285032   3.334   0.723   4.533
28264WAT      O85033   0.554   1.351   1.324
28264WAT     H185034   0.635   1.392   1.282
28264WAT     H285035   0.575   1.257   1.352
28265WAT      O85036   3.467   0.208   3.827
28265WAT     H185037   3.409   0.167   3.757
28265WAT     H285038   3.500   0.297   3.796
28266WAT      O85039   5.144   2.956   5.515
28266WAT     H185040   5.091   2.909   5.444
28266WAT     H285041   5.178   2.890   5.581
28267WAT      O85042   0.805   4.446   6.872
28267WAT     H185043   0.766   4.515   6.934
28267WAT     H285044   0.839   4.369   6.926
28268WAT      O85045   7.196   0.155   5.787
28268WAT     H185046   7.292   0.134   5.802
28268WAT     H285047   7.154   0.081   5.734
28269WAT      O85048   0.629   7.436   7.217
28269WAT     H185049   0.670   7.527   7.208
28269WAT     H285050   0.535   7.445   7.249
28270WAT      O85051   1.002   2.428   5.825
28270WAT     H185052   1.028   2.424   5.728
28270WAT     H285053   0.913   2.384   5.837
28271WAT      O85054   4.209   5.888   4.249
28271WAT     H185055   4.193   5.899   4.151
28271WAT     H285056   4.257   5.803   4.266
28272WAT      O85057   1.846   8.544   5.301
28272WAT     H185058   1.786   8.516   5.376
28272WAT     H285059   1.902   8.466   5.273
28273WAT      O85060   5.466   5.009   9.173
28273WAT     H185061   5.435   4.961   9.255
28273WAT     H285062   5.470   5.108   9.191
28274WAT      O85063   7.749   4.117   9.074
28274WAT     H185064   7.772   4.078   9.163
28274WAT     H285065   7.822   4.095   9.008
28275WAT      O85066   1.448   4.621   6.210
28275WAT     H185067   1.473   4.559   6.135
28275WAT     H285068   1.364   4.589   6.252
28276WAT      O85069   9.296   3.703   5.786
28276WAT     H185070   9.225   3.634   5.801
28276WAT     H285071   9.260   3.793   5.808
28277WAT      O85072   1.905   7.699   3.858
28277WAT     H185073   1.829   7.704   3.793
28277WAT     H285074   1.906   7.609   3.901
28278WAT      O85075   0.566   2.726   7.718
28278WAT     H185076   0.567   2.727   7.618
28278WAT     H285077   0.472   2.724   7.751
28279WAT      O85078   6.330   4.248   3.254
28279WAT     H185079   6.348   4.152   3.271
28279WAT     H285080   6.292   4.260   3.162
28280WAT      O85081   5.501   4.842   4.961
28280WAT     H185082   5.447   4.778   5.015
28280WAT     H285083   5.440   4.906   4.914
28281WAT      O85084   2.539   2.734   3.672
28281WAT     H185085   2.603   2.763   3.744
28281WAT     H285086   2.554   2.638   3.650
28282WAT      O85087   8.558   6.728   8.502
28282WAT     H185088   8.503   6.751   8.422
28282WAT     H285089   8.520   6.772   8.583
28283WAT      O85090   6.750   0.933   3.202
28283WAT     H185091   6.837   0.884   3.203
28283WAT     H285092   6.698   0.905   3.121
28284WAT      O85093   0.327   7.065   8.528
28284WAT     H185094   0.227   7.061   8.537
28284WAT     H285095   0.363   7.131   8.594
28285WAT      O85096   5.311   1.826   9.210
28285WAT     H185097   5.397   1.871   9.184
28285WAT     H285098   5.304   1.739   9.162
28286WAT      O85099   0.402   3.487   1.075
28286WAT     H185100   0.308   3.512   1.054
28286WAT     H285101   0.409   3.387   1.082
28287WAT      O85102   6.981   4.739   6.994
28287WAT     H185103   6.959   4.832   7.024
28287WAT     H285104   7.080   4.726   6.997
28288WAT      O85105   1.063   3.992   0.644
28288WAT     H185106   1.156   3.985   0.610
28288WAT     H285107   1.048   3.924   0.715
28289WAT      O85108   7.674   7.822   6.675
28289WAT     H185109   7.607   7.893   6.654
28289WAT     H285110   7.740   7.857   6.742
28290WAT      O85111   6.690   7.995   5.125
28290WAT     H185112   6.597   8.014   5.096
28290WAT     H285113   6.688   7.950   5.215
28291WAT      O85114   2.811   2.425   1.890
28291WAT     H185115   2.861   2.364   1.828
28291WAT     H285116   2.868   2.445   1.969
28292WAT      O85117   2.850   3.111   0.004
28292WAT     H185118   2.896   3.025  -0.017
28292WAT     H285119   2.790   3.099   0.083
28293WAT      O85120   0.690   4.494   2.009
28293WAT     H185121   0.600   4.458   2.032
28293WAT     H285122   0.712   4.570   2.069
28294WAT      O85123   8.255   3.917   0.083
28294WAT     H185124   8.189   3.862   0.033
28294WAT     H285125   8.310   3.971   0.019
28295WAT      O85126   6.385   1.325   8.671
28295WAT     H185127   6.371   1.238   8.623
28295WAT     H285128   6.462   1.374   8.629
28296WAT      O85129   0.652   5.908   5.351
28296WAT     H185130   0.662   5.817   5.391
28296WAT     H285131   0.670   5.903   5.253
28297WAT      O85132   4.155   2.180   7.761
28297WAT     H185133   4.221   2.112   7.732
28297WAT     H285134   4.080   2.136   7.811
28298WAT      O85135   0.796   9.300   4.079
28298WAT     H185136   0.760   9.371   4.019
28298WAT     H285137   0.860   9.340   4.144
28299WAT      O85138   6.249   7.735   2.988
28299WAT     H185139   6.314   7.808   2.970
28299WAT     H285140   6.298   7.651   3.010
28300WAT      O85141   8.079   1.884   8.780
28300WAT     H185142   8.008   1.854   8.717
28300WAT     H285143   8.057   1.975   8.815
28301WAT      O85144   0.764   6.814   0.208
28301WAT     H185145   0.725   6.900   0.241
28301WAT     H285146   0.694   6.763   0.159
28302WAT      O85147   1.721   1.324   3.386
28302WAT     H185148   1.819   1.300   3.392
28302WAT     H285149   1.675   1.257   3.327
28303WAT      O85150   1.029   3.260   2.810
28303WAT     H185151   1.034   3.262   2.710
28303WAT     H285152   0.935   3.277   2.839
28304WAT      O85153   4.247   5.656   6.639
28304WAT     H185154   4.297   5.677   6.723
28304WAT     H285155   4.270   5.725   6.570
28305WAT      O85156   7.837   7.969   0.498
28305WAT     H185157   7.795   7.901   0.558
28305WAT     H285158   7.883   7.923   0.423
28306WAT      O85159   9.357   5.771   1.207
28306WAT     H185160   9.275   5.788   1.151
28306WAT     H285161   9.353   5.677   1.242
28307WAT      O85162   7.723   2.053   7.457
28307WAT     H185163   7.714   2.109   7.375
28307WAT     H285164   7.652   2.077   7.523
28308WAT      O85165   8.176   6.663   7.270
28308WAT     H185166   8.225   6.727   7.210
28308WAT     H285167   8.232   6.641   7.349
28309WAT      O85168   2.243   8.357   3.017
28309WAT     H185169   2.330   8.375   2.971
28309WAT     H285170   2.253   8.277   3.076
28310WAT      O85171   4.181   4.385   8.677
28310WAT     H185172   4.176   4.290   8.707
28310WAT     H285173   4.240   4.392   8.597
28311WAT      O85174   7.442   2.928   9.679
28311WAT     H185175   7.453   2.849   9.618
28311WAT     H285176   7.477   2.906   9.769
28312WAT      O85177   2.034   3.716   4.584
28312WAT     H185178   1.999   3.635   4.633
28312WAT     H285179   1.999   3.799   4.627
28313WAT      O85180   8.876   2.530   3.691
28313WAT     H185181   8.971   2.551   3.667
28313WAT     H285182   8.835   2.610   3.736
28314WAT      O85183   3.133   2.106   5.174
28314WAT     H185184   3.178   2.120   5.085
28314WAT     H285185   3.035   2.091   5.159
28315WAT      O85186   5.262   2.687   2.739
28315WAT     H185187   5.204   2.765   2.717
28315WAT     H285188   5.320   2.664   2.661
28316WAT      O85189   4.384   8.118   6.192
28316WAT     H185190   4.324   8.197   6.184
28316WAT     H285191   4.420   8.113   6.285
28317WAT      O85192   4.727   9.089   6.516
28317WAT     H185193   4.707   9.170   6.461
28317WAT     H285194   4.732   9.114   6.612
28318WAT      O85195   2.518   9.136   5.305
28318WAT     H185196   2.425   9.167   5.285
28318WAT     H285197   2.542   9.160   5.398
28319WAT      O85198   5.283   4.746   8.819
28319WAT     H185199   5.310   4.663   8.769
28319WAT     H285200   5.359   4.778   8.875
28320WAT      O85201   9.320   0.072   8.503
28320WAT     H185202   9.256  -0.001   8.525
28320WAT     H285203   9.281   0.160   8.531
28321WAT      O85204   7.277   0.540   5.209
28321WAT     H185205   7.278   0.635   5.241
28321WAT     H285206   7.360   0.494   5.241
28322WAT      O85207   6.982   3.822   0.943
28322WAT     H185208   7.035   3.800   0.861
28322WAT     H285209   7.027   3.782   1.023
28323WAT      O85210   2.434   4.330   6.021
28323WAT     H185211   2.506   4.376   6.073
28323WAT     H285212   2.463   4.236   6.002
28324WAT      O85213   3.713   8.306   5.354
28324WAT     H185214   3.719   8.397   5.313
28324WAT     H285215   3.779   8.246   5.309
28325WAT      O85216   2.523   8.044   6.321
28325WAT     H185217   2.609   7.994   6.327
28325WAT     H285218   2.500   8.081   6.411
28326WAT      O85219   3.429   1.064   6.810
28326WAT     H185220   3.377   1.141   6.848
28326WAT     H285221   3.520   1.096   6.782
28327WAT      O85222   8.672   1.656   9.289
28327WAT     H185223   8.767   1.679   9.311
28327WAT     H285224   8.669   1.605   9.203
28328WAT      O85225   3.143   9.626   1.502
28328WAT     H185226   3.135   9.637   1.403
28328WAT     H285227   3.204   9.550   1.523
28329WAT      O85228   2.936   9.496   7.736
28329WAT     H185229   2.938   9.452   7.646
28329WAT     H285230   2.987   9.582   7.732
28330WAT      O85231   0.829   0.982   1.850
28330WAT     H185232   0.842   1.080   1.863
28330WAT     H285233   0.761   0.966   1.778
28331WAT      O85234   8.633   2.269   0.616
28331WAT     H185235   8.651   2.183   0.569
28331WAT     H285236   8.535   2.279   0.630
28332WAT      O85237   4.810   4.197   2.272
28332WAT     H185238   4.728   4.153   2.236
28332WAT     H285239   4.813   4.293   2.244
28333WAT      O85240   6.993   5.358   4.688
28333WAT     H185241   6.925   5.325   4.754
28333WAT     H285242   6.960   5.341   4.595
28334WAT      O85243   4.490   3.755   0.190
28334WAT     H185244   4.498   3.718   0.282
28334WAT     H285245   4.558   3.828   0.178
28335WAT      O85246   7.274   3.935   0.058
28335WAT     H185247   7.270   4.033   0.040
28335WAT     H285248   7.285   3.886  -0.029
28336WAT      O85249   7.491   3.365   6.905
28336WAT     H185250   7.545   3.391   6.825
28336WAT     H285251   7.394   3.360   6.879
28337WAT      O85252   6.293   8.877   1.638
28337WAT     H185253   6.273   8.780   1.629
28337WAT     H285254   6.216   8.931   1.604
28338WAT      O85255   3.195   3.078   4.651
28338WAT     H185256   3.244   3.029   4.578
28338WAT     H285257   3.156   3.162   4.614
28339WAT      O85258   5.901   9.307   4.333
28339WAT     H185259   5.944   9.381   4.384
28339WAT     H285260   5.882   9.231   4.394
28340WAT      O85261   7.828   0.914   0.611
28340WAT     H185262   7.814   0.929   0.513
28340WAT     H285263   7.743   0.881   0.652
28341WAT      O85264   7.290   3.089   6.473
28341WAT     H185265   7.309   3.022   6.401
28341WAT     H285266   7.374   3.109   6.523
28342WAT      O85267   0.603   0.857   0.205
28342WAT     H185268   0.686   0.813   0.170
28342WAT     H285269   0.535   0.863   0.131
28343WAT      O85270   4.435   9.024   2.677
28343WAT     H185271   4.468   9.005   2.585
28343WAT     H285272   4.373   8.950   2.706
28344WAT      O85273   3.396   8.740   8.783
28344WAT     H185274   3.342   8.730   8.699
28344WAT     H285275   3.420   8.650   8.819
28345WAT      O85276   0.453   3.735   3.145
28345WAT     H185277   0.501   3.774   3.224
28345WAT     H285278   0.362   3.704   3.173
28346WAT      O85279   9.049   3.672   5.503
28346WAT     H185280   8.956   3.648   5.475
28346WAT     H285281   9.084   3.602   5.565
28347WAT      O85282   1.959   6.016   1.068
28347WAT     H185283   1.908   6.019   0.982
28347WAT     H285284   1.976   5.921   1.093
28348WAT      O85285   1.194   9.100   1.453
28348WAT     H185286   1.120   9.046   1.492
28348WAT     H285287   1.210   9.181   1.511
28349WAT      O85288   0.345   3.008   3.572
28349WAT     H185289   0.356   3.063   3.654
28349WAT     H285290   0.380   2.916   3.588
28350WAT      O85291   4.768   3.809   6.183
28350WAT     H185292   4.744   3.906   6.173
28350WAT     H285293   4.687   3.752   6.169
28351WAT      O85294   8.911   4.594   0.831
28351WAT     H185295   8.947   4.687   0.829
28351WAT     H285296   8.965   4.536   0.770
28352WAT      O85297   0.389   6.270   6.756
28352WAT     H185298   0.370   6.363   6.726
28352WAT     H285299   0.392   6.267   6.856
28353WAT      O85300   0.987   0.015   5.858
28353WAT     H185301   1.022  -0.078   5.847
28353WAT     H285302   0.961   0.051   5.769
28354WAT      O85303   8.814   4.013   6.383
28354WAT     H185304   8.835   3.944   6.452
28354WAT     H285305   8.783   3.967   6.299
28355WAT      O85306   3.576   0.664   6.220
28355WAT     H185307   3.643   0.724   6.175
28355WAT     H285308   3.575   0.575   6.174
28356WAT      O85309   3.035   0.923   0.808
28356WAT     H185310   3.065   1.013   0.777
28356WAT     H285311   3.114   0.862   0.814
28357WAT      O85312   1.146   6.434   3.017
28357WAT     H185313   1.235   6.480   3.009
28357WAT     H285314   1.157   6.348   3.067
28358WAT      O85315   5.158   2.881   9.546
28358WAT     H185316   5.070   2.926   9.531
28358WAT     H285317   5.146   2.809   9.615
28359WAT      O85318   9.135   2.454   7.535
28359WAT     H185319   9.147   2.356   7.521
28359WAT     H285320   9.196   2.486   7.608
28360WAT      O85321   6.143   3.594   1.049
28360WAT     H185322   6.061   3.568   1.101
28360WAT     H285323   6.224   3.554   1.092
28361WAT      O85324   6.600   7.396   8.986
28361WAT     H185325   6.622   7.420   9.081
28361WAT     H285326   6.502   7.411   8.971
28362WAT      O85327   1.157   0.124   5.046
28362WAT     H185328   1.225   0.111   4.974
28362WAT     H285329   1.202   0.114   5.135
28363WAT      O85330   0.114   6.264   2.619
28363WAT     H185331   0.054   6.201   2.569
28363WAT     H285332   0.205   6.263   2.577
28364WAT      O85333   9.045   3.526   7.025
28364WAT     H185334   9.039   3.456   6.953
28364WAT     H285335   8.953   3.545   7.059
28365WAT      O85336   2.046   4.793   4.672
28365WAT     H185337   2.111   4.860   4.707
28365WAT     H285338   2.075   4.701   4.698
28366WAT      O85339   9.878   9.207   7.335
28366WAT     H185340   9.951   9.232   7.271
28366WAT     H285341   9.827   9.289   7.361
28367WAT      O85342   0.973   4.532   4.265
28367WAT     H185343   1.068   4.525   4.295
28367WAT     H285344   0.963   4.606   4.200
28368WAT      O85345   9.685   5.001   8.622
28368WAT     H185346   9.592   4.988   8.656
28368WAT     H285347   9.698   4.944   8.540
28369WAT      O85348   4.104   1.435   6.637
28369WAT     H185349   4.174   1.507   6.635
28369WAT     H285350   4.082   1.407   6.544
28370WAT      O85351   8.122   1.572   1.486
28370WAT     H185352   8.142   1.587   1.389
28370WAT     H285353   8.081   1.482   1.498
28371WAT      O85354   1.212   2.184   0.648
28371WAT     H185355   1.175   2.275   0.631
28371WAT     H285356   1.155   2.137   0.716
28372WAT      O85357   8.587   2.804   0.559
28372WAT     H185358   8.533   2.867   0.503
28372WAT     H285359   8.549   2.712   0.553
28373WAT      O85360   1.553   6.322   2.227
28373WAT     H185361   1.652   6.328   2.221
28373WAT     H285362   1.527   6.227   2.244
28374WAT      O85363   8.464   0.270   4.524
28374WAT     H185364   8.508   0.324   4.451
28374WAT     H285365   8.504   0.179   4.525
28375WAT      O85366   2.290   9.745   6.713
28375WAT     H185367   2.389   9.741   6.706
28375WAT     H285368   2.260   9.840   6.719
28376WAT      O85369   0.037   9.296   3.712
28376WAT     H185370   0.047   9.352   3.795
28376WAT     H285371   0.118   9.309   3.654
28377WAT      O85372   6.431   0.558   3.032
28377WAT     H185373   6.405   0.615   3.110
28377WAT     H285374   6.397   0.465   3.047
28378WAT      O85375   6.918   3.005   5.956
28378WAT     H185376   6.886   2.913   5.978
28378WAT     H285377   6.889   3.068   6.028
28379WAT      O85378   2.277   4.966   9.543
28379WAT     H185379   2.276   4.867   9.527
28379WAT     H285380   2.370   5.001   9.529
28380WAT      O85381   0.880   9.823   1.562
28380WAT     H185382   0.831   9.736   1.570
28380WAT     H285383   0.856   9.882   1.639
28381WAT      O85384   5.675   6.740   1.231
28381WAT     H185385   5.718   6.724   1.320
28381WAT     H285386   5.724   6.688   1.161
28382WAT      O85387   8.731   1.055   1.939
28382WAT     H185388   8.824   1.090   1.923
28382WAT     H285389   8.711   1.059   2.037
28383WAT      O85390   9.766   1.727   2.688
28383WAT     H185391   9.781   1.649   2.626
28383WAT     H285392   9.839   1.731   2.755
28384WAT      O85393   7.764   9.574   4.574
28384WAT     H185394   7.839   9.508   4.574
28384WAT     H285395   7.723   9.579   4.483
28385WAT      O85396   4.249   3.664   6.229
28385WAT     H185397   4.226   3.676   6.133
28385WAT     H285398   4.237   3.568   6.255
28386WAT      O85399   5.994   1.607   6.292
28386WAT     H185400   6.039   1.549   6.225
28386WAT     H285401   6.056   1.680   6.321
28387WAT      O85402   0.396   6.130   2.771
28387WAT     H185403   0.464   6.096   2.706
28387WAT     H285404   0.437   6.198   2.831
28388WAT      O85405   8.605   0.588   9.662
28388WAT     H185406   8.626   0.604   9.759
28388WAT     H285407   8.542   0.510   9.655
28389WAT      O85408   5.446   0.473   9.570
28389WAT     H185409   5.426   0.543   9.639
28389WAT     H285410   5.398   0.494   9.485
28390WAT      O85411   0.607   5.598   1.441
28390WAT     H185412   0.691   5.652   1.431
28390WAT     H285413   0.546   5.617   1.364
28391WAT      O85414   3.996   7.093   3.872
28391WAT     H185415   4.054   7.045   3.807
28391WAT     H285416   4.050   7.161   3.921
28392WAT      O85417   6.241   1.789   2.686
28392WAT     H185418   6.317   1.725   2.694
28392WAT     H285419   6.155   1.738   2.678
28393WAT      O85420   9.221   7.938   1.186
28393WAT     H185421   9.284   7.967   1.113
28393WAT     H285422   9.247   7.846   1.216
28394WAT      O85423   2.159   0.872   8.091
28394WAT     H185424   2.129   0.889   7.997
28394WAT     H285425   2.133   0.780   8.119
28395WAT      O85426   0.601   4.246   6.504
28395WAT     H185427   0.649   4.171   6.460
28395WAT     H285428   0.540   4.210   6.575
28396WAT      O85429   5.930   9.256   9.774
28396WAT     H185430   5.954   9.288   9.682
28396WAT     H285431   5.936   9.332   9.838
28397WAT      O85432   7.193   7.570   2.258
28397WAT     H185433   7.145   7.492   2.219
28397WAT     H285434   7.222   7.632   2.185
28398WAT      O85435   6.931   2.937   4.808
28398WAT     H185436   6.956   2.947   4.905
28398WAT     H285437   6.933   2.841   4.782
28399WAT      O85438   4.160   3.818   3.237
28399WAT     H185439   4.236   3.769   3.279
28399WAT     H285440   4.075   3.791   3.282
28400WAT      O85441   6.543   4.079   2.402
28400WAT     H185442   6.506   4.165   2.437
28400WAT     H285443   6.493   4.053   2.319
28401WAT      O85444   6.504   5.905   6.158
28401WAT     H185445   6.416   5.859   6.166
28401WAT     H285446   6.556   5.892   6.243
28402WAT      O85447   1.542   5.590   7.417
28402WAT     H185448   1.463   5.529   7.411
28402WAT     H285449   1.626   5.536   7.410
28403WAT      O85450   2.079   3.301   3.625
28403WAT     H185451   2.144   3.233   3.658
28403WAT     H285452   2.109   3.334   3.535
28404WAT      O85453   8.618   9.015   1.426
28404WAT     H185454   8.520   9.021   1.405
28404WAT     H285455   8.669   8.998   1.341
28405WAT      O85456   7.373   6.073   0.237
28405WAT     H185457   7.397   6.080   0.140
28405WAT     H285458   7.276   6.051   0.246
28406WAT      O85459   5.891   0.299   7.174
28406WAT     H185460   5.858   0.301   7.079
28406WAT     H285461   5.964   0.367   7.185
28407WAT      O85462   2.285   0.719   4.816
28407WAT     H185463   2.332   0.651   4.874
28407WAT     H285464   2.205   0.754   4.864
28408WAT      O85465   7.986   3.599   8.671
28408WAT     H185466   8.025   3.576   8.581
28408WAT     H285467   7.886   3.603   8.664
28409WAT      O85468   3.394   1.045   8.153
28409WAT     H185469   3.434   1.131   8.183
28409WAT     H285470   3.460   0.997   8.094
28410WAT      O85471   2.942   0.712   1.447
28410WAT     H185472   2.879   0.758   1.509
28410WAT     H285473   2.942   0.614   1.467
28411WAT      O85474   7.031   3.715   8.555
28411WAT     H185475   6.983   3.640   8.601
28411WAT     H285476   7.011   3.801   8.602
28412WAT      O85477   9.470   3.036   7.434
28412WAT     H185478   9.552   3.068   7.481
28412WAT     H285479   9.490   2.948   7.390
28413WAT      O85480   8.586   6.424   5.288
28413WAT     H185481   8.651   6.360   5.326
28413WAT     H285482   8.546   6.385   5.205
28414WAT      O85483   0.393   5.424   5.879
28414WAT     H185484   0.378   5.512   5.925
28414WAT     H285485   0.312   5.399   5.826
28415WAT      O85486   4.665   6.099   2.570
28415WAT     H185487   4.695   6.039   2.496
28415WAT     H285488   4.675   6.194   2.543
28416WAT      O85489   5.496   9.060   8.719
28416WAT     H185490   5.498   9.146   8.668
28416WAT     H285491   5.438   9.071   8.799
28417WAT      O85492   0.337   4.813   0.132
28417WAT     H185493   0.427   4.786   0.098
28417WAT     H285494   0.273   4.737   0.118
28418WAT      O85495   9.822   9.841   5.044
28418WAT     H185496   9.722   9.843   5.047
28418WAT     H285497   9.851   9.818   4.952
28419WAT      O85498   5.344   8.233   6.831
28419WAT     H185499   5.378   8.139   6.844
28419WAT     H285500   5.269   8.232   6.764
28420WAT      O85501   8.835   1.270   3.841
28420WAT     H185502   8.879   1.253   3.929
28420WAT     H285503   8.905   1.278   3.769
28421WAT      O85504   8.580   2.309   8.736
28421WAT     H185505   8.601   2.400   8.699
28421WAT     H285506   8.666   2.260   8.752
28422WAT      O85507   1.069   0.813   0.438
28422WAT     H185508   1.096   0.825   0.533
28422WAT     H285509   1.150   0.821   0.380
28423WAT      O85510   8.925   8.511   3.746
28423WAT     H185511   8.935   8.412   3.731
28423WAT     H285512   8.978   8.537   3.827
28424WAT      O85513   2.488   2.722   9.709
28424WAT     H185514   2.515   2.782   9.784
28424WAT     H285515   2.413   2.662   9.741
28425WAT      O85516   5.333   6.573   3.808
28425WAT     H185517   5.319   6.570   3.907
28425WAT     H285518   5.268   6.637   3.767
28426WAT      O85519   8.027   0.722   6.763
28426WAT     H185520   8.069   0.667   6.835
28426WAT     H285521   7.986   0.804   6.802
28427WAT      O85522   5.314   3.442   0.099
28427WAT     H185523   5.308   3.454   0.198
28427WAT     H285524   5.409   3.450   0.070
28428WAT      O85525   4.958   1.867   7.814
28428WAT     H185526   5.019   1.895   7.887
28428WAT     H285527   4.893   1.940   7.793
28429WAT      O85528   5.756   0.260   5.068
28429WAT     H185529   5.837   0.210   5.038
28429WAT     H285530   5.674   0.206   5.049
28430WAT      O85531   2.792   4.398   4.789
28430WAT     H185532   2.836   4.328   4.844
28430WAT     H285533   2.705   4.363   4.753
28431WAT      O85534   0.437   2.995   0.071
28431WAT     H185535   0.518   2.979   0.014
28431WAT     H285536   0.463   2.994   0.167
28432WAT      O85537   3.573   3.157   6.356
28432WAT     H185538   3.638   3.113   6.295
28432WAT     H285539   3.481   3.151   6.316
28433WAT      O85540   4.750   2.537   0.075
28433WAT     H185541   4.835   2.496   0.041
28433WAT     H285542   4.738   2.627   0.033
28434WAT      O85543   1.786   0.985   9.465
28434WAT     H185544   1.696   0.961   9.501
28434WAT     H285545   1.815   1.072   9.505
28435WAT      O85546   7.460   0.272   4.706
28435WAT     H185547   7.393   0.279   4.632
28435WAT     H285548   7.552   0.277   4.668
28436WAT      O85549   9.829   9.181   2.480
28436WAT     H185550   9.901   9.251   2.479
28436WAT     H285551   9.739   9.226   2.485
28437WAT      O85552   2.134   5.668   7.128
28437WAT     H185553   2.181   5.736   7.184
28437WAT     H285554   2.039   5.661   7.158
28438WAT      O85555   4.502   5.371   7.504
28438WAT     H185556   4.559   5.424   7.567
28438WAT     H285557   4.405   5.388   7.525
28439WAT      O85558   2.292   8.076   3.138
28439WAT     H185559   2.347   8.052   3.218
28439WAT     H285560   2.213   8.015   3.133
28440WAT      O85561   3.622   2.481   3.833
28440WAT     H185562   3.570   2.409   3.880
28440WAT     H285563   3.720   2.467   3.850
28441WAT      O85564   6.864   4.480   2.302
28441WAT     H185565   6.900   4.393   2.334
28441WAT     H285566   6.887   4.552   2.366
28442WAT      O85567   2.611   2.446   2.044
28442WAT     H185568   2.694   2.451   1.988
28442WAT     H285569   2.636   2.423   2.138
28443WAT      O85570   7.701   2.992   5.960
28443WAT     H185571   7.715   3.042   6.045
28443WAT     H285572   7.781   3.004   5.900
28444WAT      O85573   8.023   7.916   8.791
28444WAT     H185574   8.101   7.862   8.758
28444WAT     H285575   7.949   7.910   8.725
28445WAT      O85576   3.218   5.365   8.929
28445WAT     H185577   3.148   5.406   8.871
28445WAT     H285578   3.216   5.266   8.920
28446WAT      O85579   7.039   6.017   1.883
28446WAT     H185580   7.027   6.103   1.933
28446WAT     H285581   7.099   5.956   1.934
28447WAT      O85582   7.241   0.108   9.587
28447WAT     H185583   7.195   0.143   9.668
28447WAT     H285584   7.203   0.151   9.505
28448WAT      O85585   6.657   2.928   9.632
28448WAT     H185586   6.742   2.877   9.619
28448WAT     H285587   6.678   3.021   9.663
28449WAT      O85588   5.051   2.700   4.451
28449WAT     H185589   5.092   2.690   4.360
28449WAT     H285590   5.124   2.708   4.519
28450WAT      O85591   1.103   2.269   2.630
28450WAT     H185592   1.094   2.184   2.579
28450WAT     H285593   1.180   2.322   2.594
28451WAT      O85594   4.388   2.033   9.170
28451WAT     H185595   4.344   2.049   9.082
28451WAT     H285596   4.470   2.089   9.177
28452WAT      O85597   1.182   3.624   5.740
28452WAT     H185598   1.210   3.715   5.771
28452WAT     H285599   1.262   3.565   5.732
28453WAT      O85600   2.293   0.833   5.952
28453WAT     H185601   2.256   0.746   5.919
28453WAT     H285602   2.224   0.879   6.009
28454WAT      O85603   6.396   8.894   3.449
28454WAT     H185604   6.383   8.943   3.535
28454WAT     H285605   6.494   8.880   3.434
28455WAT      O85606   8.820   6.802   8.595
28455WAT     H185607   8.872   6.852   8.526
28455WAT     H285608   8.722   6.817   8.580
28456WAT      O85609   2.702   6.556   6.067
28456WAT     H185610   2.661   6.641   6.036
28456WAT     H285611   2.637   6.507   6.125
28457WAT      O85612   5.970   9.454   1.601
28457WAT     H185613   5.974   9.548   1.568
28457WAT     H285614   6.061   9.424   1.628
28458WAT      O85615   1.562   2.801   2.481
28458WAT     H185616   1.489   2.812   2.548
28458WAT     H285617   1.567   2.883   2.423
28459WAT      O85618   9.172   8.329   6.605
28459WAT     H185619   9.143   8.255   6.544
28459WAT     H285620   9.109   8.335   6.683
28460WAT      O85621   6.143   6.323   7.135
28460WAT     H185622   6.060   6.379   7.123
28460WAT     H285623   6.131   6.236   7.088
28461WAT      O85624   2.680   6.087   6.132
28461WAT     H185625   2.694   6.006   6.189
28461WAT     H285626   2.744   6.158   6.160
28462WAT      O85627   8.477   6.690   3.335
28462WAT     H185628   8.512   6.763   3.276
28462WAT     H285629   8.387   6.716   3.369
28463WAT      O85630   2.788   9.422   5.368
28463WAT     H185631   2.705   9.431   5.312
28463WAT     H285632   2.830   9.334   5.350
28464WAT      O85633   7.673   7.964   1.134
28464WAT     H185634   7.757   7.927   1.172
28464WAT     H285635   7.682   7.971   1.034
28465WAT      O85636   4.913   3.623   8.089
28465WAT     H185637   4.856   3.689   8.136
28465WAT     H285638   4.924   3.650   7.993
28466WAT      O85639   1.684   9.776   4.716
28466WAT     H185640   1.667   9.779   4.618
28466WAT     H285641   1.597   9.770   4.765
28467WAT      O85642   6.173   5.757   7.462
28467WAT     H185643   6.259   5.723   7.424
28467WAT     H285644   6.117   5.795   7.388
28468WAT      O85645   5.312   2.155   8.233
28468WAT     H185646   5.371   2.107   8.299
28468WAT     H285647   5.275   2.237   8.275
28469WAT      O85648   5.102   8.834   4.452
28469WAT     H185649   5.016   8.789   4.431
28469WAT     H285650   5.157   8.841   4.368
28470WAT      O85651   9.342   9.161   3.836
28470WAT     H185652   9.409   9.096   3.872
28470WAT     H285653   9.292   9.118   3.761
28471WAT      O85654   5.963   6.019   3.344
28471WAT     H185655   5.874   6.052   3.376
28471WAT     H285656   5.990   6.070   3.263
28472WAT      O85657   8.840   1.174   6.346
28472WAT     H185658   8.770   1.233   6.306
28472WAT     H285659   8.854   1.199   6.442
28473WAT      O85660   6.381   3.801   3.095
28473WAT     H185661   6.466   3.751   3.078
28473WAT     H285662   6.306   3.757   3.046
28474WAT      O85663   3.234   3.306   7.893
28474WAT     H185664   3.317   3.359   7.909
28474WAT     H285665   3.171   3.359   7.836
28475WAT      O85666   3.582   9.138   6.280
28475WAT     H185667   3.680   9.156   6.278
28475WAT     H285668   3.548   9.128   6.187
28476WAT      O85669   2.164   7.676   6.535
28476WAT     H185670   2.167   7.646   6.440
28476WAT     H285671   2.183   7.598   6.595
28477WAT      O85672   5.296   3.345   1.146
28477WAT     H185673   5.268   3.438   1.172
28477WAT     H285674   5.260   3.280   1.213
28478WAT      O85675   5.973   4.848   9.074
28478WAT     H185676   6.010   4.850   8.981
28478WAT     H285677   5.976   4.755   9.109
28479WAT      O85678   4.232   6.927   5.341
28479WAT     H185679   4.246   6.889   5.432
28479WAT     H285680   4.294   6.882   5.277
28480WAT      O85681   2.049   3.153   1.254
28480WAT     H185682   2.147   3.135   1.253
28480WAT     H285683   2.029   3.236   1.203
28481WAT      O85684   9.435   7.475   0.944
28481WAT     H185685   9.434   7.515   0.852
28481WAT     H285686   9.467   7.542   1.010
28482WAT      O85687   3.847   6.104   6.636
28482WAT     H185688   3.791   6.098   6.718
28482WAT     H285689   3.841   6.197   6.598
28483WAT      O85690   5.815   8.761   7.707
28483WAT     H185691   5.855   8.679   7.747
28483WAT     H285692   5.715   8.759   7.719
28484WAT      O85693   4.686   8.678   5.025
28484WAT     H185694   4.727   8.623   4.952
28484WAT     H285695   4.742   8.758   5.043
28485WAT      O85696   8.361   4.628   5.483
28485WAT     H185697   8.424   4.685   5.535
28485WAT     H285698   8.398   4.536   5.474
28486WAT      O85699   0.905   4.443   2.795
28486WAT     H185700   0.842   4.404   2.861
28486WAT     H285701   0.985   4.383   2.785
28487WAT      O85702   3.061   7.536   8.829
28487WAT     H185703   2.993   7.502   8.764
28487WAT     H285704   3.016   7.590   8.900
28488WAT      O85705   1.695   2.957   0.667
28488WAT     H185706   1.625   2.984   0.601
28488WAT     H285707   1.667   2.983   0.759
28489WAT      O85708   2.473   3.511   8.911
28489WAT     H185709   2.512   3.580   8.972
28489WAT     H285710   2.544   3.445   8.886
28490WAT      O85711   9.046   3.337   9.034
28490WAT     H185712   8.973   3.313   9.098
28490WAT     H285713   9.037   3.282   8.951
28491WAT      O85714   9.267   3.845   6.394
28491WAT     H185715   9.189   3.892   6.436
28491WAT     H285716   9.261   3.747   6.412
28492WAT      O85717   6.989   4.434   6.751
28492WAT     H185718   7.007   4.519   6.702
28492WAT     H285719   6.906   4.392   6.716
28493WAT      O85720   0.255   9.610   5.582
28493WAT     H185721   0.177   9.576   5.635
28493WAT     H285722   0.282   9.541   5.515
28494WAT      O85723   2.061   9.481   6.965
28494WAT     H185724   2.023   9.443   7.050
28494WAT     H285725   2.068   9.580   6.973
28495WAT      O85726   5.129   2.024   8.875
28495WAT     H185727   5.053   2.028   8.940
28495WAT     H285728   5.101   2.067   8.789
28496WAT      O85729   2.349   8.719   6.073
28496WAT     H185730   2.392   8.801   6.035
28496WAT     H285731   2.262   8.703   6.027
28497WAT      O85732   2.123   4.476   0.396
28497WAT     H185733   2.187   4.400   0.383
28497WAT     H285734   2.032   4.447   0.367
28498WAT      O85735   5.244   2.584   9.273
28498WAT     H185736   5.192   2.546   9.349
28498WAT     H285737   5.183   2.603   9.196
28499WAT      O85738   0.618   2.404   3.875
28499WAT     H185739   0.559   2.349   3.816
28499WAT     H285740   0.599   2.501   3.859
28500WAT      O85741   3.898   9.602   0.306
28500WAT     H185742   3.923   9.663   0.231
28500WAT     H285743   3.975   9.544   0.329
28501WAT      O85744   5.122   0.989   4.653
28501WAT     H185745   5.183   0.967   4.729
28501WAT     H285746   5.107   0.906   4.598
28502WAT      O85747   1.761   3.597   9.188
28502WAT     H185748   1.762   3.615   9.090
28502WAT     H285749   1.825   3.659   9.234
28503WAT      O85750   0.496   7.427   8.505
28503WAT     H185751   0.523   7.354   8.568
28503WAT     H285752   0.426   7.484   8.548
28504WAT      O85753   1.915   7.569   7.439
28504WAT     H185754   1.982   7.497   7.457
28504WAT     H285755   1.940   7.650   7.492
28505WAT      O85756   1.953   1.955   1.746
28505WAT     H185757   2.022   1.964   1.675
28505WAT     H285758   1.990   1.987   1.833
28506WAT      O85759   8.995   2.702   7.606
28506WAT     H185760   9.080   2.654   7.585
28506WAT     H285761   8.951   2.730   7.521
28507WAT      O85762   1.963   2.322   1.242
28507WAT     H185763   2.013   2.268   1.309
28507WAT     H285764   1.866   2.298   1.245
28508WAT      O85765   6.662   2.969   1.815
28508WAT     H185766   6.706   2.970   1.725
28508WAT     H285767   6.585   3.033   1.815
28509WAT      O85768   1.923   1.322   3.865
28509WAT     H185769   1.930   1.420   3.847
28509WAT     H285770   1.859   1.281   3.800
28510WAT      O85771   1.239   5.565   4.240
28510WAT     H185772   1.307   5.494   4.254
28510WAT     H285773   1.279   5.655   4.260
28511WAT      O85774   5.021   2.137   8.039
28511WAT     H185775   5.120   2.144   8.047
28511WAT     H285776   4.985   2.078   8.111
28512WAT      O85777   9.023   0.438   0.029
28512WAT     H185778   9.008   0.387  -0.056
28512WAT     H285779   9.113   0.416   0.066
28513WAT      O85780   9.690   7.655   2.013
28513WAT     H185781   9.629   7.578   1.995
28513WAT     H285782   9.685   7.720   1.937
28514WAT      O85783   1.208   1.722   7.323
28514WAT     H185784   1.200   1.777   7.240
28514WAT     H285785   1.130   1.660   7.330
28515WAT      O85786   9.688   2.509   2.535
28515WAT     H185787   9.600   2.556   2.545
28515WAT     H285788   9.721   2.522   2.441
28516WAT      O85789   7.417   0.399   5.584
28516WAT     H185790   7.471   0.393   5.499
28516WAT     H285791   7.365   0.485   5.584
28517WAT      O85792   2.356   0.701   2.546
28517WAT     H185793   2.447   0.736   2.569
28517WAT     H285794   2.359   0.651   2.460
28518WAT      O85795   4.489   7.668   5.804
28518WAT     H185796   4.491   7.639   5.899
28518WAT     H285797   4.399   7.705   5.781
28519WAT      O85798   7.249   0.378   6.395
28519WAT     H185799   7.218   0.287   6.367
28519WAT     H285800   7.342   0.373   6.429
28520WAT      O85801   2.035   9.271   7.203
28520WAT     H185802   2.017   9.369   7.216
28520WAT     H285803   2.106   9.242   7.268
28521WAT      O85804   0.632   4.925   2.237
28521WAT     H185805   0.720   4.899   2.276
28521WAT     H285806   0.599   4.852   2.177
28522WAT      O85807   0.360   7.915   5.520
28522WAT     H185808   0.451   7.897   5.556
28522WAT     H285809   0.348   7.866   5.434
28523WAT      O85810   6.188   9.046   4.459
28523WAT     H185811   6.118   8.975   4.455
28523WAT     H285812   6.248   9.029   4.537
28524WAT      O85813   8.689   8.381   5.421
28524WAT     H185814   8.691   8.282   5.438
28524WAT     H285815   8.751   8.427   5.484
28525WAT      O85816   2.069   9.470   5.282
28525WAT     H185817   1.999   9.541   5.288
28525WAT     H285818   2.046   9.407   5.208
28526WAT      O85819   5.661   8.040   9.715
28526WAT     H185820   5.692   7.946   9.732
28526WAT     H285821   5.568   8.051   9.752
28527WAT      O85822   7.681   2.793   1.297
28527WAT     H185823   7.610   2.730   1.330
28527WAT     H285824   7.763   2.741   1.274
28528WAT      O85825   2.936   4.944   1.948
28528WAT     H185826   3.006   5.004   1.987
28528WAT     H285827   2.980   4.876   1.889
28529WAT      O85828   2.894   5.610   9.364
28529WAT     H185829   2.922   5.523   9.323
28529WAT     H285830   2.798   5.604   9.391
28530WAT      O85831   3.113   3.345   8.824
28530WAT     H185832   3.147   3.372   8.914
28530WAT     H285833   3.041   3.408   8.795
28531WAT      O85834   7.399   4.982   7.398
28531WAT     H185835   7.426   4.887   7.386
28531WAT     H285836   7.305   4.986   7.431
28532WAT      O85837   8.107   1.766   0.939
28532WAT     H185838   8.022   1.782   0.888
28532WAT     H285839   8.156   1.688   0.899
28533WAT      O85840   2.468   4.831   7.230
28533WAT     H185841   2.411   4.879   7.164
28533WAT     H285842   2.423   4.830   7.319
28534WAT      O85843   3.688   7.421   4.674
28534WAT     H185844   3.757   7.419   4.602
28534WAT     H285845   3.659   7.516   4.689
28535WAT      O85846   7.233   3.616   0.077
28535WAT     H185847   7.261   3.660  -0.009
28535WAT     H285848   7.247   3.679   0.153
28536WAT      O85849   1.112   4.959   6.859
28536WAT     H185850   1.202   4.972   6.900
28536WAT     H285851   1.080   4.866   6.878
28537WAT      O85852   7.079   0.352   5.256
28537WAT     H185853   7.041   0.386   5.343
28537WAT     H285854   7.140   0.421   5.218
28538WAT      O85855   4.775   6.480   8.140
28538WAT     H185856   4.724   6.394   8.133
28538WAT     H285857   4.872   6.463   8.127
28539WAT      O85858   9.071   9.795   8.057
28539WAT     H185859   9.147   9.852   8.090
28539WAT     H285860   9.008   9.777   8.132
28540WAT      O85861   9.288   7.855   9.537
28540WAT     H185862   9.336   7.769   9.553
28540WAT     H285863   9.312   7.921   9.608
28541WAT      O85864   3.404   0.425   8.257
28541WAT     H185865   3.438   0.519   8.265
28541WAT     H285866   3.310   0.426   8.221
28542WAT      O85867   2.012   8.880   2.557
28542WAT     H185868   2.045   8.866   2.464
28542WAT     H285869   1.932   8.941   2.555
28543WAT      O85870   2.759   8.029   7.586
28543WAT     H185871   2.803   8.117   7.568
28543WAT     H285872   2.661   8.043   7.602
28544WAT      O85873   1.094   4.611   8.411
28544WAT     H185874   1.184   4.647   8.436
28544WAT     H285875   1.090   4.599   8.312
28545WAT      O85876   2.695   5.590   0.912
28545WAT     H185877   2.752   5.510   0.890
28545WAT     H285878   2.609   5.584   0.861
28546WAT      O85879   6.396   6.157   4.540
28546WAT     H185880   6.486   6.193   4.514
28546WAT     H285881   6.351   6.222   4.602
28547WAT      O85882   0.899   6.920   9.016
28547WAT     H185883   0.976   6.940   8.956
28547WAT     H285884   0.826   6.987   9.001
28548WAT      O85885   9.517   4.260   6.076
28548WAT     H185886   9.566   4.233   5.993
28548WAT     H285887   9.421   4.233   6.068
28549WAT      O85888   7.734   8.733   1.776
28549WAT     H185889   7.788   8.753   1.694
28549WAT     H285890   7.705   8.818   1.819
28550WAT      O85891   3.128   3.430   2.495
28550WAT     H185892   3.183   3.404   2.416
28550WAT     H285893   3.031   3.413   2.476
28551WAT      O85894   4.865   0.319   1.293
28551WAT     H185895   4.940   0.282   1.349
28551WAT     H285896   4.805   0.375   1.350
28552WAT      O85897   8.281   6.286   3.289
28552WAT     H185898   8.194   6.321   3.255
28552WAT     H285899   8.354   6.350   3.265
28553WAT      O85900   6.366   7.063   2.520
28553WAT     H185901   6.447   7.068   2.578
28553WAT     H285902   6.378   6.990   2.453
28554WAT      O85903   3.451   4.096   5.594
28554WAT     H185904   3.363   4.144   5.584
28554WAT     H285905   3.523   4.151   5.552
28555WAT      O85906   8.983   9.760   3.574
28555WAT     H185907   9.018   9.831   3.514
28555WAT     H285908   9.039   9.754   3.656
28556WAT      O85909   4.334   0.489   6.168
28556WAT     H185910   4.420   0.455   6.207
28556WAT     H285911   4.278   0.528   6.241
28557WAT      O85912   2.566   7.279   6.554
28557WAT     H185913   2.612   7.194   6.529
28557WAT     H285914   2.474   7.280   6.515
28558WAT      O85915   0.893   0.466   2.904
28558WAT     H185916   0.896   0.513   2.992
28558WAT     H285917   0.840   0.520   2.839
28559WAT      O85918   1.741   5.659   8.918
28559WAT     H185919   1.670   5.720   8.884
28559WAT     H285920   1.825   5.672   8.865
28560WAT      O85921   1.269   1.147   3.814
28560WAT     H185922   1.249   1.083   3.740
28560WAT     H285923   1.283   1.239   3.777
28561WAT      O85924   0.582   8.518   4.111
28561WAT     H185925   0.669   8.567   4.120
28561WAT     H285926   0.579   8.470   4.024
28562WAT      O85927   6.464   3.078   4.409
28562WAT     H185928   6.553   3.033   4.404
28562WAT     H285929   6.452   3.137   4.330
28563WAT      O85930   6.134   2.937   6.059
28563WAT     H185931   6.200   2.893   5.998
28563WAT     H285932   6.176   3.016   6.103
28564WAT      O85933   8.816   0.541   4.041
28564WAT     H185934   8.881   0.616   4.049
28564WAT     H285935   8.828   0.496   3.953
28565WAT      O85936   6.654   8.637   5.200
28565WAT     H185937   6.685   8.725   5.237
28565WAT     H285938   6.594   8.653   5.121
28566WAT      O85939   5.777   6.329   5.369
28566WAT     H185940   5.841   6.257   5.393
28566WAT     H285941   5.683   6.297   5.381
28567WAT      O85942   8.202   4.757   9.202
28567WAT     H185943   8.129   4.804   9.251
28567WAT     H285944   8.201   4.660   9.226
28568WAT      O85945   4.041   4.904   7.457
28568WAT     H185946   4.080   4.853   7.381
28568WAT     H285947   4.037   5.001   7.434
28569WAT      O85948   3.682   5.134   5.374
28569WAT     H185949   3.714   5.117   5.280
28569WAT     H285950   3.633   5.053   5.406
28570WAT      O85951   5.502   0.650   6.067
28570WAT     H185952   5.498   0.580   6.138
28570WAT     H285953   5.597   0.660   6.035
28571WAT      O85954   2.988   5.852   3.238
28571WAT     H185955   2.942   5.868   3.325
28571WAT     H285956   2.919   5.832   3.168
28572WAT      O85957   1.439   4.889   3.106
28572WAT     H185958   1.368   4.954   3.134
28572WAT     H285959   1.398   4.815   3.053
28573WAT      O85960   8.274   1.818   7.932
28573WAT     H185961   8.254   1.720   7.942
28573WAT     H285962   8.265   1.844   7.836
28574WAT      O85963   5.166   5.235   4.891
28574WAT     H185964   5.232   5.163   4.872
28574WAT     H285965   5.177   5.267   4.985
28575WAT      O85966   1.236   1.077   5.441
28575WAT     H185967   1.159   1.018   5.416
28575WAT     H285968   1.318   1.046   5.393
28576WAT      O85969   6.586   3.217   8.474
28576WAT     H185970   6.514   3.282   8.452
28576WAT     H285971   6.675   3.261   8.462
28577WAT      O85972   4.848   5.963   8.076
28577WAT     H185973   4.822   6.018   8.154
28577WAT     H285974   4.864   6.022   7.997
28578WAT      O85975   4.512   3.838   2.447
28578WAT     H185976   4.550   3.821   2.356
28578WAT     H285977   4.438   3.773   2.466
28579WAT      O85978   0.584   1.213   3.103
28579WAT     H185979   0.651   1.277   3.067
28579WAT     H285980   0.588   1.128   3.052
28580WAT      O85981   7.188   7.888   3.405
28580WAT     H185982   7.273   7.859   3.450
28580WAT     H285983   7.138   7.807   3.374
28581WAT      O85984   8.251   8.961   1.942
28581WAT     H185985   8.272   8.865   1.959
28581WAT     H285986   8.318   8.999   1.879
28582WAT      O85987   9.877   6.730   3.701
28582WAT     H185988   9.799   6.704   3.642
28582WAT     H285989   9.845   6.743   3.794
28583WAT      O85990   7.213   6.628   2.700
28583WAT     H185991   7.140   6.673   2.751
28583WAT     H285992   7.225   6.675   2.612
28584WAT      O85993   9.764   5.939   7.667
28584WAT     H185994   9.791   5.987   7.583
28584WAT     H285995   9.720   5.853   7.643
28585WAT      O85996   2.060   0.965   5.750
28585WAT     H185997   2.131   0.964   5.679
28585WAT     H285998   2.092   1.019   5.828
28586WAT      O85999   9.305   7.376   1.883
28586WAT     H186000   9.215   7.366   1.927
28586WAT     H286001   9.293   7.380   1.784
28587WAT      O86002   6.723   8.673   6.228
28587WAT     H186003   6.805   8.685   6.284
28587WAT     H286004   6.674   8.760   6.221
28588WAT      O86005   0.593   7.561   9.514
28588WAT     H186006   0.675   7.536   9.463
28588WAT     H286007   0.549   7.479   9.551
28589WAT      O86008   4.464   3.897   4.093
28589WAT     H186009   4.455   3.845   4.008
28589WAT     H286010   4.530   3.851   4.153
28590WAT      O86011   4.492   0.355   3.102
28590WAT     H186012   4.489   0.258   3.078
28590WAT     H286013   4.572   0.398   3.060
28591WAT      O86014   8.848   2.601   6.101
28591WAT     H186015   8.881   2.533   6.035
28591WAT     H286016   8.792   2.556   6.171
28592WAT      O86017   8.605   7.761   7.485
28592WAT     H186018   8.672   7.813   7.432
28592WAT     H286019   8.561   7.694   7.425
28593WAT      O86020   0.135   6.773   9.808
28593WAT     H186021   0.159   6.724   9.892
28593WAT     H286022   0.105   6.865   9.830
28594WAT      O86023   5.952   6.335   1.710
28594WAT     H186024   5.872   6.349   1.652
28594WAT     H286025   5.928   6.356   1.805
28595WAT      O86026   6.287   1.418   5.782
28595WAT     H186027   6.285   1.466   5.870
28595WAT     H286028   6.352   1.462   5.721
28596WAT      O86029   6.079   1.179   3.876
28596WAT     H186030   6.090   1.276   3.856
28596WAT     H286031   6.152   1.127   3.831
28597WAT      O86032   8.365   6.895   1.417
28597WAT     H186033   8.272   6.929   1.433
28597WAT     H286034   8.378   6.875   1.320
28598WAT      O86035   9.882   3.902   4.514
28598WAT     H186036   9.933   3.927   4.431
28598WAT     H286037   9.884   3.979   4.578
28599WAT      O86038   3.258   9.209   9.696
28599WAT     H186039   3.293   9.116   9.697
28599WAT     H286040   3.333   9.273   9.675
28600WAT      O86041   7.829   3.259   7.228
28600WAT     H186042   7.736   3.233   7.202
28600WAT     H286043   7.825   3.326   7.303
28601WAT      O86044   3.323   5.629   1.886
28601WAT     H186045   3.252   5.626   1.956
28601WAT     H286046   3.345   5.724   1.865
28602WAT      O86047   5.081   9.732   6.534
28602WAT     H186048   5.075   9.808   6.469
28602WAT     H286049   5.148   9.754   6.605
28603WAT      O86050   6.296   5.185   1.202
28603WAT     H186051   6.237   5.203   1.280
28603WAT     H286052   6.241   5.172   1.120
28604WAT      O86053   7.555   3.997   1.251
28604WAT     H186054   7.608   3.922   1.211
28604WAT     H286055   7.591   4.085   1.218
28605WAT      O86056   0.845   7.135   6.739
28605WAT     H186057   0.787   7.215   6.756
28605WAT     H286058   0.801   7.075   6.673
28606WAT      O86059   3.750   1.882   5.413
28606WAT     H186060   3.759   1.796   5.463
28606WAT     H286061   3.759   1.864   5.315
28607WAT      O86062   0.302   7.238   9.721
28607WAT     H186063   0.230   7.297   9.758
28607WAT     H286064   0.361   7.207   9.796
28608WAT      O86065   2.708   1.721   5.822
28608WAT     H186066   2.622   1.767   5.846
28608WAT     H286067   2.754   1.692   5.905
28609WAT      O86068   5.775   0.420   2.968
28609WAT     H186069   5.745   0.449   2.877
28609WAT     H286070   5.873   0.438   2.977
28610WAT      O86071   8.340   2.500   6.894
28610WAT     H186072   8.364   2.421   6.838
28610WAT     H286073   8.253   2.538   6.863
28611WAT      O86074   0.759   8.226   9.048
28611WAT     H186075   0.805   8.277   9.121
28611WAT     H286076   0.828   8.180   8.992
28612WAT      O86077   5.116   8.010   9.073
28612WAT     H186078   5.172   8.011   8.990
28612WAT     H286079   5.037   7.950   9.060
28613WAT      O86080   7.975   4.864   0.098
28613WAT     H186081   7.940   4.900   0.011
28613WAT     H286082   7.994   4.940   0.160
28614WAT      O86083   0.196   6.108   4.451
28614WAT     H186084   0.123   6.045   4.423
28614WAT     H286085   0.242   6.144   4.370
28615WAT      O86086   1.142   2.337   7.896
28615WAT     H186087   1.112   2.417   7.844
28615WAT     H286088   1.062   2.291   7.935
28616WAT      O86089   8.854   8.736   9.558
28616WAT     H186090   8.762   8.773   9.572
28616WAT     H286091   8.872   8.665   9.625
28617WAT      O86092   5.681   9.682   5.274
28617WAT     H186093   5.680   9.615   5.348
28617WAT     H286094   5.673   9.774   5.312
28618WAT      O86095   5.919   7.628   9.104
28618WAT     H186096   5.967   7.700   9.053
28618WAT     H286097   5.875   7.668   9.185
28619WAT      O86098   0.516   1.819   6.834
28619WAT     H186099   0.571   1.818   6.751
28619WAT     H286100   0.570   1.781   6.910
28620WAT      O86101   0.123   1.141   9.707
28620WAT     H186102   0.214   1.172   9.679
28620WAT     H286103   0.113   1.043   9.687
28621WAT      O86104   1.844   4.877   2.172
28621WAT     H186105   1.851   4.963   2.122
28621WAT     H286106   1.807   4.894   2.263
28622WAT      O86107   1.742   4.737   5.723
28622WAT     H186108   1.812   4.700   5.785
28622WAT     H286109   1.662   4.764   5.776
28623WAT      O86110   6.888   3.405   9.269
28623WAT     H186111   6.822   3.465   9.313
28623WAT     H286112   6.850   3.371   9.183
28624WAT      O86113   7.270   2.343   0.588
28624WAT     H186114   7.269   2.275   0.661
28624WAT     H286115   7.354   2.332   0.534
28625WAT      O86116   9.336   7.785   5.956
28625WAT     H186117   9.414   7.805   5.897
28625WAT     H286118   9.352   7.825   6.046
28626WAT      O86119   5.527   5.039   1.059
28626WAT     H186120   5.556   4.994   0.974
28626WAT     H286121   5.439   5.084   1.045
28627WAT      O86122   1.132   2.231   1.211
28627WAT     H186123   1.206   2.258   1.149
28627WAT     H286124   1.169   2.221   1.303
28628WAT      O86125   6.650   1.955   3.684
28628WAT     H186126   6.729   1.986   3.738
28628WAT     H286127   6.623   2.026   3.620
28629WAT      O86128   0.103   2.207   2.913
28629WAT     H186129   0.098   2.288   2.854
28629WAT     H286130   0.031   2.142   2.887
28630WAT      O86131   9.303   9.800   5.760
28630WAT     H186132   9.248   9.873   5.800
28630WAT     H286133   9.398   9.810   5.789
28631WAT      O86134   7.691   4.347   0.213
28631WAT     H186135   7.696   4.433   0.161
28631WAT     H286136   7.755   4.281   0.174
28632WAT      O86137   6.744   2.447   2.593
28632WAT     H186138   6.801   2.392   2.654
28632WAT     H286139   6.663   2.395   2.566
28633WAT      O86140   6.167   0.027   5.410
28633WAT     H186141   6.142  -0.000   5.317
28633WAT     H286142   6.255  -0.014   5.434
28634WAT      O86143   2.055   6.999   2.125
28634WAT     H186144   2.105   7.085   2.132
28634WAT     H286145   2.087   6.947   2.046
28635WAT      O86146   8.351   7.155   4.487
28635WAT     H186147   8.405   7.225   4.535
28635WAT     H286148   8.361   7.068   4.535
28636WAT      O86149   5.929   8.304   4.853
28636WAT     H186150   5.920   8.403   4.867
28636WAT     H286151   6.004   8.286   4.789
28637WAT      O86152   7.400   0.258   9.148
28637WAT     H186153   7.496   0.233   9.136
28637WAT     H286154   7.342   0.183   9.114
28638WAT      O86155   6.792   2.657   7.770
28638WAT     H186156   6.832   2.596   7.839
28638WAT     H286157   6.830   2.636   7.680
28639WAT      O86158   5.199   7.427   4.568
28639WAT     H186159   5.260   7.457   4.495
28639WAT     H286160   5.240   7.351   4.617
28640WAT      O86161   3.125   5.756   1.480
28640WAT     H186162   3.102   5.675   1.534
28640WAT     H286163   3.127   5.732   1.383
28641WAT      O86164   2.055   0.603   8.066
28641WAT     H186165   2.020   0.599   8.159
28641WAT     H286166   2.145   0.559   8.063
28642WAT      O86167   4.672   9.363   7.987
28642WAT     H186168   4.667   9.298   7.911
28642WAT     H286169   4.592   9.352   8.046
28643WAT      O86170   5.013   6.819   6.550
28643WAT     H186171   5.052   6.759   6.619
28643WAT     H286172   4.915   6.831   6.568
28644WAT      O86173   4.151   9.495   5.928
28644WAT     H186174   4.074   9.558   5.943
28644WAT     H286175   4.115   9.404   5.907
28645WAT      O86176   7.724   3.141   0.110
28645WAT     H186177   7.631   3.135   0.147
28645WAT     H286178   7.785   3.081   0.163
28646WAT      O86179   6.369   0.607   9.261
28646WAT     H186180   6.281   0.640   9.225
28646WAT     H286181   6.359   0.585   9.358
28647WAT      O86182   5.224   0.755   4.985
28647WAT     H186183   5.208   0.786   5.078
28647WAT     H286184   5.137   0.735   4.941
28648WAT      O86185   0.414   8.935   5.464
28648WAT     H186186   0.346   9.001   5.498
28648WAT     H286187   0.393   8.844   5.500
28649WAT      O86188   1.200   6.553   3.547
28649WAT     H186189   1.220   6.635   3.601
28649WAT     H286190   1.105   6.556   3.516
28650WAT      O86191   8.288   1.594   4.230
28650WAT     H186192   8.290   1.560   4.324
28650WAT     H286193   8.382   1.602   4.196
28651WAT      O86194   9.246   6.676   8.300
28651WAT     H186195   9.198   6.754   8.260
28651WAT     H286196   9.209   6.658   8.391
28652WAT      O86197   5.016   0.741   8.683
28652WAT     H186198   4.992   0.646   8.700
28652WAT     H286199   5.001   0.763   8.587
28653WAT      O86200   4.721   7.098   5.645
28653WAT     H186201   4.693   7.080   5.551
28653WAT     H286202   4.716   7.196   5.663
28654WAT      O86203   2.724   0.336   4.264
28654WAT     H186204   2.747   0.384   4.179
28654WAT     H286205   2.807   0.310   4.312
28655WAT      O86206   6.019   1.031   6.147
28655WAT     H186207   6.117   1.012   6.139
28655WAT     H286208   5.987   1.002   6.237
28656WAT      O86209   8.962   7.563   3.266
28656WAT     H186210   8.943   7.629   3.338
28656WAT     H286211   8.995   7.477   3.306
28657WAT      O86212   9.810   9.194   6.041
28657WAT     H186213   9.871   9.128   6.086
28657WAT     H286214   9.723   9.150   6.020
28658WAT      O86215   9.182   1.275   0.570
28658WAT     H186216   9.237   1.248   0.649
28658WAT     H286217   9.238   1.269   0.487
28659WAT      O86218   4.968   7.603   5.445
28659WAT     H186219   5.045   7.666   5.438
28659WAT     H286220   4.960   7.550   5.361
28660WAT      O86221   2.617   7.067   1.311
28660WAT     H186222   2.715   7.086   1.305
28660WAT     H286223   2.601   6.971   1.287
28661WAT      O86224   5.876   5.640   8.055
28661WAT     H186225   5.789   5.662   8.011
28661WAT     H286226   5.902   5.714   8.116
28662WAT      O86227   7.062   4.383   7.342
28662WAT     H186228   7.122   4.387   7.421
28662WAT     H286229   7.038   4.476   7.314
28663WAT      O86230   1.978   4.686   6.391
28663WAT     H186231   1.933   4.604   6.357
28663WAT     H286232   1.916   4.735   6.453
28664WAT      O86233   0.612   4.037   1.452
28664WAT     H186234   0.712   4.042   1.458
28664WAT     H286235   0.575   3.999   1.537
28665WAT      O86236   1.320   7.433   5.707
28665WAT     H186237   1.290   7.493   5.781
28665WAT     H286238   1.253   7.361   5.693
28666WAT      O86239   9.317   9.360   6.712
28666WAT     H186240   9.400   9.337   6.661
28666WAT     H286241   9.280   9.278   6.755
28667WAT      O86242   2.043   7.917   8.943
28667WAT     H186243   1.976   7.968   8.997
28667WAT     H286244   2.111   7.981   8.907
28668WAT      O86245   3.858   0.289   1.640
28668WAT     H186246   3.759   0.296   1.654
28668WAT     H286247   3.897   0.223   1.704
28669WAT      O86248   2.653   7.937   2.893
28669WAT     H186249   2.695   8.025   2.872
28669WAT     H286250   2.618   7.939   2.987
28670WAT      O86251   4.447   9.341   7.634
28670WAT     H186252   4.509   9.297   7.699
28670WAT     H286253   4.380   9.396   7.684
28671WAT      O86254   4.293   0.730   9.471
28671WAT     H186255   4.333   0.699   9.557
28671WAT     H286256   4.195   0.745   9.484
28672WAT      O86257   1.712   9.297   1.498
28672WAT     H186258   1.623   9.259   1.477
28672WAT     H286259   1.701   9.393   1.526
28673WAT      O86260   7.893   3.747   4.044
28673WAT     H186261   7.941   3.816   4.098
28673WAT     H286262   7.857   3.675   4.104
28674WAT      O86263   4.743   6.909   0.574
28674WAT     H186264   4.765   7.003   0.600
28674WAT     H286265   4.763   6.896   0.476
28675WAT      O86266   8.147   8.181   7.636
28675WAT     H186267   8.136   8.250   7.708
28675WAT     H286268   8.171   8.093   7.677
28676WAT      O86269   0.344   5.341   9.101
28676WAT     H186270   0.390   5.271   9.046
28676WAT     H286271   0.320   5.418   9.042
28677WAT      O86272   3.552   2.510   9.597
28677WAT     H186273   3.500   2.592   9.575
28677WAT     H286274   3.510   2.463   9.674
28678WAT      O86275   5.336   0.676   6.537
28678WAT     H186276   5.246   0.700   6.572
28678WAT     H286277   5.366   0.589   6.576
28679WAT      O86278   2.857   7.198   3.859
28679WAT     H186279   2.818   7.209   3.950
28679WAT     H286280   2.804   7.252   3.793
28680WAT      O86281   4.869   5.033   8.876
28680WAT     H186282   4.918   4.947   8.862
28680WAT     H286283   4.773   5.023   8.850
28681WAT      O86284   4.656   5.599   3.115
28681WAT     H186285   4.648   5.513   3.065
28681WAT     H286286   4.615   5.588   3.205
28682WAT      O86287   2.541   9.341   9.012
28682WAT     H186288   2.604   9.293   9.073
28682WAT     H286289   2.527   9.434   9.046
28683WAT      O86290   6.321   9.023   0.153
28683WAT     H186291   6.270   9.088   0.097
28683WAT     H286292   6.417   9.023   0.126
28684WAT      O86293   4.889   6.432   4.646
28684WAT     H186294   4.818   6.387   4.591
28684WAT     H286295   4.918   6.370   4.719
28685WAT      O86296   7.975   5.198   6.928
28685WAT     H186297   7.991   5.290   6.892
28685WAT     H286298   7.888   5.163   6.894
28686WAT      O86299   3.284   9.724   4.738
28686WAT     H186300   3.224   9.644   4.732
28686WAT     H286301   3.229   9.807   4.737
28687WAT      O86302   9.762   5.188   8.281
28687WAT     H186303   9.679   5.181   8.226
28687WAT     H286304   9.739   5.220   8.373
28688WAT      O86305   0.780   6.286   7.664
28688WAT     H186306   0.838   6.362   7.634
28688WAT     H286307   0.790   6.210   7.600
28689WAT      O86308   8.244   6.838   9.623
28689WAT     H186309   8.248   6.757   9.682
28689WAT     H286310   8.337   6.873   9.608
28690WAT      O86311   3.236   4.914   2.988
28690WAT     H186312   3.293   4.902   3.070
28690WAT     H286313   3.188   5.001   2.993
28691WAT      O86314   3.748   4.621   6.848
28691WAT     H186315   3.841   4.614   6.814
28691WAT     H286316   3.706   4.530   6.849
28692WAT      O86317   0.157   0.907   4.029
28692WAT     H186318   0.149   0.981   4.096
28692WAT     H286319   0.162   0.945   3.937
28693WAT      O86320   3.932   7.261   6.257
28693WAT     H186321   3.972   7.296   6.343
28693WAT     H286322   3.963   7.167   6.242
28694WAT      O86323   2.731   9.349   2.053
28694WAT     H186324   2.715   9.354   1.955
28694WAT     H286325   2.662   9.403   2.102
28695WAT      O86326   2.617   4.129   3.691
28695WAT     H186327   2.563   4.203   3.731
28695WAT     H286328   2.712   4.160   3.680
28696WAT      O86329   5.396   1.185   6.546
28696WAT     H186330   5.328   1.111   6.542
28696WAT     H286331   5.395   1.236   6.460
28697WAT      O86332   3.247   8.722   8.554
28697WAT     H186333   3.236   8.820   8.571
28697WAT     H286334   3.258   8.707   8.456
28698WAT      O86335   5.189   1.946   1.836
28698WAT     H186336   5.249   2.003   1.891
28698WAT     H286337   5.097   1.984   1.838
28699WAT      O86338   3.037   9.569   1.241
28699WAT     H186339   2.964   9.602   1.182
28699WAT     H286340   3.125   9.601   1.207
28700WAT      O86341   7.368   0.432   2.334
28700WAT     H186342   7.383   0.391   2.424
28700WAT     H286343   7.281   0.401   2.297
28701WAT      O86344   1.579   8.125   3.505
28701WAT     H186345   1.614   8.152   3.594
28701WAT     H286346   1.524   8.042   3.515
28702WAT      O86347   3.129   8.789   4.559
28702WAT     H186348   3.101   8.696   4.535
28702WAT     H286349   3.157   8.792   4.655
28703WAT      O86350   4.070   1.726   2.107
28703WAT     H186351   4.101   1.820   2.122
28703WAT     H286352   4.088   1.700   2.013
28704WAT      O86353   8.456   3.210   4.401
28704WAT     H186354   8.357   3.214   4.412
28704WAT     H286355   8.482   3.267   4.323
28705WAT      O86356   6.445   6.947   9.884
28705WAT     H186357   6.396   6.951   9.797
28705WAT     H286358   6.531   6.997   9.876
28706WAT      O86359   7.597   8.164   0.716
28706WAT     H186360   7.524   8.148   0.649
28706WAT     H286361   7.644   8.249   0.694
28707WAT      O86362   7.658   4.044   3.084
28707WAT     H186363   7.680   4.111   3.012
28707WAT     H286364   7.737   4.033   3.144
28708WAT      O86365   9.178   4.397   5.506
28708WAT     H186366   9.095   4.385   5.450
28708WAT     H286367   9.223   4.309   5.517
28709WAT      O86368   7.990   8.805   5.075
28709WAT     H186369   7.897   8.772   5.091
28709WAT     H286370   8.046   8.785   5.155
28710WAT      O86371   5.820   6.360   0.690
28710WAT     H186372   5.810   6.336   0.593
28710WAT     H286373   5.826   6.277   0.745
28711WAT      O86374   8.310   0.678   8.572
28711WAT     H186375   8.330   0.736   8.651
28711WAT     H286376   8.322   0.582   8.598
28712WAT      O86377   4.145   0.188   3.982
28712WAT     H186378   4.105   0.278   3.964
28712WAT     H286379   4.225   0.199   4.041
28713WAT      O86380   6.058   7.401   0.722
28713WAT     H186381   6.022   7.494   0.707
28713WAT     H286382   6.074   7.357   0.634
28714WAT      O86383   5.971   6.876   7.312
28714WAT     H186384   5.936   6.783   7.305
28714WAT     H286385   5.958   6.924   7.225
28715WAT      O86386   2.077   4.251   9.856
28715WAT     H186387   1.986   4.294   9.854
28715WAT     H286388   2.073   4.164   9.807
28716WAT      O86389   8.474   7.849   6.520
28716WAT     H186390   8.522   7.765   6.545
28716WAT     H286391   8.474   7.859   6.420
28717WAT      O86392   6.753   1.802   4.408
28717WAT     H186393   6.826   1.869   4.420
28717WAT     H286394   6.675   1.846   4.362
28718WAT      O86395   4.323   2.513   7.397
28718WAT     H186396   4.251   2.569   7.356
28718WAT     H286397   4.282   2.431   7.437
28719WAT      O86398   8.032   0.917   5.506
28719WAT     H186399   8.002   0.910   5.411
28719WAT     H286400   7.953   0.909   5.567
28720WAT      O86401   0.742   1.958   1.897
28720WAT     H186402   0.750   1.910   1.984
28720WAT     H286403   0.704   2.049   1.912
28721WAT      O86404   8.877   5.761   8.398
28721WAT     H186405   8.798   5.812   8.433
28721WAT     H286406   8.862   5.740   8.301
28722WAT      O86407   0.215   0.867   7.001
28722WAT     H186408   0.201   0.965   7.019
28722WAT     H286409   0.128   0.819   7.010
28723WAT      O86410   1.082   9.292   2.965
28723WAT     H186411   1.123   9.381   2.988
28723WAT     H286412   1.059   9.244   3.049
28724WAT      O86413   1.266   9.177   5.191
28724WAT     H186414   1.224   9.205   5.277
28724WAT     H286415   1.351   9.227   5.178
28725WAT      O86416   2.904   6.377   4.301
28725WAT     H186417   2.845   6.322   4.243
28725WAT     H286418   2.862   6.390   4.390
28726WAT      O86419   0.646   1.262   1.724
28726WAT     H186420   0.738   1.254   1.763
28726WAT     H286421   0.635   1.353   1.684
28727WAT      O86422   4.311   9.554   4.827
28727WAT     H186423   4.260   9.577   4.910
28727WAT     H286424   4.268   9.598   4.749
28728WAT      O86425   7.003   7.656   6.369
28728WAT     H186426   6.909   7.689   6.369
28728WAT     H286427   7.012   7.582   6.435
28729WAT      O86428   7.920   4.011   2.208
28729WAT     H186429   7.943   3.988   2.113
28729WAT     H286430   7.944   3.934   2.267
28730WAT      O86431   9.712   0.455   7.066
28730WAT     H186432   9.638   0.407   7.017
28730WAT     H286433   9.713   0.550   7.038
28731WAT      O86434   1.602   8.625   2.195
28731WAT     H186435   1.634   8.712   2.232
28731WAT     H286436   1.572   8.638   2.101
28732WAT      O86437   1.805   9.039   1.587
28732WAT     H186438   1.740   8.963   1.579
28732WAT     H286439   1.769   9.119   1.540
28733WAT      O86440   1.250   1.260   1.435
28733WAT     H186441   1.160   1.301   1.441
28733WAT     H286442   1.245   1.164   1.463
28734WAT      O86443   8.943   3.528   4.822
28734WAT     H186444   9.010   3.602   4.824
28734WAT     H286445   8.914   3.512   4.727
28735WAT      O86446   1.201   5.621   2.116
28735WAT     H186447   1.124   5.562   2.091
28735WAT     H286448   1.184   5.661   2.206
28736WAT      O86449   3.852   8.081   5.250
28736WAT     H186450   3.803   8.045   5.170
28736WAT     H286451   3.946   8.104   5.224
28737WAT      O86452   2.040   0.646   7.336
28737WAT     H186453   2.117   0.685   7.285
28737WAT     H286454   2.074   0.607   7.422
28738WAT      O86455   5.056   2.651   4.855
28738WAT     H186456   4.998   2.573   4.880
28738WAT     H286457   5.001   2.720   4.808
28739WAT      O86458   3.487   5.041   7.730
28739WAT     H186459   3.478   4.952   7.684
28739WAT     H286460   3.571   5.086   7.700
28740WAT      O86461   4.326   3.030   1.519
28740WAT     H186462   4.353   2.962   1.451
28740WAT     H286463   4.227   3.028   1.530
28741WAT      O86464   0.030   2.180   9.862
28741WAT     H186465   0.001   2.263   9.815
28741WAT     H286466  -0.051   2.123   9.880
28742WAT      O86467   2.349   4.955   5.549
28742WAT     H186468   2.448   4.945   5.542
28742WAT     H286469   2.309   4.950   5.457
28743WAT      O86470   2.454   2.666   2.073
28743WAT     H186471   2.513   2.585   2.068
28743WAT     H286472   2.499   2.742   2.026
28744WAT      O86473   0.380   8.012   5.884
28744WAT     H186474   0.373   7.940   5.953
28744WAT     H286475   0.475   8.018   5.852
28745WAT      O86476   1.155   7.746   8.465
28745WAT     H186477   1.177   7.730   8.561
28745WAT     H286478   1.240   7.761   8.414
28746WAT      O86479   1.205   6.699   0.752
28746WAT     H186480   1.118   6.665   0.787
28746WAT     H286481   1.254   6.625   0.706
28747WAT      O86482   0.652   7.565   0.378
28747WAT     H186483   0.717   7.549   0.453
28747WAT     H286484   0.578   7.624   0.409
28748WAT      O86485   1.344   8.832   4.102
28748WAT     H186486   1.347   8.896   4.179
28748WAT     H286487   1.320   8.741   4.135
28749WAT      O86488   3.715   4.445   3.722
28749WAT     H186489   3.720   4.497   3.636
28749WAT     H286490   3.783   4.372   3.720
28750WAT      O86491   7.538   4.443   1.077
28750WAT     H186492   7.546   4.469   0.981
28750WAT     H286493   7.581   4.354   1.091
28751WAT      O86494   6.366   0.142   9.498
28751WAT     H186495   6.392   0.214   9.434
28751WAT     H286496   6.271   0.115   9.481
28752WAT      O86497   7.012   0.702   5.479
28752WAT     H186498   7.028   0.678   5.383
28752WAT     H286499   7.002   0.801   5.487
28753WAT      O86500   5.757   5.123   0.385
28753WAT     H186501   5.840   5.177   0.402
28753WAT     H286502   5.702   5.169   0.316
28754WAT      O86503   3.795   2.209   0.068
28754WAT     H186504   3.820   2.229  -0.027
28754WAT     H286505   3.762   2.115   0.075
28755WAT      O86506   8.550   9.173   0.116
28755WAT     H186507   8.508   9.197   0.029
28755WAT     H286508   8.582   9.256   0.162
28756WAT      O86509   9.121   3.527   0.249
28756WAT     H186510   9.155   3.618   0.271
28756WAT     H286511   9.024   3.532   0.227
28757WAT      O86512   8.988   9.640   2.320
28757WAT     H186513   8.998   9.548   2.280
28757WAT     H286514   8.930   9.635   2.401
28758WAT      O86515   4.002   2.623   9.502
28758WAT     H186516   4.036   2.717   9.508
28758WAT     H286517   3.928   2.619   9.435
28759WAT      O86518   8.429   2.337   6.641
28759WAT     H186519   8.491   2.278   6.590
28759WAT     H286520   8.385   2.401   6.578
28760WAT      O86521   2.772   1.498   9.874
28760WAT     H186522   2.793   1.419   9.932
28760WAT     H286523   2.858   1.539   9.841
28761WAT      O86524   2.302   3.381   8.723
28761WAT     H186525   2.211   3.405   8.757
28761WAT     H286526   2.370   3.397   8.795
28762WAT      O86527   7.619   3.431   3.310
28762WAT     H186528   7.668   3.414   3.225
28762WAT     H286529   7.675   3.401   3.387
28763WAT      O86530   1.688   8.068   0.161
28763WAT     H186531   1.598   8.032   0.140
28763WAT     H286532   1.757   7.997   0.146
28764WAT      O86533   2.589   1.359   4.490
28764WAT     H186534   2.643   1.288   4.535
28764WAT     H286535   2.601   1.446   4.538
28765WAT      O86536   9.480   3.150   9.361
28765WAT     H186537   9.488   3.235   9.309
28765WAT     H286538   9.398   3.153   9.419
28766WAT      O86539   6.881   4.971   5.094
28766WAT     H186540   6.915   4.990   5.186
28766WAT     H286541   6.957   4.947   5.035
28767WAT      O86542   6.510   3.055   0.877
28767WAT     H186543   6.563   3.082   0.796
28767WAT     H286544   6.418   3.026   0.848
28768WAT      O86545   2.759   4.485   6.870
28768WAT     H186546   2.668   4.453   6.897
28768WAT     H286547   2.752   4.543   6.789
28769WAT      O86548   4.139   0.552   4.898
28769WAT     H186549   4.110   0.457   4.912
28769WAT     H286550   4.137   0.573   4.800
28770WAT      O86551   1.737   3.597   1.654
28770WAT     H186552   1.792   3.633   1.730
28770WAT     H286553   1.649   3.645   1.652
28771WAT      O86554   7.736   5.299   1.587
28771WAT     H186555   7.676   5.359   1.534
28771WAT     H286556   7.831   5.318   1.562
28772WAT      O86557   5.508   9.079   1.043
28772WAT     H186558   5.465   9.021   0.973
28772WAT     H286559   5.486   9.175   1.024
28773WAT      O86560   3.258   6.973   6.447
28773WAT     H186561   3.201   7.052   6.424
28773WAT     H286562   3.352   7.003   6.465
28774WAT      O86563   8.958   4.523   1.676
28774WAT     H186564   8.941   4.495   1.582
28774WAT     H286565   9.037   4.584   1.678
28775WAT      O86566   2.840   1.165   8.110
28775WAT     H186567   2.915   1.221   8.143
28775WAT     H286568   2.835   1.172   8.010
28776WAT      O86569   1.280   3.815   8.364
28776WAT     H186570   1.361   3.874   8.368
28776WAT     H286571   1.254   3.789   8.457
28777WAT      O86572   4.577   7.848   3.133
28777WAT     H186573   4.626   7.907   3.069
28777WAT     H286574   4.594   7.877   3.227
28778WAT      O86575   0.802   7.548   3.635
28778WAT     H186576   0.791   7.548   3.735
28778WAT     H286577   0.796   7.642   3.601
28779WAT      O86578   4.248   2.775   6.468
28779WAT     H186579   4.245   2.693   6.525
28779WAT     H286580   4.203   2.851   6.515
28780WAT      O86581   9.241   0.151   9.260
28780WAT     H186582   9.142   0.154   9.256
28780WAT     H286583   9.278   0.151   9.166
28781WAT      O86584   5.538   3.265   3.829
28781WAT     H186585   5.630   3.284   3.796
28781WAT     H286586   5.512   3.171   3.805
28782WAT      O86587   1.729   2.438   2.209
28782WAT     H186588   1.648   2.394   2.170
28782WAT     H286589   1.805   2.373   2.209
28783WAT      O86590   8.170   4.293   9.659
28783WAT     H186591   8.141   4.198   9.673
28783WAT     H286592   8.216   4.302   9.571
28784WAT      O86593   2.103   9.106   3.927
28784WAT     H186594   2.170   9.135   3.858
28784WAT     H286595   2.029   9.055   3.882
28785WAT      O86596   2.337   5.738   7.923
28785WAT     H186597   2.335   5.650   7.876
28785WAT     H286598   2.332   5.812   7.855
28786WAT      O86599   2.507   6.378   8.648
28786WAT     H186600   2.467   6.301   8.697
28786WAT     H286601   2.491   6.366   8.550
28787WAT      O86602   8.703   0.070   0.125
28787WAT     H186603   8.701   0.097   0.029
28787WAT     H286604   8.796   0.074   0.160
28788WAT      O86605   8.064   1.442   6.105
28788WAT     H186606   8.102   1.352   6.083
28788WAT     H286607   8.068   1.500   6.025
28789WAT      O86608   4.525   4.686   3.303
28789WAT     H186609   4.473   4.671   3.219
28789WAT     H286610   4.621   4.660   3.288
28790WAT      O86611   3.532   3.018   7.526
28790WAT     H186612   3.572   3.039   7.437
28790WAT     H286613   3.603   2.981   7.587
28791WAT      O86614   3.322   6.443   6.328
28791WAT     H186615   3.331   6.454   6.229
28791WAT     H286616   3.276   6.523   6.367
28792WAT      O86617   2.009   9.770   3.447
28792WAT     H186618   2.050   9.709   3.515
28792WAT     H286619   2.073   9.844   3.426
28793WAT      O86620   4.058   6.828   5.802
28793WAT     H186621   4.062   6.731   5.829
28793WAT     H286622   4.102   6.884   5.872
28794WAT      O86623   8.641   0.567   8.411
28794WAT     H186624   8.666   0.588   8.506
28794WAT     H286625   8.724   0.557   8.356
28795WAT      O86626   1.724   0.541   4.855
28795WAT     H186627   1.782   0.614   4.820
28795WAT     H286628   1.651   0.522   4.790
28796WAT      O86629   6.191   0.954   7.923
28796WAT     H186630   6.141   0.867   7.920
28796WAT     H286631   6.267   0.951   7.858
28797WAT      O86632   3.174   0.582   8.171
28797WAT     H186633   3.180   0.601   8.073
28797WAT     H286634   3.188   0.667   8.222
28798WAT      O86635   1.985   9.700   0.425
28798WAT     H186636   1.898   9.696   0.377
28798WAT     H286637   2.042   9.622   0.399
28799WAT      O86638   4.377   9.593   0.015
28799WAT     H186639   4.363   9.615   0.111
28799WAT     H286640   4.346   9.669  -0.042
28800WAT      O86641   0.548   6.290   5.582
28800WAT     H186642   0.494   6.249   5.509
28800WAT     H286643   0.555   6.389   5.568
28801WAT      O86644   5.192   8.047   2.108
28801WAT     H186645   5.227   8.067   2.017
28801WAT     H286646   5.166   7.951   2.114
28802WAT      O86647   2.414   8.202   3.597
28802WAT     H186648   2.368   8.290   3.579
28802WAT     H286649   2.485   8.215   3.665
28803WAT      O86650   4.550   1.977   1.925
28803WAT     H186651   4.492   2.057   1.942
28803WAT     H286652   4.636   2.006   1.882
28804WAT      O86653   5.064   3.159   7.153
28804WAT     H186654   5.105   3.164   7.062
28804WAT     H286655   5.134   3.172   7.222
28805WAT      O86656   1.101   4.766   5.622
28805WAT     H186657   1.135   4.810   5.704
28805WAT     H286658   1.175   4.713   5.579
28806WAT      O86659   8.952   4.909   6.605
28806WAT     H186660   8.952   4.920   6.705
28806WAT     H286661   9.044   4.926   6.570
28807WAT      O86662   4.353   9.653   0.282
28807WAT     H186663   4.262   9.672   0.316
28807WAT     H286664   4.398   9.587   0.341
28808WAT      O86665   6.945   1.223   5.248
28808WAT     H186666   6.857   1.189   5.214
28808WAT     H286667   6.973   1.303   5.194
28809WAT      O86668   8.348   4.871   1.010
28809WAT     H186669   8.390   4.794   1.059
28809WAT     H286670   8.402   4.954   1.025
28810WAT      O86671   2.422   7.487   4.954
28810WAT     H186672   2.478   7.460   5.033
28810WAT     H286673   2.407   7.408   4.895
28811WAT      O86674   3.806   8.600   5.735
28811WAT     H186675   3.716   8.581   5.775
28811WAT     H286676   3.862   8.648   5.802
28812WAT      O86677   4.011   6.546   5.853
28812WAT     H186678   3.927   6.594   5.876
28812WAT     H286679   4.030   6.478   5.924
28813WAT      O86680   4.210   9.625   1.652
28813WAT     H186681   4.221   9.681   1.570
28813WAT     H286682   4.202   9.684   1.732
28814WAT      O86683   3.813   1.775   1.690
28814WAT     H186684   3.784   1.686   1.727
28814WAT     H286685   3.905   1.767   1.653
28815WAT      O86686   9.868   5.713   4.964
28815WAT     H186687   9.796   5.700   5.032
28815WAT     H286688   9.828   5.748   4.880
28816WAT      O86689   5.990   3.294   2.582
28816WAT     H186690   5.954   3.333   2.667
28816WAT     H286691   6.066   3.233   2.603
28817WAT      O86692   8.748   8.873   0.643
28817WAT     H186693   8.656   8.862   0.606
28817WAT     H286694   8.793   8.784   0.649
28818WAT      O86695   2.208   7.591   7.052
28818WAT     H186696   2.267   7.634   6.983
28818WAT     H286697   2.264   7.560   7.128
28819WAT      O86698   7.275   5.942   2.505
28819WAT     H186699   7.237   6.018   2.452
28819WAT     H286700   7.204   5.873   2.519
28820WAT      O86701   8.952   1.490   1.311
28820WAT     H186702   8.853   1.490   1.314
28820WAT     H286703   8.984   1.547   1.235
28821WAT      O86704   8.547   5.384   2.993
28821WAT     H186705   8.617   5.398   2.922
28821WAT     H286706   8.574   5.307   3.051
28822WAT      O86707   1.308   6.203   1.759
28822WAT     H186708   1.261   6.135   1.816
28822WAT     H286709   1.242   6.265   1.719
28823WAT      O86710   7.501   6.492   0.558
28823WAT     H186711   7.533   6.447   0.641
28823WAT     H286712   7.441   6.430   0.507
28824WAT      O86713   4.802   4.207   3.177
28824WAT     H186714   4.726   4.194   3.113
28824WAT     H286715   4.869   4.268   3.137
28825WAT      O86716   7.460   7.333   2.634
28825WAT     H186717   7.398   7.309   2.709
28825WAT     H286718   7.526   7.259   2.621
28826WAT      O86719   3.878   7.659   9.374
28826WAT     H186720   3.845   7.591   9.309
28826WAT     H286721   3.801   7.717   9.402
28827WAT      O86722   1.360   8.908   2.452
28827WAT     H186723   1.358   8.808   2.447
28827WAT     H286724   1.408   8.936   2.536
28828WAT      O86725   8.233   0.606   2.375
28828WAT     H186726   8.164   0.671   2.345
28828WAT     H286727   8.233   0.526   2.316
28829WAT      O86728   1.560   1.119   5.814
28829WAT     H186729   1.657   1.144   5.805
28829WAT     H286730   1.508   1.156   5.738
28830WAT      O86731   9.238   5.196   9.556
28830WAT     H186732   9.282   5.176   9.643
28830WAT     H286733   9.285   5.271   9.511
28831WAT      O86734   5.722   5.609   6.258
28831WAT     H186735   5.799   5.553   6.289
28831WAT     H286736   5.723   5.614   6.158
28832WAT      O86737   5.003   4.286   1.910
28832WAT     H186738   5.089   4.255   1.870
28832WAT     H286739   5.013   4.379   1.946
28833WAT      O86740   9.655   7.906   9.563
28833WAT     H186741   9.710   7.988   9.549
28833WAT     H286742   9.631   7.897   9.660
28834WAT      O86743   4.274   5.236   4.436
28834WAT     H186744   4.336   5.299   4.389
28834WAT     H286745   4.206   5.288   4.488
28835WAT      O86746   2.454   8.159   9.411
28835WAT     H186747   2.468   8.060   9.417
28835WAT     H286748   2.360   8.181   9.434
28836WAT      O86749   7.108   1.364   4.932
28836WAT     H186750   7.057   1.388   4.850
28836WAT     H286751   7.121   1.265   4.936
28837WAT      O86752   7.017   8.034   7.364
28837WAT     H186753   7.088   8.012   7.431
28837WAT     H286754   7.047   8.113   7.309
28838WAT      O86755   8.798   6.748   4.323
28838WAT     H186756   8.769   6.728   4.230
28838WAT     H286757   8.896   6.730   4.332
28839WAT      O86758   3.506   2.474   1.049
28839WAT     H186759   3.560   2.434   0.975
28839WAT     H286760   3.415   2.500   1.015
28840WAT      O86761   0.617   4.774   6.809
28840WAT     H186762   0.552   4.730   6.747
28840WAT     H286763   0.696   4.806   6.757
28841WAT      O86764   4.660   4.917   3.968
28841WAT     H186765   4.723   4.950   3.899
28841WAT     H286766   4.635   4.822   3.949
28842WAT      O86767   8.695   5.724   6.155
28842WAT     H186768   8.730   5.797   6.097
28842WAT     H286769   8.598   5.739   6.172
28843WAT      O86770   9.464   4.621   5.125
28843WAT     H186771   9.458   4.638   5.223
28843WAT     H286772   9.485   4.707   5.077
28844WAT      O86773   8.206   1.124   5.574
28844WAT     H186774   8.153   1.206   5.597
28844WAT     H286775   8.146   1.054   5.537
28845WAT      O86776   7.017   8.388   3.903
28845WAT     H186777   7.114   8.374   3.885
28845WAT     H286778   6.973   8.299   3.918
28846WAT      O86779   1.471   7.584   8.784
28846WAT     H186780   1.546   7.522   8.808
28846WAT     H286781   1.491   7.628   8.697
28847WAT      O86782   2.447   6.617   1.064
28847WAT     H186783   2.393   6.535   1.085
28847WAT     H286784   2.543   6.591   1.049
28848WAT      O86785   4.463   8.283   8.759
28848WAT     H186786   4.394   8.356   8.754
28848WAT     H286787   4.483   8.248   8.668
28849WAT      O86788   8.276   8.598   2.556
28849WAT     H186789   8.347   8.528   2.563
28849WAT     H286790   8.319   8.688   2.552
28850WAT      O86791   9.879   3.539   8.113
28850WAT     H186792   9.921   3.609   8.055
28850WAT     H286793   9.943   3.464   8.127
28851WAT      O86794   3.099   1.904   2.970
28851WAT     H186795   3.058   1.859   2.890
28851WAT     H286796   3.065   1.998   2.976
28852WAT      O86797   9.599   4.423   0.516
28852WAT     H186798   9.654   4.346   0.548
28852WAT     H286799   9.607   4.430   0.417
28853WAT      O86800   8.138   3.565   1.705
28853WAT     H186801   8.085   3.538   1.786
28853WAT     H286802   8.157   3.663   1.710
28854WAT      O86803   6.420   8.754   5.598
28854WAT     H186804   6.407   8.695   5.518
28854WAT     H286805   6.331   8.786   5.630
28855WAT      O86806   2.934   0.404   3.217
28855WAT     H186807   3.003   0.422   3.288
28855WAT     H286808   2.972   0.426   3.127
28856WAT      O86809   0.319   5.475   0.733
28856WAT     H186810   0.335   5.495   0.830
28856WAT     H286811   0.405   5.485   0.683
28857WAT      O86812   2.607   3.507   2.977
28857WAT     H186813   2.657   3.436   3.027
28857WAT     H286814   2.550   3.465   2.907
28858WAT      O86815   5.228   9.689   9.716
28858WAT     H186816   5.175   9.638   9.648
28858WAT     H286817   5.325   9.673   9.700
28859WAT      O86818   1.335   5.452   0.032
28859WAT     H186819   1.433   5.468   0.046
28859WAT     H286820   1.297   5.409   0.113
28860WAT      O86821   0.139   1.716   9.635
28860WAT     H186822   0.207   1.649   9.606
28860WAT     H286823   0.157   1.803   9.589
28861WAT      O86824   5.894   7.070   7.083
28861WAT     H186825   5.871   7.038   6.992
28861WAT     H286826   5.978   7.125   7.079
28862WAT      O86827   7.097   7.193   3.117
28862WAT     H186828   7.194   7.214   3.125
28862WAT     H286829   7.050   7.268   3.071
28863WAT      O86830   6.528   4.905   9.630
28863WAT     H186831   6.543   4.991   9.679
28863WAT     H286832   6.434   4.902   9.596
28864WAT      O86833   3.166   8.345   8.950
28864WAT     H186834   3.197   8.372   9.042
28864WAT     H286835   3.102   8.414   8.915
28865WAT      O86836   8.025   2.865   8.266
28865WAT     H186837   7.965   2.806   8.212
28865WAT     H286838   8.012   2.960   8.238
28866WAT      O86839   0.604   5.290   8.340
28866WAT     H186840   0.678   5.357   8.332
28866WAT     H286841   0.593   5.242   8.253
28867WAT      O86842   7.210   4.164   5.911
28867WAT     H186843   7.112   4.168   5.931
28867WAT     H286844   7.228   4.206   5.822
28868WAT      O86845   5.616   0.277   7.013
28868WAT     H186846   5.584   0.257   7.106
28868WAT     H286847   5.538   0.278   6.950
28869WAT      O86848   4.700   2.705   7.588
28869WAT     H186849   4.775   2.772   7.588
28869WAT     H286850   4.622   2.744   7.637
28870WAT      O86851   7.187   3.547   0.406
28870WAT     H186852   7.199   3.640   0.371
28870WAT     H286853   7.090   3.525   0.409
28871WAT      O86854   9.894   1.006   6.122
28871WAT     H186855   9.867   1.087   6.069
28871WAT     H286856   9.818   0.942   6.125
28872WAT      O86857   2.317   5.204   6.927
28872WAT     H186858   2.300   5.190   6.829
28872WAT     H286859   2.406   5.248   6.940
28873WAT      O86860   9.520   9.390   4.999
28873WAT     H186861   9.429   9.414   5.030
28873WAT     H286862   9.514   9.348   4.908
28874WAT      O86863   3.137   4.487   1.490
28874WAT     H186864   3.043   4.500   1.523
28874WAT     H286865   3.135   4.470   1.391
28875WAT      O86866   1.815   5.635   9.397
28875WAT     H186867   1.908   5.672   9.394
28875WAT     H286868   1.763   5.669   9.319
28876WAT      O86869   2.900   3.426   0.280
28876WAT     H186870   2.868   3.402   0.371
28876WAT     H286871   2.910   3.526   0.273
28877WAT      O86872   1.714   2.027   1.125
28877WAT     H186873   1.686   1.938   1.089
28877WAT     H286874   1.801   2.053   1.083
28878WAT      O86875   9.269   3.017   8.161
28878WAT     H186876   9.275   2.918   8.155
28878WAT     H286877   9.210   3.051   8.087
28879WAT      O86878   1.782   6.262   3.613
28879WAT     H186879   1.760   6.237   3.519
28879WAT     H286880   1.769   6.360   3.625
28880WAT      O86881   2.674   6.918   0.932
28880WAT     H186882   2.611   6.977   0.983
28880WAT     H286883   2.723   6.858   0.996
28881WAT      O86884   5.878   2.771   5.071
28881WAT     H186885   5.917   2.852   5.115
28881WAT     H286886   5.850   2.705   5.142
28882WAT      O86887   6.496   2.082   4.683
28882WAT     H186888   6.516   2.162   4.740
28882WAT     H286889   6.399   2.079   4.661
28883WAT      O86890   8.533   0.634   1.863
28883WAT     H186891   8.631   0.618   1.853
28883WAT     H286892   8.507   0.719   1.817
28884WAT      O86893   4.495   2.361   0.958
28884WAT     H186894   4.528   2.447   1.000
28884WAT     H286895   4.567   2.292   0.965
28885WAT      O86896   8.706   8.734   4.996
28885WAT     H186897   8.684   8.693   5.084
28885WAT     H286898   8.804   8.728   4.981
28886WAT      O86899   5.516   4.585   3.220
28886WAT     H186900   5.614   4.571   3.204
28886WAT     H286901   5.493   4.680   3.200
28887WAT      O86902   2.956   7.065   0.670
28887WAT     H186903   3.035   7.018   0.710
28887WAT     H286904   2.884   6.998   0.651
28888WAT      O86905   6.449   6.133   3.096
28888WAT     H186906   6.418   6.224   3.123
28888WAT     H286907   6.491   6.137   3.005
28889WAT      O86908   5.091   8.674   6.890
28889WAT     H186909   5.081   8.605   6.818
28889WAT     H286910   5.025   8.655   6.963
28890WAT      O86911   2.716   4.918   2.194
28890WAT     H186912   2.798   4.922   2.137
28890WAT     H286913   2.741   4.899   2.289
28891WAT      O86914   1.178   8.457   0.880
28891WAT     H186915   1.145   8.509   0.959
28891WAT     H286916   1.183   8.517   0.800
28892WAT      O86917   9.657   4.502   6.393
28892WAT     H186918   9.709   4.462   6.469
28892WAT     H286919   9.563   4.519   6.423
28893WAT      O86920   8.902   5.326   1.320
28893WAT     H186921   8.954   5.262   1.264
28893WAT     H286922   8.808   5.331   1.286
28894WAT      O86923   1.003   8.944   1.024
28894WAT     H186924   0.970   8.892   1.102
28894WAT     H286925   0.997   9.042   1.044
28895WAT      O86926   3.922   5.572   0.192
28895WAT     H186927   3.886   5.656   0.231
28895WAT     H286928   3.925   5.501   0.262
28896WAT      O86929   9.557   7.280   4.435
28896WAT     H186930   9.541   7.218   4.358
28896WAT     H286931   9.469   7.309   4.473
28897WAT      O86932   8.198   1.796   7.321
28897WAT     H186933   8.285   1.753   7.297
28897WAT     H286934   8.152   1.741   7.390
28898WAT      O86935   4.975   3.405   6.700
28898WAT     H186936   4.885   3.444   6.718
28898WAT     H286937   4.973   3.307   6.720
28899WAT      O86938   3.740   5.214   6.381
28899WAT     H186939   3.657   5.215   6.437
28899WAT     H286940   3.811   5.161   6.427
28900WAT      O86941   3.168   4.410   6.819
28900WAT     H186942   3.198   4.477   6.887
28900WAT     H286943   3.084   4.365   6.851
28901WAT      O86944   7.779   4.215   6.245
28901WAT     H186945   7.769   4.126   6.289
28901WAT     H286946   7.748   4.287   6.307
28902WAT      O86947   8.603   9.234   1.213
28902WAT     H186948   8.652   9.148   1.199
28902WAT     H286949   8.531   9.221   1.281
28903WAT      O86950   8.610   7.081   3.436
28903WAT     H186951   8.562   7.033   3.510
28903WAT     H286952   8.558   7.072   3.351
28904WAT      O86953   9.613   0.130   1.921
28904WAT     H186954   9.531   0.079   1.899
28904WAT     H286955   9.589   0.209   1.978
28905WAT      O86956   4.245   3.503   2.967
28905WAT     H186957   4.156   3.468   2.997
28905WAT     H286958   4.262   3.474   2.873
28906WAT      O86959   0.215   6.984   2.285
28906WAT     H186960   0.132   6.934   2.310
28906WAT     H286961   0.190   7.070   2.240
28907WAT      O86962   6.826   6.813   4.826
28907WAT     H186963   6.780   6.725   4.830
28907WAT     H286964   6.925   6.798   4.829
28908WAT      O86965   5.185   9.622   4.373
28908WAT     H186966   5.163   9.576   4.459
28908WAT     H286967   5.281   9.607   4.350
28909WAT      O86968   0.895   5.118   8.649
28909WAT     H186969   0.813   5.175   8.638
28909WAT     H286970   0.870   5.030   8.688
28910WAT      O86971   9.119   9.739   5.276
28910WAT     H186972   9.182   9.722   5.353
28910WAT     H286973   9.085   9.651   5.242
28911WAT      O86974   7.125   6.223   5.363
28911WAT     H186975   7.048   6.229   5.299
28911WAT     H286976   7.132   6.308   5.415
28912WAT      O86977   6.979   7.516   7.113
28912WAT     H186978   6.891   7.510   7.066
28912WAT     H286979   7.038   7.579   7.064
28913WAT      O86980   3.499   8.222   5.001
28913WAT     H186981   3.534   8.307   4.961
28913WAT     H286982   3.402   8.233   5.022
28914WAT      O86983   0.677   8.912   8.846
28914WAT     H186984   0.592   8.872   8.880
28914WAT     H286985   0.658   9.001   8.806
28915WAT      O86986   8.929   7.622   6.860
28915WAT     H186987   8.876   7.591   6.780
28915WAT     H286988   8.959   7.716   6.846
28916WAT      O86989   2.086   6.450   4.991
28916WAT     H186990   2.026   6.374   5.018
28916WAT     H286991   2.181   6.421   4.997
28917WAT      O86992   7.049   9.594   8.537
28917WAT     H186993   6.983   9.522   8.517
28917WAT     H286994   7.090   9.577   8.626
28918WAT      O86995   1.505   3.156   5.010
28918WAT     H186996   1.439   3.216   4.963
28918WAT     H286997   1.598   3.177   4.977
28919WAT      O86998   2.728   3.954   5.783
28919WAT     H186999   2.734   3.868   5.732
28919WAT     H287000   2.653   4.009   5.746
28920WAT      O87001   3.224   0.236   7.024
28920WAT     H187002   3.159   0.237   6.948
28920WAT     H287003   3.174   0.220   7.109
28921WAT      O87004   2.272   1.053   1.613
28921WAT     H187005   2.315   1.111   1.543
28921WAT     H287006   2.175   1.075   1.621
28922WAT      O87007   3.426   8.537   2.972
28922WAT     H187008   3.430   8.606   3.044
28922WAT     H287009   3.496   8.467   2.989
28923WAT      O87010   6.865   7.622   5.325
28923WAT     H187011   6.892   7.549   5.262
28923WAT     H287012   6.766   7.618   5.341
28924WAT      O87013   6.064   5.389   9.438
28924WAT     H187014   6.091   5.471   9.387
28924WAT     H287015   6.002   5.333   9.382
28925WAT      O87016   8.569   7.868   4.775
28925WAT     H187017   8.573   7.768   4.768
28925WAT     H287018   8.614   7.909   4.697
28926WAT      O87019   3.810   7.928   2.041
28926WAT     H187020   3.835   8.009   1.988
28926WAT     H287021   3.723   7.892   2.009
28927WAT      O87022   3.118   9.143   8.087
28927WAT     H187023   3.215   9.163   8.098
28927WAT     H287024   3.065   9.214   8.135
28928WAT      O87025   8.442   8.975   3.951
28928WAT     H187026   8.477   8.986   3.858
28928WAT     H287027   8.507   8.922   4.005
28929WAT      O87028   5.589   1.099   8.195
28929WAT     H187029   5.603   1.129   8.289
28929WAT     H287030   5.530   1.165   8.148
28930WAT      O87031   5.663   8.703   7.333
28930WAT     H187032   5.586   8.690   7.397
28930WAT     H287033   5.730   8.764   7.375
28931WAT      O87034   7.480   8.251   8.863
28931WAT     H187035   7.576   8.223   8.863
28931WAT     H287036   7.474   8.347   8.890
28932WAT      O87037   2.489   6.748   7.839
28932WAT     H187038   2.455   6.780   7.751
28932WAT     H287039   2.418   6.757   7.908
28933WAT      O87040   0.936   4.211   9.005
28933WAT     H187041   0.923   4.112   9.002
28933WAT     H287042   0.856   4.253   9.049
28934WAT      O87043   2.474   7.629   2.014
28934WAT     H187044   2.483   7.702   2.081
28934WAT     H287045   2.377   7.614   1.995
28935WAT      O87046   2.191   8.009   0.236
28935WAT     H187047   2.123   8.035   0.304
28935WAT     H287048   2.283   8.020   0.274
28936WAT      O87049   0.654   9.589   0.191
28936WAT     H187050   0.614   9.633   0.271
28936WAT     H287051   0.754   9.594   0.196
28937WAT      O87052   2.988   4.400   4.225
28937WAT     H187053   2.945   4.352   4.302
28937WAT     H287054   2.999   4.497   4.249
28938WAT      O87055   0.585   5.249   6.307
28938WAT     H187056   0.536   5.252   6.220
28938WAT     H287057   0.650   5.173   6.306
28939WAT      O87058   2.469   5.591   0.778
28939WAT     H187059   2.421   5.651   0.841
28939WAT     H287060   2.418   5.583   0.693
28940WAT      O87061   5.678   2.997   7.955
28940WAT     H187062   5.673   2.920   7.892
28940WAT     H287063   5.605   2.989   8.023
28941WAT      O87064   1.893   6.692   1.385
28941WAT     H187065   1.873   6.620   1.318
28941WAT     H287066   1.892   6.781   1.339
28942WAT      O87067   9.200   0.594   5.078
28942WAT     H187068   9.282   0.585   5.135
28942WAT     H287069   9.224   0.578   4.982
28943WAT      O87070   7.182   5.387   1.155
28943WAT     H187071   7.186   5.324   1.077
28943WAT     H287072   7.093   5.433   1.156
28944WAT      O87073   1.074   8.695   2.834
28944WAT     H187074   1.071   8.753   2.752
28944WAT     H287075   1.012   8.730   2.903
28945WAT      O87076   3.655   8.825   6.849
28945WAT     H187077   3.558   8.801   6.852
28945WAT     H287078   3.708   8.745   6.822
28946WAT      O87079   0.326   0.171   9.609
28946WAT     H187080   0.318   0.136   9.516
28946WAT     H287081   0.239   0.158   9.657
28947WAT      O87082   7.538   6.184   4.620
28947WAT     H187083   7.616   6.243   4.603
28947WAT     H287084   7.458   6.221   4.572
28948WAT      O87085   3.567   0.717   4.045
28948WAT     H187086   3.634   0.657   4.002
28948WAT     H287087   3.601   0.812   4.041
28949WAT      O87088   9.699   7.693   4.702
28949WAT     H187089   9.629   7.763   4.719
28949WAT     H287090   9.665   7.604   4.731
28950WAT      O87091   5.685   4.860   4.327
28950WAT     H187092   5.592   4.822   4.330
28950WAT     H287093   5.751   4.788   4.349
28951WAT      O87094   5.134   1.470   0.011
28951WAT     H187095   5.149   1.519  -0.075
28951WAT     H287096   5.040   1.482   0.041
28952WAT      O87097   0.846   3.877   4.489
28952WAT     H187098   0.788   3.850   4.566
28952WAT     H287099   0.910   3.803   4.468
28953WAT      O87100   0.807   5.755   1.414
28953WAT     H187101   0.861   5.723   1.336
28953WAT     H287102   0.790   5.853   1.404
28954WAT      O87103   6.357   3.209   8.091
28954WAT     H187104   6.442   3.260   8.104
28954WAT     H287105   6.378   3.112   8.077
28955WAT      O87106   5.517   9.676   8.019
28955WAT     H187107   5.617   9.662   8.020
28955WAT     H287108   5.488   9.712   8.107
28956WAT      O87109   8.522   6.664   0.700
28956WAT     H187110   8.503   6.758   0.670
28956WAT     H287111   8.616   6.640   0.677
28957WAT      O87112   4.409   9.718   6.615
28957WAT     H187113   4.337   9.704   6.684
28957WAT     H287114   4.467   9.794   6.643
28958WAT      O87115   2.977   0.428   9.458
28958WAT     H187116   3.030   0.504   9.496
28958WAT     H287117   2.881   0.438   9.482
28959WAT      O87118   3.674   4.010   7.311
28959WAT     H187119   3.635   4.102   7.309
28959WAT     H287120   3.636   3.956   7.236
28960WAT      O87121   8.434   1.394   9.123
28960WAT     H187122   8.374   1.385   9.043
28960WAT     H287123   8.509   1.457   9.100
28961WAT      O87124   7.858   7.075   1.775
28961WAT     H187125   7.808   7.028   1.703
28961WAT     H287126   7.795   7.132   1.828
28962WAT      O87127   4.964   7.408   0.983
28962WAT     H187128   4.995   7.358   1.064
28962WAT     H287129   5.000   7.501   0.985
28963WAT      O87130   8.360   4.133   8.429
28963WAT     H187131   8.450   4.123   8.387
28963WAT     H287132   8.307   4.049   8.415
28964WAT      O87133   1.382   9.250   2.761
28964WAT     H187134   1.317   9.181   2.793
28964WAT     H287135   1.349   9.288   2.674
28965WAT      O87136   4.127   6.274   0.595
28965WAT     H187137   4.101   6.318   0.509
28965WAT     H287138   4.227   6.276   0.605
28966WAT      O87139   3.649   6.875   1.956
28966WAT     H187140   3.551   6.895   1.960
28966WAT     H287141   3.674   6.855   1.861
28967WAT      O87142   1.341   3.312   6.765
28967WAT     H187143   1.340   3.212   6.755
28967WAT     H287144   1.262   3.340   6.819
28968WAT      O87145   8.756   4.586   8.510
28968WAT     H187146   8.817   4.616   8.583
28968WAT     H287147   8.733   4.663   8.451
28969WAT      O87148   5.588   5.229   6.133
28969WAT     H187149   5.609   5.132   6.140
28969WAT     H287150   5.538   5.259   6.215
28970WAT      O87151   9.835   7.112   1.363
28970WAT     H187152   9.881   7.027   1.337
28970WAT     H287153   9.894   7.190   1.341
28971WAT      O87154   3.425   0.522   9.701
28971WAT     H187155   3.439   0.615   9.733
28971WAT     H287156   3.329   0.498   9.708
28972WAT      O87157   6.958   6.932   3.491
28972WAT     H187158   6.915   6.857   3.441
28972WAT     H287159   6.895   6.967   3.560
28973WAT      O87160   7.631   3.476   6.463
28973WAT     H187161   7.586   3.539   6.400
28973WAT     H287162   7.723   3.510   6.485
28974WAT      O87163   4.114   9.356   1.834
28974WAT     H187164   4.181   9.420   1.871
28974WAT     H287165   4.160   9.279   1.792
28975WAT      O87166   7.780   0.557   9.846
28975WAT     H187167   7.841   0.480   9.863
28975WAT     H287168   7.757   0.559   9.748
28976WAT      O87169   3.956   1.502   9.465
28976WAT     H187170   3.878   1.549   9.423
28976WAT     H287171   3.988   1.555   9.544
28977WAT      O87172   4.763   5.778   2.543
28977WAT     H187173   4.843   5.838   2.540
28977WAT     H287174   4.682   5.833   2.567
28978WAT      O87175   7.913   0.585   5.531
28978WAT     H187176   7.931   0.492   5.499
28978WAT     H287177   7.966   0.603   5.614
28979WAT      O87178   8.033   9.436   2.041
28979WAT     H187179   8.009   9.533   2.037
28979WAT     H287180   7.955   9.383   2.075
28980WAT      O87181   3.648   6.840   3.893
28980WAT     H187182   3.723   6.856   3.958
28980WAT     H287183   3.652   6.909   3.821
28981WAT      O87184   6.341   4.217   6.682
28981WAT     H187185   6.322   4.314   6.672
28981WAT     H287186   6.375   4.199   6.775
28982WAT      O87187   5.491   2.530   6.617
28982WAT     H187188   5.575   2.558   6.569
28982WAT     H287189   5.508   2.446   6.667
28983WAT      O87190   3.211   9.242   8.679
28983WAT     H187191   3.241   9.146   8.672
28983WAT     H287192   3.291   9.302   8.677
28984WAT      O87193   9.699   3.115   1.079
28984WAT     H187194   9.707   3.192   1.142
28984WAT     H287195   9.788   3.071   1.070
28985WAT      O87196   9.194   3.669   8.337
28985WAT     H187197   9.169   3.737   8.406
28985WAT     H287198   9.264   3.607   8.374
28986WAT      O87199   4.247   1.839   1.227
28986WAT     H187200   4.330   1.793   1.257
28986WAT     H287201   4.181   1.772   1.193
28987WAT      O87202   7.465   1.636   9.726
28987WAT     H187203   7.520   1.570   9.674
28987WAT     H287204   7.450   1.718   9.671
28988WAT      O87205   4.372   4.280   2.135
28988WAT     H187206   4.400   4.262   2.229
28988WAT     H287207   4.348   4.377   2.125
28989WAT      O87208   9.614   3.821   7.869
28989WAT     H187209   9.682   3.893   7.871
28989WAT     H287210   9.646   3.746   7.811
28990WAT      O87211   7.735   9.370   6.098
28990WAT     H187212   7.670   9.440   6.126
28990WAT     H287213   7.817   9.374   6.156
28991WAT      O87214   4.805   4.960   1.499
28991WAT     H187215   4.829   4.911   1.415
28991WAT     H287216   4.817   4.900   1.578
28992WAT      O87217   5.283   5.867   1.674
28992WAT     H187218   5.293   5.949   1.618
28992WAT     H287219   5.280   5.892   1.770
28993WAT      O87220   8.520   3.702   4.975
28993WAT     H187221   8.551   3.723   4.882
28993WAT     H287222   8.442   3.640   4.971
28994WAT      O87223   5.381   8.469   1.456
28994WAT     H187224   5.447   8.405   1.495
28994WAT     H287225   5.303   8.417   1.419
28995WAT      O87226   7.110   6.619   4.196
28995WAT     H187227   7.171   6.672   4.136
28995WAT     H287228   7.100   6.526   4.159
28996WAT      O87229   7.918   4.366   0.604
28996WAT     H187230   7.890   4.346   0.510
28996WAT     H287231   8.017   4.373   0.609
28997WAT      O87232   2.123   9.764   9.338
28997WAT     H187233   2.200   9.820   9.369
28997WAT     H287234   2.158   9.679   9.297
28998WAT      O87235   7.576   3.491   5.190
28998WAT     H187236   7.582   3.557   5.266
28998WAT     H287237   7.484   3.494   5.151
28999WAT      O87238   7.044   4.880   0.802
28999WAT     H187239   6.964   4.822   0.792
28999WAT     H287240   7.115   4.852   0.737
29000WAT      O87241   4.356   7.797   6.995
29000WAT     H187242   4.402   7.818   6.909
29000WAT     H287243   4.280   7.733   6.977
29001WAT      O87244   8.448   3.921   5.824
29001WAT     H187245   8.547   3.915   5.837
29001WAT     H287246   8.428   3.994   5.759
29002WAT      O87247   0.144   0.889   1.604
29002WAT     H187248   0.169   0.975   1.649
29002WAT     H287249   0.176   0.812   1.658
29003WAT      O87250   4.746   0.197   7.882
29003WAT     H187251   4.839   0.224   7.857
29003WAT     H287252   4.745   0.100   7.906
29004WAT      O87253   6.821   9.775   9.288
29004WAT     H187254   6.753   9.777   9.361
29004WAT     H287255   6.909   9.745   9.326
29005WAT      O87256   2.226   7.268   5.272
29005WAT     H187257   2.165   7.270   5.350
29005WAT     H287258   2.217   7.353   5.219
29006WAT      O87259   4.891   2.929   9.456
29006WAT     H187260   4.856   2.844   9.496
29006WAT     H287261   4.886   2.924   9.357
29007WAT      O87262   3.507   2.344   6.451
29007WAT     H187263   3.532   2.323   6.357
29007WAT     H287264   3.574   2.407   6.491
29008WAT      O87265   1.809   6.151   9.236
29008WAT     H187266   1.853   6.241   9.243
29008WAT     H287267   1.727   6.159   9.180
29009WAT      O87268   9.761   9.287   0.073
29009WAT     H187269   9.778   9.367   0.131
29009WAT     H287270   9.690   9.309   0.005
29010WAT      O87271   3.985   5.755   8.111
29010WAT     H187272   3.946   5.664   8.130
29010WAT     H287273   3.915   5.812   8.068
29011WAT      O87274   5.034   4.727   8.586
29011WAT     H187275   5.127   4.692   8.601
29011WAT     H287276   4.997   4.761   8.672
29012WAT      O87277   3.321   6.229   7.209
29012WAT     H187278   3.258   6.224   7.287
29012WAT     H287279   3.344   6.324   7.191
29013WAT      O87280   4.945   4.091   5.628
29013WAT     H187281   4.912   3.998   5.642
29013WAT     H287282   5.001   4.118   5.707
29014WAT      O87283   7.316   7.884   4.443
29014WAT     H187284   7.316   7.922   4.536
29014WAT     H287285   7.233   7.912   4.396
29015WAT      O87286   3.013   5.782   6.481
29015WAT     H187287   2.953   5.770   6.402
29015WAT     H287288   2.993   5.869   6.526
29016WAT      O87289   6.854   2.400   4.788
29016WAT     H187290   6.927   2.359   4.842
29016WAT     H287291   6.773   2.414   4.845
29017WAT      O87292   5.843   2.385   1.515
29017WAT     H187293   5.851   2.455   1.445
29017WAT     H287294   5.871   2.423   1.604
29018WAT      O87295   5.522   3.909   1.846
29018WAT     H187296   5.618   3.895   1.820
29018WAT     H287297   5.493   3.836   1.908
29019WAT      O87298   3.681   3.738   3.035
29019WAT     H187299   3.656   3.731   3.132
29019WAT     H287300   3.781   3.740   3.027
29020WAT      O87301   7.297   8.500   5.019
29020WAT     H187302   7.201   8.510   4.992
29020WAT     H287303   7.342   8.589   5.019
29021WAT      O87304   8.020   4.290   8.279
29021WAT     H187305   8.114   4.301   8.312
29021WAT     H287306   8.021   4.245   8.190
29022WAT      O87307   5.742   1.054   6.784
29022WAT     H187308   5.712   0.969   6.741
29022WAT     H287309   5.670   1.123   6.774
29023WAT      O87310   9.408   0.937   8.130
29023WAT     H187311   9.308   0.928   8.132
29023WAT     H287312   9.434   1.029   8.162
29024WAT      O87313   5.348   1.434   8.523
29024WAT     H187314   5.266   1.485   8.550
29024WAT     H287315   5.323   1.366   8.455
29025WAT      O87316   5.392   2.419   7.576
29025WAT     H187317   5.304   2.376   7.553
29025WAT     H287318   5.464   2.351   7.573
29026WAT      O87319   2.578   4.061   9.228
29026WAT     H187320   2.567   4.159   9.243
29026WAT     H287321   2.588   4.043   9.130
29027WAT      O87322   0.269   7.901   6.314
29027WAT     H187323   0.180   7.864   6.340
29027WAT     H287324   0.328   7.908   6.395
29028WAT      O87325   9.000   6.047   6.486
29028WAT     H187326   9.094   6.080   6.485
29028WAT     H287327   8.979   6.006   6.575
29029WAT      O87328   7.110   1.643   7.730
29029WAT     H187329   7.087   1.682   7.641
29029WAT     H287330   7.031   1.595   7.767
29030WAT      O87331   1.923   3.702   2.841
29030WAT     H187332   1.992   3.642   2.800
29030WAT     H287333   1.967   3.768   2.902
29031WAT      O87334   0.041   9.114   2.151
29031WAT     H187335  -0.051   9.131   2.115
29031WAT     H287336   0.037   9.040   2.219
29032WAT      O87337   2.887   2.495   1.055
29032WAT     H187338   2.790   2.515   1.044
29032WAT     H287339   2.898   2.417   1.116
29033WAT      O87340   6.711   3.560   9.397
29033WAT     H187341   6.621   3.554   9.440
29033WAT     H287342   6.715   3.642   9.340
29034WAT      O87343   3.352   1.824   3.046
29034WAT     H187344   3.431   1.882   3.024
29034WAT     H287345   3.268   1.876   3.029
29035WAT      O87346   6.798   9.514   3.802
29035WAT     H187347   6.866   9.574   3.843
29035WAT     H287348   6.799   9.425   3.848
29036WAT      O87349   5.025   0.666   4.824
29036WAT     H187350   5.085   0.635   4.750
29036WAT     H287351   4.999   0.761   4.809
29037WAT      O87352   0.446   9.111   5.240
29037WAT     H187353   0.444   9.047   5.163
29037WAT     H287354   0.456   9.060   5.325
29038WAT      O87355   5.279   0.088   8.268
29038WAT     H187356   5.187   0.050   8.267
29038WAT     H287357   5.286   0.160   8.336
29039WAT      O87358   0.164   0.067   0.301
29039WAT     H187359   0.110   0.145   0.329
29039WAT     H287360   0.261   0.091   0.301
29040WAT      O87361   7.609   4.240   4.613
29040WAT     H187362   7.526   4.231   4.668
29040WAT     H287363   7.674   4.300   4.659
29041WAT      O87364   2.862   7.133   5.276
29041WAT     H187365   2.885   7.055   5.334
29041WAT     H287366   2.817   7.101   5.193
29042WAT      O87367   7.288   4.298   2.857
29042WAT     H187368   7.317   4.276   2.763
29042WAT     H287369   7.229   4.379   2.855
29043WAT      O87370   6.105   9.466   9.290
29043WAT     H187371   6.154   9.511   9.365
29043WAT     H287372   6.101   9.527   9.211
29044WAT      O87373   9.002   7.497   6.152
29044WAT     H187374   8.902   7.495   6.161
29044WAT     H287375   9.042   7.531   6.237
29045WAT      O87376   4.432   6.691   8.187
29045WAT     H187377   4.482   6.659   8.267
29045WAT     H287378   4.366   6.621   8.159
29046WAT      O87379   0.008   8.341   2.778
29046WAT     H187380   0.001   8.384   2.688
29046WAT     H287381  -0.084   8.334   2.817
29047WAT      O87382   4.874   2.120   0.415
29047WAT     H187383   4.778   2.111   0.390
29047WAT     H287384   4.881   2.150   0.510
29048WAT      O87385   1.575   0.473   2.246
29048WAT     H187386   1.651   0.537   2.251
29048WAT     H287387   1.506   0.497   2.315
29049WAT      O87388   6.185   8.673   4.529
29049WAT     H187389   6.118   8.617   4.577
29049WAT     H287390   6.233   8.732   4.595
29050WAT      O87391   5.500   8.305   3.754
29050WAT     H187392   5.592   8.340   3.732
29050WAT     H287393   5.461   8.359   3.828
29051WAT      O87394   2.285   5.509   4.301
29051WAT     H187395   2.192   5.511   4.335
29051WAT     H287396   2.312   5.415   4.280
29052WAT      O87397   1.716   5.249   4.275
29052WAT     H187398   1.745   5.296   4.192
29052WAT     H287399   1.790   5.188   4.306
29053WAT      O87400   2.712   6.329   7.713
29053WAT     H187401   2.720   6.407   7.776
29053WAT     H287402   2.629   6.339   7.659
29054WAT      O87403   9.283   0.426   8.251
29054WAT     H187404   9.327   0.459   8.169
29054WAT     H287405   9.204   0.369   8.226
29055WAT      O87406   1.187   1.304   7.081
29055WAT     H187407   1.223   1.321   6.989
29055WAT     H287408   1.159   1.208   7.087
29056WAT      O87409   3.506   4.542   7.996
29056WAT     H187410   3.518   4.613   8.066
29056WAT     H287411   3.559   4.461   8.021
29057WAT      O87412   6.328   3.955   8.690
29057WAT     H187413   6.344   3.856   8.689
29057WAT     H287414   6.354   3.995   8.603
29058WAT      O87415   3.166   5.899   6.875
29058WAT     H187416   3.222   5.921   6.955
29058WAT     H287417   3.105   5.975   6.854
29059WAT      O87418   9.702   8.215   1.882
29059WAT     H187419   9.789   8.186   1.842
29059WAT     H287420   9.681   8.158   1.961
29060WAT      O87421   5.590   3.262   1.334
29060WAT     H187422   5.564   3.171   1.366
29060WAT     H287423   5.555   3.277   1.242
29061WAT      O87424   8.663   8.946   5.270
29061WAT     H187425   8.643   8.947   5.172
29061WAT     H287426   8.761   8.936   5.284
29062WAT      O87427   6.877   1.358   1.388
29062WAT     H187428   6.801   1.360   1.452
29062WAT     H287429   6.902   1.263   1.368
29063WAT      O87430   4.491   6.687   9.566
29063WAT     H187431   4.397   6.696   9.599
29063WAT     H287432   4.525   6.595   9.585
29064WAT      O87433   7.312   3.673   3.887
29064WAT     H187434   7.386   3.610   3.909
29064WAT     H287435   7.316   3.695   3.789
29065WAT      O87436   2.438   1.713   9.789
29065WAT     H187437   2.480   1.803   9.778
29065WAT     H287438   2.343   1.724   9.816
29066WAT      O87439   9.661   1.282   1.932
29066WAT     H187440   9.600   1.253   2.006
29066WAT     H287441   9.701   1.202   1.889
29067WAT      O87442   3.836   8.546   2.470
29067WAT     H187443   3.746   8.539   2.428
29067WAT     H287444   3.879   8.456   2.473
29068WAT      O87445   6.942   7.289   6.208
29068WAT     H187446   6.983   7.200   6.190
29068WAT     H287447   6.999   7.361   6.168
29069WAT      O87448   1.117   2.587   5.987
29069WAT     H187449   1.072   2.531   5.917
29069WAT     H287450   1.205   2.619   5.953
29070WAT      O87451   5.265   1.811   2.563
29070WAT     H187452   5.247   1.773   2.654
29070WAT     H287453   5.235   1.745   2.494
29071WAT      O87454   4.538   9.554   6.025
29071WAT     H187455   4.568   9.470   5.980
29071WAT     H287456   4.479   9.605   5.962
29072WAT      O87457   2.868   8.500   2.163
29072WAT     H187458   2.776   8.508   2.126
29072WAT     H287459   2.931   8.556   2.109
29073WAT      O87460   9.286   0.912   0.647
29073WAT     H187461   9.298   0.955   0.557
29073WAT     H287462   9.368   0.925   0.702
29074WAT      O87463   1.817   6.293   8.418
29074WAT     H187464   1.878   6.264   8.344
29074WAT     H287465   1.770   6.378   8.392
29075WAT      O87466   7.888   0.924   2.762
29075WAT     H187467   7.883   0.825   2.743
29075WAT     H287468   7.981   0.947   2.791
29076WAT      O87469   1.871   7.784   9.316
29076WAT     H187470   1.815   7.735   9.383
29076WAT     H287471   1.967   7.781   9.345
29077WAT      O87472   0.643   8.897   0.764
29077WAT     H187473   0.588   8.945   0.833
29077WAT     H287474   0.736   8.932   0.766
29078WAT      O87475   4.257   6.565   7.836
29078WAT     H187476   4.229   6.489   7.777
29078WAT     H287477   4.346   6.599   7.807
29079WAT      O87478   8.425   8.217   6.375
29079WAT     H187479   8.455   8.304   6.336
29079WAT     H287480   8.504   8.165   6.407
29080WAT      O87481   1.551   4.683   4.038
29080WAT     H187482   1.587   4.756   4.095
29080WAT     H287483   1.487   4.627   4.091
29081WAT      O87484   4.657   4.788   2.217
29081WAT     H187485   4.608   4.741   2.290
29081WAT     H287486   4.733   4.839   2.256
29082WAT      O87487   3.508   9.197   7.446
29082WAT     H187488   3.520   9.287   7.486
29082WAT     H287489   3.465   9.136   7.512
29083WAT      O87490   2.523   7.288   0.290
29083WAT     H187491   2.585   7.345   0.237
29083WAT     H287492   2.549   7.292   0.387
29084WAT      O87493   5.683   2.237   7.621
29084WAT     H187494   5.648   2.165   7.681
29084WAT     H287495   5.749   2.293   7.671
29085WAT      O87496   6.114   4.868   1.238
29085WAT     H187497   6.181   4.795   1.250
29085WAT     H287498   6.087   4.903   1.327
29086WAT      O87499   1.211   7.856   0.041
29086WAT     H187500   1.146   7.879  -0.032
29086WAT     H287501   1.161   7.822   0.121
29087WAT      O87502   3.172   7.502   3.971
29087WAT     H187503   3.075   7.513   3.993
29087WAT     H287504   3.183   7.489   3.873
29088WAT      O87505   9.310   9.470   7.871
29088WAT     H187506   9.263   9.388   7.838
29088WAT     H287507   9.357   9.514   7.795
29089WAT      O87508   8.731   2.234   2.478
29089WAT     H187509   8.745   2.307   2.411
29089WAT     H287510   8.818   2.213   2.523
29090WAT      O87511   4.696   7.549   8.807
29090WAT     H187512   4.788   7.588   8.807
29090WAT     H287513   4.629   7.624   8.803
29091WAT      O87514   6.249   8.836   2.889
29091WAT     H187515   6.214   8.789   2.970
29091WAT     H287516   6.212   8.792   2.807
29092WAT      O87517   3.817   1.242   4.646
29092WAT     H187518   3.860   1.165   4.598
29092WAT     H287519   3.888   1.303   4.680
29093WAT      O87520   9.291   0.421   0.096
29093WAT     H187521   9.353   0.492   0.062
29093WAT     H287522   9.281   0.349   0.027
29094WAT      O87523   1.852   6.261   0.610
29094WAT     H187524   1.931   6.199   0.612
29094WAT     H287525   1.871   6.341   0.667
29095WAT      O87526   2.590   0.674   3.675
29095WAT     H187527   2.653   0.751   3.671
29095WAT     H287528   2.635   0.597   3.719
29096WAT      O87529   5.035   5.006   7.702
29096WAT     H187530   4.980   4.984   7.621
29096WAT     H287531   5.064   5.101   7.698
29097WAT      O87532   8.566   7.633   6.699
29097WAT     H187533   8.479   7.594   6.668
29097WAT     H287534   8.637   7.563   6.696
29098WAT      O87535   6.547   0.158   7.310
29098WAT     H187536   6.495   0.072   7.310
29098WAT     H287537   6.585   0.174   7.220
29099WAT      O87538   0.682   0.107   1.205
29099WAT     H187539   0.632   0.041   1.150
29099WAT     H287540   0.645   0.108   1.298
29100WAT      O87541   1.184   6.211   2.461
29100WAT     H187542   1.244   6.163   2.525
29100WAT     H287543   1.216   6.305   2.449
29101WAT      O87544   8.915   4.922   8.716
29101WAT     H187545   8.908   4.825   8.738
29101WAT     H287546   8.903   4.934   8.617
29102WAT      O87547   7.079   6.343   1.179
29102WAT     H187548   7.017   6.368   1.254
29102WAT     H287549   7.027   6.295   1.109
29103WAT      O87550   3.709   9.027   9.018
29103WAT     H187551   3.701   8.930   8.997
29103WAT     H287552   3.621   9.072   9.002
29104WAT      O87553   8.443   5.718   0.182
29104WAT     H187554   8.445   5.806   0.229
29104WAT     H287555   8.524   5.665   0.205
29105WAT      O87556   3.375   4.463   2.104
29105WAT     H187557   3.340   4.373   2.127
29105WAT     H287558   3.475   4.461   2.102
29106WAT      O87559   6.160   6.203   0.983
29106WAT     H187560   6.086   6.178   1.045
29106WAT     H287561   6.199   6.290   1.010
29107WAT      O87562   9.752   7.678   9.126
29107WAT     H187563   9.708   7.589   9.113
29107WAT     H287564   9.755   7.700   9.223
29108WAT      O87565   9.126   4.967   2.713
29108WAT     H187566   9.043   4.928   2.753
29108WAT     H287567   9.136   4.936   2.618
29109WAT      O87568   7.443   2.019   6.830
29109WAT     H187569   7.452   2.011   6.731
29109WAT     H287570   7.443   2.116   6.856
29110WAT      O87571   3.209   0.628   7.899
29110WAT     H187572   3.177   0.708   7.848
29110WAT     H287573   3.146   0.552   7.885
29111WAT      O87574   4.475   6.468   5.743
29111WAT     H187575   4.401   6.446   5.680
29111WAT     H287576   4.562   6.439   5.702
29112WAT      O87577   3.859   5.065   8.430
29112WAT     H187578   3.862   5.049   8.331
29112WAT     H287579   3.775   5.026   8.467
29113WAT      O87580   6.099   6.601   2.009
29113WAT     H187581   6.066   6.527   1.950
29113WAT     H287582   6.197   6.590   2.025
29114WAT      O87583   8.990   7.590   7.928
29114WAT     H187584   8.969   7.586   7.830
29114WAT     H287585   8.906   7.582   7.981
29115WAT      O87586   2.973   8.244   6.932
29115WAT     H187587   3.038   8.173   6.908
29115WAT     H287588   2.888   8.231   6.880
29116WAT      O87589   6.282   0.632   5.301
29116WAT     H187590   6.283   0.536   5.329
29116WAT     H287591   6.369   0.675   5.326
29117WAT      O87592   5.256   1.244   0.087
29117WAT     H187593   5.270   1.185   0.007
29117WAT     H287594   5.218   1.332   0.057
29118WAT      O87595   3.419   1.732   0.797
29118WAT     H187596   3.369   1.682   0.868
29118WAT     H287597   3.456   1.816   0.836
29119WAT      O87598   1.120   8.151   5.988
29119WAT     H187599   1.078   8.158   6.078
29119WAT     H287600   1.148   8.242   5.957
29120WAT      O87601   5.102   8.211   3.658
29120WAT     H187602   5.040   8.208   3.737
29120WAT     H287603   5.134   8.305   3.644
29121WAT      O87604   3.384   0.747   8.977
29121WAT     H187605   3.345   0.696   9.054
29121WAT     H287606   3.310   0.780   8.918
29122WAT      O87607   9.214   7.255   8.678
29122WAT     H187608   9.268   7.227   8.758
29122WAT     H287609   9.251   7.340   8.642
29123WAT      O87610   0.385   9.382   9.817
29123WAT     H187611   0.304   9.427   9.854
29123WAT     H287612   0.456   9.450   9.798
29124WAT      O87613   6.783   6.831   6.924
29124WAT     H187614   6.683   6.838   6.916
29124WAT     H287615   6.811   6.855   7.017
29125WAT      O87616   5.196   4.767   7.685
29125WAT     H187617   5.292   4.792   7.691
29125WAT     H287618   5.140   4.846   7.713
29126WAT      O87619   3.853   7.070   0.329
29126WAT     H187620   3.853   7.167   0.306
29126WAT     H287621   3.806   7.057   0.417
29127WAT      O87622   7.673   9.289   1.860
29127WAT     H187623   7.718   9.369   1.819
29127WAT     H287624   7.729   9.208   1.843
29128WAT      O87625   8.150   7.396   4.418
29128WAT     H187626   8.236   7.366   4.377
29128WAT     H287627   8.111   7.321   4.473
29129WAT      O87628   5.999   2.039   2.656
29129WAT     H187629   5.975   2.112   2.720
29129WAT     H287630   6.079   2.066   2.604
29130WAT      O87631   8.518   5.998   1.367
29130WAT     H187632   8.551   5.976   1.276
29130WAT     H287633   8.595   6.023   1.426
29131WAT      O87634   4.761   3.329   2.570
29131WAT     H187635   4.839   3.347   2.629
29131WAT     H287636   4.726   3.237   2.588
29132WAT      O87637   8.340   8.448   5.895
29132WAT     H187638   8.432   8.411   5.913
29132WAT     H287639   8.329   8.463   5.797
29133WAT      O87640   7.610   4.717   1.799
29133WAT     H187641   7.618   4.684   1.705
29133WAT     H287642   7.702   4.736   1.835
29134WAT      O87643   8.587   5.273   8.644
29134WAT     H187644   8.663   5.222   8.685
29134WAT     H287645   8.623   5.334   8.573
29135WAT      O87646   3.899   7.633   7.098
29135WAT     H187647   3.882   7.540   7.129
29135WAT     H287648   3.971   7.633   7.028
29136WAT      O87649   5.247   8.247   8.698
29136WAT     H187650   5.296   8.262   8.784
29136WAT     H287651   5.152   8.221   8.718
29137WAT      O87652   3.818   6.117   4.696
29137WAT     H187653   3.910   6.153   4.712
29137WAT     H287654   3.795   6.125   4.599
29138WAT      O87655   1.235   3.820   3.497
29138WAT     H187656   1.237   3.875   3.581
29138WAT     H287657   1.318   3.838   3.444
29139WAT      O87658   8.460   2.556   0.584
29139WAT     H187659   8.467   2.493   0.661
29139WAT     H287660   8.429   2.506   0.503
29140WAT      O87661   0.073   7.640   4.043
29140WAT     H187662  -0.009   7.652   4.098
29140WAT     H287663   0.054   7.664   3.948
29141WAT      O87664   2.853   0.657   8.714
29141WAT     H187665   2.802   0.740   8.689
29141WAT     H287666   2.857   0.650   8.814
29142WAT      O87667   7.815   8.377   6.007
29142WAT     H187668   7.777   8.343   5.921
29142WAT     H287669   7.895   8.433   5.988
29143WAT      O87670   9.371   7.696   9.885
29143WAT     H187671   9.316   7.737   9.959
29143WAT     H287672   9.441   7.761   9.856
29144WAT      O87673   3.423   1.967   6.474
29144WAT     H187674   3.472   1.885   6.505
29144WAT     H287675   3.444   2.043   6.535
29145WAT      O87676   1.337   1.179   9.154
29145WAT     H187677   1.393   1.239   9.210
29145WAT     H287678   1.352   1.084   9.182
29146WAT      O87679   0.639   9.591   2.212
29146WAT     H187680   0.555   9.604   2.158
29146WAT     H287681   0.683   9.679   2.228
29147WAT      O87682   9.196   3.763   2.757
29147WAT     H187683   9.195   3.791   2.853
29147WAT     H287684   9.290   3.756   2.726
29148WAT      O87685   0.665   7.184   3.038
29148WAT     H187686   0.706   7.104   3.081
29148WAT     H287687   0.670   7.175   2.939
29149WAT      O87688   9.399   5.055   1.567
29149WAT     H187689   9.373   5.006   1.650
29149WAT     H287690   9.391   5.153   1.583
29150WAT      O87691   9.654   1.425   5.982
29150WAT     H187692   9.636   1.433   5.884
29150WAT     H287693   9.586   1.365   6.024
29151WAT      O87694   3.671   4.718   2.309
29151WAT     H187695   3.590   4.704   2.253
29151WAT     H287696   3.649   4.700   2.405
29152WAT      O87697   7.272   0.787   4.479
29152WAT     H187698   7.277   0.744   4.389
29152WAT     H287699   7.321   0.731   4.546
29153WAT      O87700   4.156   7.265   5.769
29153WAT     H187701   4.076   7.291   5.715
29153WAT     H287702   4.239   7.271   5.713
29154WAT      O87703   2.785   9.153   5.262
29154WAT     H187704   2.688   9.140   5.284
29154WAT     H287705   2.794   9.230   5.198
29155WAT      O87706   7.085   4.893   4.297
29155WAT     H187707   7.094   4.987   4.328
29155WAT     H287708   7.053   4.836   4.373
29156WAT      O87709   4.947   2.482   0.988
29156WAT     H187710   4.942   2.510   1.084
29156WAT     H287711   5.040   2.495   0.954
29157WAT      O87712   8.467   7.717   5.839
29157WAT     H187713   8.496   7.768   5.920
29157WAT     H287714   8.417   7.635   5.866
29158WAT      O87715   9.332   0.980   5.797
29158WAT     H187716   9.293   0.928   5.874
29158WAT     H287717   9.419   0.939   5.770
29159WAT      O87718   9.476   7.154   6.272
29159WAT     H187719   9.574   7.155   6.252
29159WAT     H287720   9.450   7.065   6.309
29160WAT      O87721   6.809   0.080   5.631
29160WAT     H187722   6.897   0.081   5.584
29160WAT     H287723   6.789   0.172   5.666
29161WAT      O87724   8.172   1.192   3.698
29161WAT     H187725   8.210   1.163   3.610
29161WAT     H287726   8.105   1.265   3.683
29162WAT      O87727   8.451   9.562   9.850
29162WAT     H187728   8.530   9.588   9.906
29162WAT     H287729   8.435   9.633   9.782
29163WAT      O87730   3.217   4.208   7.205
29163WAT     H187731   3.135   4.228   7.151
29163WAT     H287732   3.207   4.244   7.297
29164WAT      O87733   3.997   1.195   2.342
29164WAT     H187734   3.912   1.142   2.346
29164WAT     H287735   3.988   1.276   2.399
29165WAT      O87736   3.852   1.711   4.769
29165WAT     H187737   3.755   1.698   4.790
29165WAT     H287738   3.866   1.802   4.729
29166WAT      O87739   3.865   2.164   3.633
29166WAT     H187740   3.881   2.230   3.560
29166WAT     H287741   3.866   2.212   3.721
29167WAT      O87742   2.299   4.027   8.036
29167WAT     H187743   2.323   4.124   8.039
29167WAT     H287744   2.250   4.007   7.951
29168WAT      O87745   0.278   9.388   3.617
29168WAT     H187746   0.342   9.410   3.545
29168WAT     H287747   0.322   9.330   3.686
29169WAT      O87748   3.450   8.062   7.354
29169WAT     H187749   3.431   8.157   7.381
29169WAT     H287750   3.548   8.043   7.368
29170WAT      O87751   1.206   1.500   3.091
29170WAT     H187752   1.174   1.565   3.160
29170WAT     H287753   1.283   1.447   3.128
29171WAT      O87754   7.347   9.356   8.366
29171WAT     H187755   7.325   9.271   8.414
29171WAT     H287756   7.355   9.430   8.432
29172WAT      O87757   2.938   5.473   2.234
29172WAT     H187758   2.954   5.560   2.281
29172WAT     H287759   2.936   5.399   2.300
29173WAT      O87760   6.248   8.687   5.181
29173WAT     H187761   6.290   8.658   5.267
29173WAT     H287762   6.234   8.607   5.123
29174WAT      O87763   7.142   9.150   0.879
29174WAT     H187764   7.131   9.112   0.971
29174WAT     H287765   7.061   9.128   0.824
29175WAT      O87766   0.272   7.536   7.933
29175WAT     H187767   0.361   7.510   7.896
29175WAT     H287768   0.275   7.632   7.963
29176WAT      O87769   5.907   8.847   0.992
29176WAT     H187770   5.914   8.915   0.919
29176WAT     H287771   5.816   8.852   1.033
29177WAT      O87772   2.058   6.531   3.719
29177WAT     H187773   2.108   6.612   3.688
29177WAT     H287774   1.986   6.558   3.782
29178WAT      O87775   5.749   9.572   6.375
29178WAT     H187776   5.672   9.622   6.416
29178WAT     H287777   5.835   9.610   6.409
29179WAT      O87778   0.241   4.097   3.261
29179WAT     H187779   0.205   4.095   3.168
29179WAT     H287780   0.288   4.011   3.280
29180WAT      O87781   3.467   9.566   2.672
29180WAT     H187782   3.421   9.613   2.597
29180WAT     H287783   3.543   9.512   2.636
29181WAT      O87784   3.228   6.517   5.686
29181WAT     H187785   3.269   6.505   5.776
29181WAT     H287786   3.234   6.431   5.635
29182WAT      O87787   0.550   6.343   8.520
29182WAT     H187788   0.574   6.351   8.617
29182WAT     H287789   0.622   6.292   8.473
29183WAT      O87790   7.103   9.194   1.196
29183WAT     H187791   7.068   9.184   1.289
29183WAT     H287792   7.194   9.152   1.191
29184WAT      O87793   7.963   4.063   5.970
29184WAT     H187794   8.047   4.075   6.022
29184WAT     H287795   7.909   4.147   5.973
29185WAT      O87796   6.484   8.265   5.466
29185WAT     H187797   6.455   8.169   5.468
29185WAT     H287798   6.509   8.291   5.373
29186WAT      O87799   5.631   8.247   6.009
29186WAT     H187800   5.704   8.191   5.971
29186WAT     H287801   5.621   8.226   6.107
29187WAT      O87802   6.015   6.545   4.145
29187WAT     H187803   6.114   6.544   4.133
29187WAT     H287804   5.976   6.464   4.103
29188WAT      O87805   7.304   4.582   8.425
29188WAT     H187806   7.401   4.577   8.403
29188WAT     H287807   7.292   4.635   8.509
29189WAT      O87808   5.416   3.797   2.306
29189WAT     H187809   5.410   3.876   2.367
29189WAT     H287810   5.501   3.748   2.323
29190WAT      O87811   3.018   0.323   6.567
29190WAT     H187812   3.027   0.230   6.532
29190WAT     H287813   2.934   0.364   6.532
29191WAT      O87814   9.180   1.797   6.643
29191WAT     H187815   9.142   1.719   6.692
29191WAT     H287816   9.152   1.882   6.687
29192WAT      O87817   4.154   0.547   1.272
29192WAT     H187818   4.086   0.516   1.205
29192WAT     H287819   4.116   0.536   1.364
29193WAT      O87820   8.879   0.315   2.471
29193WAT     H187821   8.781   0.305   2.458
29193WAT     H287822   8.916   0.379   2.403
29194WAT      O87823   8.554   6.382   1.262
29194WAT     H187824   8.633   6.323   1.280
29194WAT     H287825   8.572   6.474   1.297
29195WAT      O87826   7.541   0.597   0.060
29195WAT     H187827   7.639   0.595   0.039
29195WAT     H287828   7.490   0.548  -0.010
29196WAT      O87829   9.721   8.703   3.346
29196WAT     H187830   9.745   8.799   3.336
29196WAT     H287831   9.736   8.656   3.258
29197WAT      O87832   0.218   2.865   5.354
29197WAT     H187833   0.194   2.947   5.406
29197WAT     H287834   0.249   2.793   5.416
29198WAT      O87835   1.519   9.700   1.869
29198WAT     H187836   1.481   9.694   1.777
29198WAT     H287837   1.619   9.700   1.865
29199WAT      O87838   5.194   8.150   7.079
29199WAT     H187839   5.240   8.173   6.993
29199WAT     H287840   5.247   8.080   7.127
29200WAT      O87841   0.833   8.095   4.136
29200WAT     H187842   0.778   8.150   4.198
29200WAT     H287843   0.863   8.012   4.182
29201WAT      O87844   2.167   4.355   3.701
29201WAT     H187845   2.250   4.401   3.666
29201WAT     H287846   2.087   4.407   3.672
29202WAT      O87847   6.978   3.303   1.685
29202WAT     H187848   6.934   3.288   1.597
29202WAT     H287849   7.015   3.216   1.719
29203WAT      O87850   7.770   5.971   5.274
29203WAT     H187851   7.758   5.874   5.295
29203WAT     H287852   7.806   6.018   5.354
29204WAT      O87853   2.492   7.075   2.297
29204WAT     H187854   2.527   7.008   2.362
29204WAT     H287855   2.567   7.129   2.261
29205WAT      O87856   9.743   3.115   5.604
29205WAT     H187857   9.681   3.164   5.666
29205WAT     H287858   9.711   3.127   5.510
29206WAT      O87859   2.005   5.565   3.122
29206WAT     H187860   2.050   5.487   3.077
29206WAT     H287861   2.029   5.564   3.220
29207WAT      O87862   0.869   2.142   5.749
29207WAT     H187863   0.878   2.043   5.738
29207WAT     H287864   0.948   2.187   5.707
29208WAT      O87865   0.903   5.330   6.781
29208WAT     H187866   0.984   5.373   6.823
29208WAT     H287867   0.887   5.241   6.824
29209WAT      O87868   8.716   1.247   0.846
29209WAT     H187869   8.629   1.262   0.893
29209WAT     H287870   8.790   1.288   0.898
29210WAT      O87871   3.902   1.257   5.292
29210WAT     H187872   3.998   1.282   5.274
29210WAT     H287873   3.880   1.277   5.388
29211WAT      O87874   4.513   9.612   4.607
29211WAT     H187875   4.499   9.664   4.692
29211WAT     H287876   4.424   9.593   4.565
29212WAT      O87877   6.237   5.777   6.184
29212WAT     H187878   6.180   5.840   6.238
29212WAT     H287879   6.204   5.775   6.090
29213WAT      O87880   3.378   1.572   7.978
29213WAT     H187881   3.339   1.558   7.887
29213WAT     H287882   3.311   1.614   8.038
29214WAT      O87883   3.787   9.550   0.550
29214WAT     H187884   3.826   9.570   0.460
29214WAT     H287885   3.703   9.601   0.563
29215WAT      O87886   4.598   1.200   3.517
29215WAT     H187887   4.573   1.258   3.440
29215WAT     H287888   4.525   1.201   3.585
29216WAT      O87889   2.712   3.296   6.092
29216WAT     H187890   2.710   3.369   6.160
29216WAT     H287891   2.802   3.252   6.093
29217WAT      O87892   5.419   3.856   6.607
29217WAT     H187893   5.439   3.789   6.679
29217WAT     H287894   5.352   3.922   6.641
29218WAT      O87895   8.754   0.043   6.733
29218WAT     H187896   8.675   0.103   6.721
29218WAT     H287897   8.802   0.068   6.818
29219WAT      O87898   9.329   9.561   1.707
29219WAT     H187899   9.393   9.490   1.676
29219WAT     H287900   9.268   9.523   1.777
29220WAT      O87901   3.969   9.103   7.816
29220WAT     H187902   3.901   9.129   7.747
29220WAT     H287903   3.934   9.027   7.870
29221WAT      O87904   8.050   7.968   9.539
29221WAT     H187905   8.001   8.006   9.617
29221WAT     H287906   7.992   7.902   9.492
29222WAT      O87907   2.157   9.197   8.617
29222WAT     H187908   2.200   9.258   8.683
29222WAT     H287909   2.200   9.209   8.528
29223WAT      O87910   8.643   2.999   8.800
29223WAT     H187911   8.647   3.048   8.886
29223WAT     H287912   8.678   3.056   8.726
29224WAT      O87913   4.207   6.054   0.790
29224WAT     H187914   4.157   5.971   0.814
29224WAT     H287915   4.157   6.105   0.720
29225WAT      O87916   6.637   2.179   4.452
29225WAT     H187917   6.594   2.269   4.453
29225WAT     H287918   6.601   2.124   4.527
29226WAT      O87919   4.570   8.840   1.479
29226WAT     H187920   4.470   8.847   1.490
29226WAT     H287921   4.613   8.925   1.508
29227WAT      O87922   4.650   5.025   3.374
29227WAT     H187923   4.585   5.031   3.450
29227WAT     H287924   4.600   5.002   3.290
29228WAT      O87925   4.832   3.324   7.118
29228WAT     H187926   4.787   3.321   7.207
29228WAT     H287927   4.927   3.294   7.128
29229WAT      O87928   4.020   1.376   3.006
29229WAT     H187929   3.932   1.394   3.049
29229WAT     H287930   4.092   1.427   3.054
29230WAT      O87931   7.240   8.385   6.395
29230WAT     H187932   7.326   8.421   6.432
29230WAT     H287933   7.259   8.338   6.309
29231WAT      O87934   6.551   1.964   4.301
29231WAT     H187935   6.599   2.043   4.339
29231WAT     H287936   6.459   1.958   4.341
29232WAT      O87937   0.358   1.057   3.130
29232WAT     H187938   0.420   1.004   3.072
29232WAT     H287939   0.383   1.154   3.127
29233WAT      O87940   1.049   0.044   5.499
29233WAT     H187941   0.980   0.105   5.537
29233WAT     H287942   1.070   0.072   5.405
29234WAT      O87943   1.352   2.995   4.155
29234WAT     H187944   1.447   2.995   4.125
29234WAT     H287945   1.324   3.089   4.178
29235WAT      O87946   7.297   2.279   4.039
29235WAT     H187947   7.216   2.333   4.063
29235WAT     H287948   7.271   2.183   4.029
29236WAT      O87949   0.805   2.622   6.992
29236WAT     H187950   0.726   2.683   6.991
29236WAT     H287951   0.809   2.572   6.905
29237WAT      O87952   5.923   0.095   1.200
29237WAT     H187953   5.890   0.184   1.169
29237WAT     H287954   6.004   0.107   1.256
29238WAT      O87955   1.127   3.736   3.829
29238WAT     H187956   1.179   3.820   3.814
29238WAT     H287957   1.080   3.710   3.744
29239WAT      O87958   5.118   1.655   2.400
29239WAT     H187959   5.040   1.708   2.432
29239WAT     H287960   5.136   1.676   2.304
29240WAT      O87961   8.066   9.161   1.543
29240WAT     H187962   8.084   9.077   1.492
29240WAT     H287963   8.067   9.239   1.481
29241WAT      O87964   6.122   0.617   7.473
29241WAT     H187965   6.200   0.568   7.511
29241WAT     H287966   6.149   0.711   7.449
29242WAT      O87967   4.182   3.591   1.095
29242WAT     H187968   4.210   3.568   1.188
29242WAT     H287969   4.221   3.681   1.071
29243WAT      O87970   9.498   9.591   2.504
29243WAT     H187971   9.525   9.672   2.557
29243WAT     H287972   9.408   9.606   2.464
29244WAT      O87973   7.206   1.928   1.997
29244WAT     H187974   7.281   1.902   1.935
29244WAT     H287975   7.244   1.977   2.075
29245WAT      O87976   2.187   8.919   8.638
29245WAT     H187977   2.193   9.018   8.647
29245WAT     H287978   2.276   8.882   8.612
29246WAT      O87979   8.271   2.957   6.434
29246WAT     H187980   8.264   2.932   6.337
29246WAT     H287981   8.311   3.048   6.441
29247WAT      O87982   0.760   2.707   3.353
29247WAT     H187983   0.785   2.627   3.407
29247WAT     H287984   0.733   2.782   3.414
29248WAT      O87985   2.149   2.640   0.340
29248WAT     H187986   2.166   2.544   0.361
29248WAT     H287987   2.073   2.647   0.276
29249WAT      O87988   8.663   4.068   1.752
29249WAT     H187989   8.580   4.012   1.742
29249WAT     H287990   8.742   4.016   1.721
29250WAT      O87991   6.143   3.760   4.860
29250WAT     H187992   6.241   3.740   4.861
29250WAT     H287993   6.106   3.738   4.770
29251WAT      O87994   2.013   6.076   1.661
29251WAT     H187995   1.931   6.129   1.683
29251WAT     H287996   2.082   6.090   1.732
29252WAT      O87997   6.279   0.094   7.936
29252WAT     H187998   6.201   0.154   7.952
29252WAT     H287999   6.247  -0.000   7.927
29253WAT      O88000   7.757   9.202   3.234
29253WAT     H188001   7.706   9.274   3.281
29253WAT     H288002   7.796   9.139   3.302
29254WAT      O88003   7.414   7.571   4.862
29254WAT     H188004   7.376   7.663   4.873
29254WAT     H288005   7.458   7.564   4.772
29255WAT      O88006   4.204   8.119   4.398
29255WAT     H188007   4.159   8.083   4.480
29255WAT     H288008   4.212   8.219   4.405
29256WAT      O88009   8.859   8.150   4.413
29256WAT     H188010   8.872   8.129   4.510
29256WAT     H288011   8.910   8.083   4.358
29257WAT      O88012   1.578   3.878   4.902
29257WAT     H188013   1.676   3.877   4.920
29257WAT     H288014   1.559   3.827   4.818
29258WAT      O88015   7.861   9.308   8.360
29258WAT     H188016   7.826   9.230   8.308
29258WAT     H288017   7.954   9.328   8.332
29259WAT      O88018   1.195   8.615   8.924
29259WAT     H188019   1.217   8.706   8.888
29259WAT     H288020   1.277   8.575   8.965
29260WAT      O88021   4.117   4.052   3.548
29260WAT     H188022   4.056   3.974   3.534
29260WAT     H288023   4.082   4.110   3.621
29261WAT      O88024   8.103   1.832   6.714
29261WAT     H188025   8.154   1.809   6.797
29261WAT     H288026   8.040   1.907   6.733
29262WAT      O88027   3.475   7.562   1.845
29262WAT     H188028   3.429   7.565   1.756
29262WAT     H288029   3.572   7.581   1.834
29263WAT      O88030   4.683   5.320   9.620
29263WAT     H188031   4.643   5.245   9.674
29263WAT     H288032   4.677   5.405   9.673
29264WAT      O88033   9.446   4.306   6.520
29264WAT     H188034   9.355   4.316   6.482
29264WAT     H288035   9.502   4.248   6.460
29265WAT      O88036   4.242   7.544   2.078
29265WAT     H188037   4.228   7.609   2.152
29265WAT     H288038   4.175   7.562   2.005
29266WAT      O88039   6.129   7.200   7.824
29266WAT     H188040   6.179   7.158   7.748
29266WAT     H288041   6.179   7.282   7.855
29267WAT      O88042   5.362   4.790   1.043
29267WAT     H188043   5.417   4.872   1.059
29267WAT     H288044   5.365   4.767   0.946
29268WAT      O88045   1.975   4.518   5.670
29268WAT     H188046   1.971   4.579   5.750
29268WAT     H288047   1.927   4.433   5.690
29269WAT      O88048   3.717   2.294   3.297
29269WAT     H188049   3.808   2.310   3.335
29269WAT     H288050   3.669   2.227   3.353
29270WAT      O88051   8.372   4.065   7.724
29270WAT     H188052   8.328   4.142   7.769
29270WAT     H288053   8.466   4.055   7.757
29271WAT      O88054   1.063   5.116   6.628
29271WAT     H188055   1.051   5.068   6.716
29271WAT     H288056   1.160   5.128   6.610
29272WAT      O88057   3.417   3.136   3.470
29272WAT     H188058   3.327   3.095   3.487
29272WAT     H288059   3.487   3.081   3.515
29273WAT      O88060   0.638   4.157   8.936
29273WAT     H188061   0.655   4.060   8.924
29273WAT     H288062   0.584   4.172   9.019
29274WAT      O88063   4.819   9.394   4.042
29274WAT     H188064   4.855   9.469   4.097
29274WAT     H288065   4.735   9.423   3.996
29275WAT      O88066   3.378   4.242   0.215
29275WAT     H188067   3.324   4.192   0.148
29275WAT     H288068   3.332   4.237   0.304
29276WAT      O88069   7.590   1.077   1.450
29276WAT     H188070   7.687   1.084   1.425
29276WAT     H288071   7.550   1.169   1.453
29277WAT      O88072   7.806   9.428   6.765
29277WAT     H188073   7.839   9.343   6.806
29277WAT     H288074   7.811   9.502   6.833
29278WAT      O88075   1.570   6.521   0.063
29278WAT     H188076   1.557   6.516   0.162
29278WAT     H288077   1.590   6.430   0.026
29279WAT      O88078   2.612   9.774   5.273
29279WAT     H188079   2.620   9.674   5.270
29279WAT     H288080   2.580   9.801   5.364
29280WAT      O88081   2.072   2.731   2.268
29280WAT     H188082   2.019   2.798   2.216
29280WAT     H288083   2.010   2.669   2.315
29281WAT      O88084   8.819   2.442   0.692
29281WAT     H188085   8.732   2.398   0.671
29281WAT     H288086   8.865   2.467   0.607
29282WAT      O88087   8.461   3.092   1.332
29282WAT     H188088   8.455   3.041   1.245
29282WAT     H288089   8.520   3.171   1.320
29283WAT      O88090   4.567   0.494   1.308
29283WAT     H188091   4.547   0.398   1.291
29283WAT     H288092   4.513   0.551   1.246
29284WAT      O88093   7.866   3.039   5.371
29284WAT     H188094   7.938   3.101   5.341
29284WAT     H288095   7.797   3.090   5.423
29285WAT      O88096   1.583   4.729   2.281
29285WAT     H188097   1.575   4.828   2.266
29285WAT     H288098   1.538   4.705   2.367
29286WAT      O88099   4.958   3.185   4.459
29286WAT     H188100   4.916   3.096   4.478
29286WAT     H288101   4.887   3.252   4.436
29287WAT      O88102   4.735   7.010   3.700
29287WAT     H188103   4.699   7.104   3.701
29287WAT     H288104   4.678   6.953   3.642
29288WAT      O88105   8.589   7.985   5.780
29288WAT     H188106   8.560   8.002   5.874
29288WAT     H288107   8.625   7.891   5.773
29289WAT      O88108   7.509   6.646   3.774
29289WAT     H188109   7.448   6.567   3.763
29289WAT     H288110   7.602   6.615   3.791
29290WAT      O88111   3.613   5.573   6.130
29290WAT     H188112   3.643   5.480   6.109
29290WAT     H288113   3.525   5.591   6.086
29291WAT      O88114   4.036   6.783   1.612
29291WAT     H188115   3.992   6.869   1.584
29291WAT     H288116   4.104   6.801   1.683
29292WAT      O88117   9.546   5.906   3.620
29292WAT     H188118   9.454   5.890   3.657
29292WAT     H288119   9.584   5.989   3.660
29293WAT      O88120   4.779   3.777   1.720
29293WAT     H188121   4.709   3.720   1.762
29293WAT     H288122   4.866   3.765   1.769
29294WAT      O88123   8.474   1.909   8.979
29294WAT     H188124   8.559   1.910   9.031
29294WAT     H288125   8.407   1.970   9.022
29295WAT      O88126   7.397   6.220   7.581
29295WAT     H188127   7.305   6.218   7.621
29295WAT     H288128   7.457   6.275   7.639
29296WAT      O88129   0.521   3.775   8.220
29296WAT     H188130   0.435   3.814   8.250
29296WAT     H288131   0.541   3.693   8.273
29297WAT      O88132   9.703   4.674   8.254
29297WAT     H188133   9.772   4.601   8.262
29297WAT     H288134   9.612   4.635   8.264
29298WAT      O88135   1.894   3.480   4.668
29298WAT     H188136   1.832   3.484   4.746
29298WAT     H288137   1.846   3.440   4.590
29299WAT      O88138   3.081   6.339   6.986
29299WAT     H188139   3.018   6.286   7.042
29299WAT     H288140   3.150   6.382   7.044
29300WAT      O88141   9.444   2.603   2.683
29300WAT     H188142   9.444   2.593   2.783
29300WAT     H288143   9.382   2.677   2.657
29301WAT      O88144   1.620   7.969   9.608
29301WAT     H188145   1.610   7.899   9.679
29301WAT     H288146   1.530   7.997   9.577
29302WAT      O88147   4.571   5.262   7.253
29302WAT     H188148   4.626   5.326   7.200
29302WAT     H288149   4.567   5.292   7.348
29303WAT      O88150   2.166   2.525   9.301
29303WAT     H188151   2.165   2.491   9.395
29303WAT     H288152   2.261   2.539   9.272
29304WAT      O88153   3.996   2.653   1.387
29304WAT     H188154   3.992   2.744   1.344
29304WAT     H288155   4.016   2.663   1.484
29305WAT      O88156   7.646   1.455   2.436
29305WAT     H188157   7.701   1.381   2.398
29305WAT     H288158   7.704   1.536   2.449
29306WAT      O88159   2.718   1.918   8.296
29306WAT     H188160   2.681   2.007   8.268
29306WAT     H288161   2.807   1.904   8.252
29307WAT      O88162   2.043   4.307   5.355
29307WAT     H188163   2.041   4.404   5.379
29307WAT     H288164   1.950   4.277   5.331
29308WAT      O88165   3.354   7.195   5.741
29308WAT     H188166   3.340   7.245   5.827
29308WAT     H288167   3.332   7.099   5.755
29309WAT      O88168   8.776   4.590   0.121
29309WAT     H188169   8.747   4.507   0.073
29309WAT     H288170   8.729   4.595   0.210
29310WAT      O88171   5.156   8.333   4.576
29310WAT     H188172   5.205   8.258   4.622
29310WAT     H288173   5.124   8.302   4.487
29311WAT      O88174   4.106   2.798   2.987
29311WAT     H188175   4.121   2.708   3.027
29311WAT     H288176   4.193   2.840   2.964
29312WAT      O88177   0.842   7.579   7.918
29312WAT     H188178   0.893   7.516   7.859
29312WAT     H288179   0.835   7.539   8.010
29313WAT      O88180   7.603   8.858   5.578
29313WAT     H188181   7.660   8.846   5.497
29313WAT     H288182   7.658   8.898   5.652
29314WAT      O88183   3.390   8.397   1.370
29314WAT     H188184   3.303   8.406   1.417
29314WAT     H288185   3.465   8.416   1.434
29315WAT      O88186   7.970   1.877   0.572
29315WAT     H188187   7.980   1.791   0.522
29315WAT     H288188   7.937   1.948   0.511
29316WAT      O88189   6.707   1.186   9.877
29316WAT     H188190   6.662   1.263   9.833
29316WAT     H288191   6.786   1.158   9.822
29317WAT      O88192   3.875   9.671   2.804
29317WAT     H188193   3.958   9.717   2.771
29317WAT     H288194   3.870   9.678   2.903
29318WAT      O88195   1.566   6.709   5.184
29318WAT     H188196   1.508   6.687   5.262
29318WAT     H288197   1.624   6.630   5.162
29319WAT      O88198   4.509   1.038   3.048
29319WAT     H188199   4.439   1.074   3.110
29319WAT     H288200   4.474   0.957   3.001
29320WAT      O88201   4.729   2.119   1.201
29320WAT     H188202   4.804   2.082   1.257
29320WAT     H288203   4.700   2.207   1.237
29321WAT      O88204   7.263   5.529   1.769
29321WAT     H188205   7.289   5.540   1.865
29321WAT     H288206   7.231   5.435   1.754
29322WAT      O88207   1.857   3.337   4.398
29322WAT     H188208   1.925   3.360   4.328
29322WAT     H288209   1.870   3.242   4.426
29323WAT      O88210   9.646   8.261   6.757
29323WAT     H188211   9.687   8.177   6.792
29323WAT     H288212   9.551   8.243   6.732
29324WAT      O88213   6.444   9.642   9.136
29324WAT     H188214   6.468   9.606   9.226
29324WAT     H288215   6.524   9.683   9.093
29325WAT      O88216   5.164   4.016   1.971
29325WAT     H188217   5.202   4.082   1.906
29325WAT     H288218   5.225   4.008   2.050
29326WAT      O88219   1.018   7.513   5.817
29326WAT     H188220   1.025   7.439   5.884
29326WAT     H288221   0.925   7.515   5.780
29327WAT      O88222   3.293   0.463   1.210
29327WAT     H188223   3.369   0.403   1.184
29327WAT     H288224   3.266   0.520   1.132
29328WAT      O88225   3.415   2.390   0.598
29328WAT     H188226   3.416   2.394   0.498
29328WAT     H288227   3.430   2.482   0.635
29329WAT      O88228   0.441   1.519   6.662
29329WAT     H188229   0.421   1.533   6.565
29329WAT     H288230   0.536   1.490   6.672
29330WAT      O88231   5.739   8.093   2.862
29330WAT     H188232   5.749   8.137   2.951
29330WAT     H288233   5.651   8.046   2.858
29331WAT      O88234   5.341   2.298   9.192
29331WAT     H188235   5.425   2.328   9.148
29331WAT     H288236   5.277   2.375   9.198
29332WAT      O88237   4.391   6.146   2.594
29332WAT     H188238   4.485   6.112   2.596
29332WAT     H288239   4.366   6.180   2.685
29333WAT      O88240   8.446   5.809   3.777
29333WAT     H188241   8.370   5.850   3.826
29333WAT     H288242   8.415   5.776   3.688
29334WAT      O88243   5.233   4.506   3.202
29334WAT     H188244   5.325   4.529   3.171
29334WAT     H288245   5.235   4.415   3.245
29335WAT      O88246   4.867   3.486   5.683
29335WAT     H188247   4.791   3.540   5.646
29335WAT     H288248   4.940   3.480   5.616
29336WAT      O88249   2.918   3.019   0.850
29336WAT     H188250   2.995   3.080   0.830
29336WAT     H288251   2.860   3.060   0.921
29337WAT      O88252   5.252   3.337   5.269
29337WAT     H188253   5.198   3.291   5.339
29337WAT     H288254   5.349   3.323   5.287
29338WAT      O88255   2.681   3.356   5.315
29338WAT     H188256   2.736   3.410   5.251
29338WAT     H288257   2.658   3.412   5.395
29339WAT      O88258   4.569   5.672   8.733
29339WAT     H188259   4.553   5.769   8.712
29339WAT     H288260   4.544   5.654   8.828
29340WAT      O88261   3.882   3.245   1.489
29340WAT     H188262   3.859   3.339   1.512
29340WAT     H288263   3.948   3.243   1.414
29341WAT      O88264   3.904   6.867   6.804
29341WAT     H188265   3.893   6.965   6.819
29341WAT     H288266   4.000   6.846   6.786
29342WAT      O88267   1.860   7.024   9.504
29342WAT     H188268   1.932   7.037   9.572
29342WAT     H288269   1.779   6.985   9.549
29343WAT      O88270   2.382   6.187   4.719
29343WAT     H188271   2.323   6.109   4.740
29343WAT     H288272   2.338   6.245   4.650
29344WAT      O88273   9.815   0.719   7.489
29344WAT     H188274   9.849   0.734   7.396
29344WAT     H288275   9.892   0.721   7.553
29345WAT      O88276   2.847   6.916   4.166
29345WAT     H188277   2.846   6.824   4.206
29345WAT     H288278   2.904   6.975   4.222
29346WAT      O88279   1.850   5.254   7.793
29346WAT     H188280   1.946   5.225   7.791
29346WAT     H288281   1.791   5.173   7.796
29347WAT      O88282   8.458   6.009   7.714
29347WAT     H188283   8.448   5.995   7.813
29347WAT     H288284   8.532   5.952   7.680
29348WAT      O88285   1.852   8.692   7.481
29348WAT     H188286   1.850   8.766   7.414
29348WAT     H288287   1.944   8.684   7.520
29349WAT      O88288   5.938   3.347   2.295
29349WAT     H188289   5.885   3.427   2.266
29349WAT     H288290   5.934   3.339   2.395
29350WAT      O88291   1.392   4.697   7.418
29350WAT     H188292   1.361   4.780   7.372
29350WAT     H288293   1.460   4.721   7.488
29351WAT      O88294   4.851   4.044   5.988
29351WAT     H188295   4.898   3.956   5.983
29351WAT     H288296   4.914   4.118   5.963
29352WAT      O88297   6.475   1.569   4.150
29352WAT     H188298   6.424   1.505   4.093
29352WAT     H288299   6.531   1.629   4.092
29353WAT      O88300   6.816   7.382   3.949
29353WAT     H188301   6.896   7.350   3.898
29353WAT     H288302   6.737   7.388   3.887
29354WAT      O88303   4.911   4.703   6.827
29354WAT     H188304   4.960   4.713   6.913
29354WAT     H288305   4.813   4.696   6.846
29355WAT      O88306   1.174   9.657   5.203
29355WAT     H188307   1.238   9.687   5.132
29355WAT     H288308   1.099   9.606   5.160
29356WAT      O88309   5.025   6.527   7.641
29356WAT     H188310   5.118   6.492   7.657
29356WAT     H288311   4.969   6.454   7.603
29357WAT      O88312   6.231   4.567   8.638
29357WAT     H188313   6.301   4.496   8.624
29357WAT     H288314   6.142   4.529   8.615
29358WAT      O88315   3.548   1.963   9.533
29358WAT     H188316   3.573   1.925   9.444
29358WAT     H288317   3.561   1.893   9.604
29359WAT      O88318   3.672   1.322   0.923
29359WAT     H188319   3.593   1.275   0.962
29359WAT     H288320   3.673   1.309   0.824
29360WAT      O88321   4.079   6.935   9.436
29360WAT     H188322   4.118   6.873   9.368
29360WAT     H288323   4.152   6.984   9.483
29361WAT      O88324   4.517   3.852   7.986
29361WAT     H188325   4.557   3.784   7.924
29361WAT     H288326   4.570   3.937   7.981
29362WAT      O88327   4.798   6.728   1.286
29362WAT     H188328   4.864   6.656   1.309
29362WAT     H288329   4.729   6.734   1.358
29363WAT      O88330   6.025   5.086   5.163
29363WAT     H188331   6.080   5.160   5.201
29363WAT     H288332   5.955   5.125   5.102
29364WAT      O88333   9.180   0.713   8.946
29364WAT     H188334   9.134   0.701   8.858
29364WAT     H288335   9.263   0.767   8.933
29365WAT      O88336   9.116   0.641   6.186
29365WAT     H188337   9.147   0.571   6.250
29365WAT     H288338   9.077   0.718   6.237
29366WAT      O88339   2.405   3.656   7.848
29366WAT     H188340   2.342   3.600   7.902
29366WAT     H288341   2.356   3.701   7.775
29367WAT      O88342   0.818   0.341   6.767
29367WAT     H188343   0.783   0.431   6.791
29367WAT     H288344   0.741   0.279   6.749
29368WAT      O88345   3.555   3.559   6.720
29368WAT     H188346   3.536   3.486   6.654
29368WAT     H288347   3.515   3.645   6.688
29369WAT      O88348   0.908   0.813   6.512
29369WAT     H188349   0.840   0.783   6.445
29369WAT     H288350   0.977   0.742   6.524
29370WAT      O88351   5.774   7.849   8.386
29370WAT     H188352   5.727   7.872   8.472
29370WAT     H288353   5.711   7.860   8.309
29371WAT      O88354   2.753   8.972   4.932
29371WAT     H188355   2.736   8.894   4.992
29371WAT     H288356   2.710   8.957   4.843
29372WAT      O88357   9.092   0.442   2.200
29372WAT     H188358   9.187   0.413   2.207
29372WAT     H288359   9.037   0.366   2.165
29373WAT      O88360   7.254   5.264   0.018
29373WAT     H188361   7.254   5.166   0.039
29373WAT     H288362   7.205   5.280  -0.068
29374WAT      O88363   5.614   0.006   1.973
29374WAT     H188364   5.605  -0.050   2.055
29374WAT     H288365   5.524   0.020   1.932
29375WAT      O88366   2.793   8.827   6.076
29375WAT     H188367   2.866   8.868   6.131
29375WAT     H288368   2.812   8.841   5.979
29376WAT      O88369   0.926   4.465   8.599
29376WAT     H188370   0.968   4.522   8.527
29376WAT     H288371   0.857   4.519   8.647
29377WAT      O88372   3.812   3.750   9.365
29377WAT     H188373   3.837   3.656   9.343
29377WAT     H288374   3.756   3.751   9.447
29378WAT      O88375   5.932   2.846   8.631
29378WAT     H188376   5.954   2.763   8.580
29378WAT     H288377   5.873   2.823   8.709
29379WAT      O88378   5.871   4.247   3.557
29379WAT     H188379   5.820   4.325   3.521
29379WAT     H288380   5.874   4.174   3.488
29380WAT      O88381   7.323   5.555   6.002
29380WAT     H188382   7.229   5.537   6.030
29380WAT     H288383   7.330   5.650   5.970
29381WAT      O88384   0.492   2.923   4.770
29381WAT     H188385   0.512   2.841   4.823
29381WAT     H288386   0.493   3.002   4.830
29382WAT      O88387   9.210   6.394   5.109
29382WAT     H188388   9.164   6.309   5.132
29382WAT     H288389   9.273   6.379   5.033
29383WAT      O88390   3.527   9.313   5.725
29383WAT     H188391   3.476   9.398   5.713
29383WAT     H288392   3.481   9.239   5.677
29384WAT      O88393   1.708   7.080   6.832
29384WAT     H188394   1.621   7.047   6.796
29384WAT     H288395   1.780   7.015   6.808
29385WAT      O88396   5.627   5.151   8.511
29385WAT     H188397   5.658   5.115   8.423
29385WAT     H288398   5.625   5.078   8.579
29386WAT      O88399   6.580   4.431   6.810
29386WAT     H188400   6.494   4.482   6.804
29386WAT     H288401   6.647   4.485   6.860
29387WAT      O88402   8.828   9.558   8.892
29387WAT     H188403   8.780   9.514   8.969
29387WAT     H288404   8.921   9.580   8.920
29388WAT      O88405   5.946   6.554   6.078
29388WAT     H188406   5.900   6.634   6.040
29388WAT     H288407   5.882   6.477   6.081
29389WAT      O88408   2.676   8.311   6.503
29389WAT     H188409   2.678   8.399   6.551
29389WAT     H288410   2.587   8.267   6.518
29390WAT      O88411   4.188   0.783   7.056
29390WAT     H188412   4.179   0.748   6.962
29390WAT     H288413   4.274   0.751   7.095
29391WAT      O88414   6.883   0.213   9.223
29391WAT     H188415   6.851   0.124   9.255
29391WAT     H288416   6.836   0.286   9.273
29392WAT      O88417   7.499   6.080   3.824
29392WAT     H188418   7.476   5.996   3.872
29392WAT     H288419   7.561   6.135   3.880
29393WAT      O88420   3.786   9.256   0.053
29393WAT     H188421   3.842   9.219   0.128
29393WAT     H288422   3.756   9.181  -0.006
29394WAT      O88423   0.738   5.986   1.355
29394WAT     H188424   0.759   6.081   1.376
29394WAT     H288425   0.644   5.965   1.383
29395WAT      O88426   3.327   3.768   0.051
29395WAT     H188427   3.293   3.674   0.042
29395WAT     H288428   3.418   3.766   0.093
29396WAT      O88429   0.416   3.016   9.519
29396WAT     H188430   0.485   3.079   9.554
29396WAT     H288431   0.432   2.999   9.422
29397WAT      O88432   6.964   7.409   1.579
29397WAT     H188433   7.059   7.441   1.578
29397WAT     H288434   6.947   7.352   1.498
29398WAT      O88435   8.985   9.771   2.087
29398WAT     H188436   8.934   9.712   2.024
29398WAT     H288437   8.988   9.728   2.178
29399WAT      O88438   4.446   9.610   3.242
29399WAT     H188439   4.517   9.680   3.246
29399WAT     H288440   4.395   9.620   3.156
29400WAT      O88441   8.925   7.487   4.084
29400WAT     H188442   8.829   7.465   4.063
29400WAT     H288443   8.978   7.484   3.999
29401WAT      O88444   8.200   3.752   0.748
29401WAT     H188445   8.292   3.741   0.785
29401WAT     H288446   8.137   3.691   0.796
29402WAT      O88447   2.580   5.654   5.379
29402WAT     H188448   2.608   5.648   5.475
29402WAT     H288449   2.533   5.741   5.363
29403WAT      O88450   8.858   3.917   3.924
29403WAT     H188451   8.846   3.818   3.934
29403WAT     H288452   8.916   3.951   3.998
29404WAT      O88453   4.837   5.269   3.982
29404WAT     H188454   4.822   5.329   3.903
29404WAT     H288455   4.930   5.233   3.980
29405WAT      O88456   6.308   0.400   6.098
29405WAT     H188457   6.332   0.319   6.045
29405WAT     H288458   6.208   0.411   6.097
29406WAT      O88459   9.311   2.267   8.553
29406WAT     H188460   9.269   2.352   8.584
29406WAT     H288461   9.334   2.275   8.456
29407WAT      O88462   8.351   5.857   5.777
29407WAT     H188463   8.335   5.859   5.678
29407WAT     H288464   8.401   5.774   5.802
29408WAT      O88465   0.435   5.617   6.329
29408WAT     H188466   0.409   5.603   6.424
29408WAT     H288467   0.455   5.714   6.314
29409WAT      O88468   5.576   8.050   8.908
29409WAT     H188469   5.626   7.993   8.973
29409WAT     H288470   5.639   8.116   8.866
29410WAT      O88471   1.147   1.807   9.550
29410WAT     H188472   1.177   1.897   9.584
29410WAT     H288473   1.068   1.819   9.490
29411WAT      O88474   9.676   4.418   0.873
29411WAT     H188475   9.718   4.452   0.957
29411WAT     H288476   9.614   4.487   0.835
29412WAT      O88477   2.077   2.095   2.538
29412WAT     H188478   2.167   2.053   2.546
29412WAT     H288479   2.051   2.136   2.625
29413WAT      O88480   9.269   8.039   4.426
29413WAT     H188481   9.362   8.011   4.403
29413WAT     H288482   9.260   8.049   4.525
29414WAT      O88483   7.684   3.520   9.445
29414WAT     H188484   7.646   3.508   9.536
29414WAT     H288485   7.755   3.591   9.447
29415WAT      O88486   7.031   0.189   8.317
29415WAT     H188487   6.999   0.272   8.272
29415WAT     H288488   7.072   0.128   8.250
29416WAT      O88489   8.789   2.121   7.457
29416WAT     H188490   8.698   2.124   7.415
29416WAT     H288491   8.847   2.058   7.405
29417WAT      O88492   1.188   3.294   1.293
29417WAT     H188493   1.167   3.385   1.329
29417WAT     H288494   1.107   3.236   1.299
29418WAT      O88495   4.265   2.465   0.851
29418WAT     H188496   4.184   2.420   0.888
29418WAT     H288497   4.347   2.433   0.900
29419WAT      O88498   8.064   9.722   3.084
29419WAT     H188499   8.026   9.745   3.173
29419WAT     H288500   8.014   9.644   3.045
29420WAT      O88501   0.969   1.083   2.689
29420WAT     H188502   0.896   1.037   2.638
29420WAT     H288503   0.984   1.175   2.651
29421WAT      O88504   4.334   2.142   4.893
29421WAT     H188505   4.367   2.185   4.977
29421WAT     H288506   4.250   2.188   4.863
29422WAT      O88507   1.598   6.363   5.523
29422WAT     H188508   1.505   6.363   5.560
29422WAT     H288509   1.624   6.457   5.498
29423WAT      O88510   4.019   4.198   3.749
29423WAT     H188511   4.061   4.193   3.840
29423WAT     H288512   4.012   4.294   3.721
29424WAT      O88513   8.997   5.030   3.558
29424WAT     H188514   8.978   4.961   3.628
29424WAT     H288515   8.973   4.993   3.468
29425WAT      O88516   7.739   8.358   0.967
29425WAT     H188517   7.803   8.296   1.012
29425WAT     H288518   7.781   8.447   0.955
29426WAT      O88519   6.900   9.153   3.372
29426WAT     H188520   6.880   9.090   3.297
29426WAT     H288521   6.994   9.139   3.403
29427WAT      O88522   5.050   4.038   2.267
29427WAT     H188523   4.960   4.074   2.244
29427WAT     H288524   5.119   4.109   2.251
29428WAT      O88525   7.446   4.610   9.705
29428WAT     H188526   7.546   4.603   9.706
29428WAT     H288527   7.413   4.604   9.611
29429WAT      O88528   5.568   9.008   4.208
29429WAT     H188529   5.545   9.105   4.203
29429WAT     H288530   5.662   8.995   4.178
29430WAT      O88531   2.721   4.825   5.199
29430WAT     H188532   2.792   4.810   5.131
29430WAT     H288533   2.681   4.737   5.225
29431WAT      O88534   7.488   7.732   5.564
29431WAT     H188535   7.482   7.817   5.512
29431WAT     H288536   7.402   7.681   5.552
29432WAT      O88537   4.524   7.718   8.705
29432WAT     H188538   4.456   7.786   8.734
29432WAT     H288539   4.482   7.655   8.640
29433WAT      O88540   1.128   0.986   3.011
29433WAT     H188541   1.156   0.955   2.920
29433WAT     H288542   1.102   0.907   3.066
29434WAT      O88543   3.490   6.003   2.993
29434WAT     H188544   3.416   6.063   2.962
29434WAT     H288545   3.578   6.047   2.974
29435WAT      O88546   8.268   9.541   6.587
29435WAT     H188547   8.296   9.611   6.522
29435WAT     H288548   8.233   9.584   6.670
29436WAT      O88549   1.671   0.276   8.617
29436WAT     H188550   1.705   0.363   8.651
29436WAT     H288551   1.601   0.240   8.679
29437WAT      O88552   3.158   1.760   8.945
29437WAT     H188553   3.146   1.857   8.968
29437WAT     H288554   3.085   1.730   8.885
29438WAT      O88555   2.908   3.345   4.248
29438WAT     H188556   2.892   3.441   4.273
29438WAT     H288557   2.874   3.285   4.320
29439WAT      O88558   2.884   6.733   0.506
29439WAT     H188559   2.786   6.733   0.525
29439WAT     H288560   2.901   6.774   0.417
29440WAT      O88561   0.203   9.099   6.608
29440WAT     H188562   0.130   9.083   6.675
29440WAT     H288563   0.198   9.030   6.536
29441WAT      O88564   1.807   5.244   3.858
29441WAT     H188565   1.800   5.221   3.761
29441WAT     H288566   1.829   5.341   3.869
29442WAT      O88567   0.190   1.645   1.171
29442WAT     H188568   0.120   1.626   1.240
29442WAT     H288569   0.158   1.613   1.082
29443WAT      O88570   0.739   9.570   9.445
29443WAT     H188571   0.785   9.491   9.403
29443WAT     H288572   0.657   9.592   9.392
29444WAT      O88573   7.153   9.031   9.435
29444WAT     H188574   7.219   9.010   9.363
29444WAT     H288575   7.072   8.973   9.424
29445WAT      O88576   0.501   1.735   7.901
29445WAT     H188577   0.446   1.817   7.890
29445WAT     H288578   0.495   1.702   7.995
29446WAT      O88579   5.418   3.066   5.413
29446WAT     H188580   5.478   3.027   5.343
29446WAT     H288581   5.323   3.049   5.389
29447WAT      O88582   8.408   1.739   2.785
29447WAT     H188583   8.506   1.757   2.785
29447WAT     H288584   8.364   1.796   2.715
29448WAT      O88585   3.198   7.686   2.887
29448WAT     H188586   3.201   7.710   2.790
29448WAT     H288587   3.199   7.770   2.942
29449WAT      O88588   8.278   8.732   6.468
29449WAT     H188589   8.227   8.660   6.420
29449WAT     H288590   8.276   8.714   6.567
29450WAT      O88591   0.197   5.690   3.133
29450WAT     H188592   0.237   5.684   3.041
29450WAT     H288593   0.099   5.668   3.128
29451WAT      O88594   7.700   5.913   9.122
29451WAT     H188595   7.748   6.000   9.127
29451WAT     H288596   7.634   5.907   9.196
29452WAT      O88597   3.551   0.380   2.030
29452WAT     H188598   3.623   0.358   1.964
29452WAT     H288599   3.544   0.479   2.041
29453WAT      O88600   9.466   6.222   3.726
29453WAT     H188601   9.405   6.284   3.774
29453WAT     H288602   9.545   6.274   3.691
29454WAT      O88603   2.618   4.403   0.545
29454WAT     H188604   2.639   4.443   0.634
29454WAT     H288605   2.700   4.360   0.508
29455WAT      O88606   2.472   3.851   5.454
29455WAT     H188607   2.389   3.885   5.497
29455WAT     H288608   2.516   3.926   5.404
29456WAT      O88609   8.809   5.217   2.590
29456WAT     H188610   8.840   5.136   2.640
29456WAT     H288611   8.804   5.197   2.493
29457WAT      O88612   6.510   6.376   9.337
29457WAT     H188613   6.431   6.398   9.394
29457WAT     H288614   6.527   6.451   9.273
29458WAT      O88615   2.612   1.654   7.057
29458WAT     H188616   2.711   1.637   7.057
29458WAT     H288617   2.593   1.740   7.105
29459WAT      O88618   4.202   6.317   9.459
29459WAT     H188619   4.192   6.365   9.546
29459WAT     H288620   4.299   6.311   9.435
29460WAT      O88621   1.732   1.174   2.660
29460WAT     H188622   1.764   1.226   2.581
29460WAT     H288623   1.669   1.103   2.629
29461WAT      O88624   1.295   9.759   5.575
29461WAT     H188625   1.205   9.800   5.565
29461WAT     H288626   1.316   9.705   5.494
29462WAT      O88627   9.378   0.168   1.360
29462WAT     H188628   9.420   0.194   1.447
29462WAT     H288629   9.383   0.069   1.349
29463WAT      O88630   0.595   6.367   5.871
29463WAT     H188631   0.582   6.348   5.774
29463WAT     H288632   0.507   6.388   5.913
29464WAT      O88633   8.213   7.234   5.054
29464WAT     H188634   8.190   7.279   4.967
29464WAT     H288635   8.166   7.146   5.059
29465WAT      O88636   1.773   4.789   2.612
29465WAT     H188637   1.691   4.732   2.602
29465WAT     H288638   1.855   4.733   2.603
29466WAT      O88639   1.301   2.576   1.982
29466WAT     H188640   1.312   2.633   2.064
29466WAT     H288641   1.389   2.537   1.956
29467WAT      O88642   2.484   1.329   9.833
29467WAT     H188643   2.531   1.408   9.794
29467WAT     H288644   2.551   1.259   9.858
29468WAT      O88645   6.035   2.178   2.272
29468WAT     H188646   5.965   2.177   2.344
29468WAT     H288647   6.011   2.112   2.201
29469WAT      O88648   3.189   6.648   2.432
29469WAT     H188649   3.161   6.560   2.395
29469WAT     H288650   3.260   6.688   2.375
29470WAT      O88651   2.668   0.883   4.987
29470WAT     H188652   2.750   0.933   5.016
29470WAT     H288653   2.602   0.947   4.948
29471WAT      O88654   9.271   8.641   9.384
29471WAT     H188655   9.293   8.560   9.329
29471WAT     H288656   9.177   8.669   9.365
29472WAT      O88657   1.601   5.399   7.748
29472WAT     H188658   1.585   5.495   7.771
29472WAT     H288659   1.687   5.369   7.788
29473WAT      O88660   1.848   0.140   9.603
29473WAT     H188661   1.849   0.066   9.536
29473WAT     H288662   1.768   0.198   9.588
29474WAT      O88663   1.753   9.176   9.136
29474WAT     H188664   1.852   9.168   9.135
29474WAT     H288665   1.721   9.180   9.231
29475WAT      O88666   5.154   4.631   4.876
29475WAT     H188667   5.079   4.696   4.888
29475WAT     H288668   5.118   4.544   4.844
29476WAT      O88669   7.441   7.295   4.395
29476WAT     H188670   7.344   7.273   4.383
29476WAT     H288671   7.472   7.353   4.319
29477WAT      O88672   6.423   8.664   2.284
29477WAT     H188673   6.454   8.576   2.248
29477WAT     H288674   6.387   8.719   2.209
29478WAT      O88675   5.816   6.315   6.464
29478WAT     H188676   5.746   6.253   6.430
29478WAT     H288677   5.808   6.322   6.564
29479WAT      O88678   7.270   7.798   4.054
29479WAT     H188679   7.230   7.881   4.094
29479WAT     H288680   7.369   7.808   4.049
29480WAT      O88681   8.130   5.143   4.463
29480WAT     H188682   8.164   5.145   4.557
29480WAT     H288683   8.115   5.236   4.430
29481WAT      O88684   6.398   0.546   7.106
29481WAT     H188685   6.358   0.634   7.133
29481WAT     H288686   6.424   0.495   7.188
29482WAT      O88687   7.573   1.827   4.979
29482WAT     H188688   7.606   1.834   4.885
29482WAT     H288689   7.542   1.734   4.997
29483WAT      O88690   7.145   3.505   9.282
29483WAT     H188691   7.048   3.479   9.274
29483WAT     H288692   7.191   3.489   9.195
29484WAT      O88693   0.112   8.537   9.787
29484WAT     H188694   0.192   8.580   9.746
29484WAT     H288695   0.035   8.602   9.788
29485WAT      O88696   0.034   7.970   8.698
29485WAT     H188697  -0.041   7.908   8.674
29485WAT     H288698   0.073   8.009   8.615
29486WAT      O88699   5.297   6.247   5.018
29486WAT     H188700   5.234   6.324   5.028
29486WAT     H288701   5.307   6.201   5.106
29487WAT      O88702   0.832   3.188   5.129
29487WAT     H188703   0.810   3.092   5.144
29487WAT     H288704   0.931   3.199   5.121
29488WAT      O88705   2.588   8.414   5.210
29488WAT     H188706   2.549   8.420   5.119
29488WAT     H288707   2.630   8.502   5.234
29489WAT      O88708   4.215   2.462   9.463
29489WAT     H188709   4.121   2.494   9.453
29489WAT     H288710   4.249   2.487   9.554
29490WAT      O88711   9.163   4.419   4.412
29490WAT     H188712   9.101   4.412   4.333
29490WAT     H288713   9.153   4.508   4.455
29491WAT      O88714   9.842   2.868   5.670
29491WAT     H188715   9.806   2.956   5.638
29491WAT     H288716   9.814   2.853   5.764
29492WAT      O88717   9.836   1.242   0.435
29492WAT     H188718   9.887   1.157   0.442
29492WAT     H288719   9.891   1.317   0.471
29493WAT      O88720   6.941   0.463   9.764
29493WAT     H188721   6.888   0.427   9.687
29493WAT     H288722   6.911   0.420   9.849
29494WAT      O88723   4.221   7.391   3.616
29494WAT     H188724   4.306   7.363   3.661
29494WAT     H288725   4.163   7.439   3.682
29495WAT      O88726   5.973   1.235   0.716
29495WAT     H188727   6.007   1.273   0.802
29495WAT     H288728   5.931   1.146   0.733
29496WAT      O88729   4.067   2.221   0.892
29496WAT     H188730   4.017   2.157   0.951
29496WAT     H288731   4.013   2.240   0.810
29497WAT      O88732   9.805   9.326   9.279
29497WAT     H188733   9.868   9.378   9.337
29497WAT     H288734   9.712   9.337   9.314
29498WAT      O88735   6.424   9.271   9.455
29498WAT     H188736   6.387   9.225   9.374
29498WAT     H288737   6.493   9.212   9.498
29499WAT      O88738   8.726   5.094   7.228
29499WAT     H188739   8.652   5.034   7.197
29499WAT     H288740   8.745   5.077   7.325
29500WAT      O88741   9.444   9.211   7.048
29500WAT     H188742   9.380   9.152   6.998
29500WAT     H288743   9.431   9.199   7.146
29501WAT      O88744   1.587   1.231   0.438
29501WAT     H188745   1.638   1.306   0.395
29501WAT     H288746   1.548   1.263   0.524
29502WAT      O88747   3.602   4.669   2.584
29502WAT     H188748   3.539   4.594   2.603
29502WAT     H288749   3.557   4.757   2.601
29503WAT      O88750   9.712   5.775   0.543
29503WAT     H188751   9.734   5.816   0.631
29503WAT     H288752   9.685   5.680   0.556
29504WAT      O88753   9.557   8.749   7.490
29504WAT     H188754   9.591   8.796   7.408
29504WAT     H288755   9.543   8.652   7.469
29505WAT      O88756   0.187   6.285   8.076
29505WAT     H188757   0.228   6.370   8.111
29505WAT     H288758   0.202   6.279   7.977
29506WAT      O88759   1.518   6.205   7.591
29506WAT     H188760   1.503   6.178   7.496
29506WAT     H288761   1.566   6.293   7.594
29507WAT      O88762   4.402   8.213   1.280
29507WAT     H188763   4.306   8.210   1.255
29507WAT     H288764   4.435   8.121   1.301
29508WAT      O88765   7.399   7.952   8.470
29508WAT     H188766   7.406   7.994   8.380
29508WAT     H288767   7.336   8.005   8.527
29509WAT      O88768   6.184   2.535   2.574
29509WAT     H188769   6.219   2.604   2.637
29509WAT     H288770   6.191   2.445   2.617
29510WAT      O88771   4.063   5.443   5.454
29510WAT     H188772   3.998   5.516   5.476
29510WAT     H288773   4.155   5.481   5.448
29511WAT      O88774   4.333   7.932   1.284
29511WAT     H188775   4.407   7.891   1.230
29511WAT     H288776   4.249   7.880   1.269
29512WAT      O88777   7.412   1.477   7.985
29512WAT     H188778   7.316   1.479   8.011
29512WAT     H288779   7.421   1.437   7.894
29513WAT      O88780   7.199   1.084   4.871
29513WAT     H188781   7.251   1.110   4.790
29513WAT     H288782   7.260   1.080   4.950
29514WAT      O88783   0.513   8.768   2.411
29514WAT     H188784   0.546   8.680   2.445
29514WAT     H288785   0.515   8.769   2.312
29515WAT      O88786   1.347   2.681   8.706
29515WAT     H188787   1.276   2.674   8.776
29515WAT     H288788   1.316   2.742   8.633
29516WAT      O88789   4.560   5.268   3.907
29516WAT     H188790   4.641   5.284   3.962
29516WAT     H288791   4.478   5.276   3.964
29517WAT      O88792   6.351   2.253   0.734
29517WAT     H188793   6.260   2.247   0.776
29517WAT     H288794   6.412   2.305   0.795
29518WAT      O88795   8.569   3.966   8.373
29518WAT     H188796   8.557   3.902   8.449
29518WAT     H288797   8.667   3.984   8.361
29519WAT      O88798   8.755   0.799   0.007
29519WAT     H188799   8.750   0.871   0.076
29519WAT     H288800   8.845   0.755   0.012
29520WAT      O88801   7.550   0.603   1.031
29520WAT     H188802   7.475   0.669   1.023
29520WAT     H288803   7.528   0.536   1.102
29521WAT      O88804   3.764   2.785   8.891
29521WAT     H188805   3.738   2.762   8.798
29521WAT     H288806   3.789   2.702   8.941
29522WAT      O88807   4.819   5.994   1.824
29522WAT     H188808   4.896   5.972   1.884
29522WAT     H288809   4.740   5.938   1.849
29523WAT      O88810   3.921   9.677   0.013
29523WAT     H188811   3.887   9.588  -0.019
29523WAT     H288812   3.972   9.721  -0.061
29524WAT      O88813   3.107   5.146   2.963
29524WAT     H188814   3.028   5.202   2.939
29524WAT     H288815   3.189   5.186   2.922
29525WAT      O88816   0.205   4.677   0.362
29525WAT     H188817   0.111   4.704   0.344
29525WAT     H288818   0.265   4.714   0.291
29526WAT      O88819   4.150   1.799   3.112
29526WAT     H188820   4.230   1.850   3.141
29526WAT     H288821   4.070   1.826   3.166
29527WAT      O88822   4.481   1.657   5.904
29527WAT     H188823   4.488   1.754   5.881
29527WAT     H288824   4.445   1.647   5.997
29528WAT      O88825   8.496   2.900   7.215
29528WAT     H188826   8.443   2.835   7.161
29528WAT     H288827   8.570   2.852   7.261
29529WAT      O88828   5.514   4.777   5.927
29529WAT     H188829   5.468   4.733   6.004
29529WAT     H288830   5.449   4.838   5.880
29530WAT      O88831   1.395   8.288   6.263
29530WAT     H188832   1.319   8.351   6.276
29530WAT     H288833   1.417   8.243   6.349
29531WAT      O88834   2.562   9.015   3.850
29531WAT     H188835   2.550   9.092   3.912
29531WAT     H288836   2.532   9.041   3.758
29532WAT      O88837   4.605   1.337   6.378
29532WAT     H188838   4.616   1.437   6.373
29532WAT     H288839   4.522   1.310   6.330
29533WAT      O88840   5.406   9.568   7.131
29533WAT     H188841   5.477   9.634   7.156
29533WAT     H288842   5.427   9.529   7.041
29534WAT      O88843   2.045   8.032   7.581
29534WAT     H188844   2.089   8.069   7.499
29534WAT     H288845   1.980   8.099   7.617
29535WAT      O88846   0.903   7.206   7.854
29535WAT     H188847   0.857   7.253   7.779
29535WAT     H288848   0.923   7.271   7.927
29536WAT      O88849   1.438   5.172   8.939
29536WAT     H188850   1.467   5.110   9.011
29536WAT     H288851   1.519   5.208   8.892
29537WAT      O88852   6.897   1.616   1.441
29537WAT     H188853   6.954   1.627   1.523
29537WAT     H288854   6.892   1.519   1.417
29538WAT      O88855   4.880   4.651   3.868
29538WAT     H188856   4.918   4.743   3.870
29538WAT     H288857   4.782   4.656   3.848
29539WAT      O88858   7.309   9.717   6.346
29539WAT     H188859   7.242   9.719   6.420
29539WAT     H288860   7.397   9.685   6.380
29540WAT      O88861   8.651   0.150   8.940
29540WAT     H188862   8.576   0.215   8.951
29540WAT     H288863   8.624   0.080   8.873
29541WAT      O88864   4.425   0.640   7.106
29541WAT     H188865   4.385   0.581   7.036
29541WAT     H288866   4.511   0.601   7.137
29542WAT      O88867   9.696   1.198   4.040
29542WAT     H188868   9.634   1.271   4.070
29542WAT     H288869   9.694   1.123   4.106
29543WAT      O88870   8.718   5.456   6.222
29543WAT     H188871   8.626   5.424   6.243
29543WAT     H288872   8.715   5.552   6.194
29544WAT      O88873   0.437   2.789   4.279
29544WAT     H188874   0.417   2.885   4.257
29544WAT     H288875   0.393   2.764   4.365
29545WAT      O88876   5.771   8.675   1.787
29545WAT     H188877   5.712   8.595   1.773
29545WAT     H288878   5.822   8.664   1.873
29546WAT      O88879   0.713   7.939   9.865
29546WAT     H188880   0.721   7.893   9.777
29546WAT     H288881   0.723   7.873   9.939
29547WAT      O88882   8.179   1.018   7.953
29547WAT     H188883   8.142   1.082   8.020
29547WAT     H288884   8.258   0.971   7.991
29548WAT      O88885   0.110   0.941   3.391
29548WAT     H188886   0.132   0.916   3.297
29548WAT     H288887   0.121   0.860   3.450
29549WAT      O88888   8.662   1.061   5.602
29549WAT     H188889   8.612   0.982   5.636
29549WAT     H288890   8.664   1.058   5.502
29550WAT      O88891   5.993   4.854   2.408
29550WAT     H188892   5.923   4.922   2.431
29550WAT     H288893   6.084   4.895   2.415
29551WAT      O88894   4.606   6.082   0.388
29551WAT     H188895   4.610   6.121   0.480
29551WAT     H288896   4.680   6.119   0.332
29552WAT      O88897   8.198   5.486   3.522
29552WAT     H188898   8.120   5.485   3.584
29552WAT     H288899   8.202   5.399   3.472
29553WAT      O88900   3.052   4.203   5.177
29553WAT     H188901   3.142   4.159   5.180
29553WAT     H288902   2.994   4.164   5.249
29554WAT      O88903   8.775   5.589   5.919
29554WAT     H188904   8.737   5.608   6.009
29554WAT     H288905   8.864   5.634   5.910
29555WAT      O88906   6.880   7.366   5.754
29555WAT     H188907   6.848   7.428   5.826
29555WAT     H288908   6.825   7.283   5.754
29556WAT      O88909   4.066   8.349   8.257
29556WAT     H188910   3.987   8.387   8.305
29556WAT     H288911   4.059   8.249   8.255
29557WAT      O88912   0.339   5.542   7.710
29557WAT     H188913   0.416   5.500   7.663
29557WAT     H288914   0.368   5.627   7.754
29558WAT      O88915   4.704   0.122   4.094
29558WAT     H188916   4.642   0.136   4.171
29558WAT     H288917   4.793   0.163   4.115
29559WAT      O88918   6.305   4.695   1.892
29559WAT     H188919   6.404   4.691   1.882
29559WAT     H288920   6.264   4.609   1.863
29560WAT      O88921   7.717   2.292   3.949
29560WAT     H188922   7.728   2.316   4.045
29560WAT     H288923   7.766   2.207   3.929
29561WAT      O88924   2.831   9.660   1.099
29561WAT     H188925   2.821   9.734   1.166
29561WAT     H288926   2.817   9.697   1.007
29562WAT      O88927   6.935   8.125   7.672
29562WAT     H188928   7.020   8.137   7.723
29562WAT     H288929   6.954   8.075   7.588
29563WAT      O88930   5.078   5.649   2.026
29563WAT     H188931   5.058   5.551   2.022
29563WAT     H288932   5.174   5.662   2.050
29564WAT      O88933   6.858   3.563   0.759
29564WAT     H188934   6.779   3.525   0.808
29564WAT     H288935   6.941   3.549   0.812
29565WAT      O88936   2.999   6.394   4.726
29565WAT     H188937   3.000   6.481   4.777
29565WAT     H288938   2.922   6.394   4.663
29566WAT      O88939   9.315   9.735   5.491
29566WAT     H188940   9.394   9.677   5.470
29566WAT     H288941   9.285   9.717   5.585
29567WAT      O88942   3.945   7.015   1.567
29567WAT     H188943   3.864   7.054   1.522
29567WAT     H288944   3.985   7.084   1.628
29568WAT      O88945   3.857   7.501   2.266
29568WAT     H188946   3.858   7.523   2.363
29568WAT     H288947   3.894   7.579   2.215
29569WAT      O88948   2.810   4.232   7.951
29569WAT     H188949   2.896   4.246   8.000
29569WAT     H288950   2.812   4.144   7.904
29570WAT      O88951   2.350   1.133   0.323
29570WAT     H188952   2.261   1.145   0.366
29570WAT     H288953   2.339   1.095   0.231
29571WAT      O88954   3.144   8.172   2.853
29571WAT     H188955   3.187   8.171   2.763
29571WAT     H288956   3.101   8.083   2.870
29572WAT      O88957   1.359   5.280   2.737
29572WAT     H188958   1.353   5.352   2.806
29572WAT     H288959   1.290   5.296   2.666
29573WAT      O88960   2.431   2.431   5.541
29573WAT     H188961   2.525   2.420   5.509
29573WAT     H288962   2.371   2.370   5.488
29574WAT      O88963   9.461   0.507   8.040
29574WAT     H188964   9.417   0.541   7.956
29574WAT     H288965   9.514   0.425   8.018
29575WAT      O88966   6.859   0.815   4.346
29575WAT     H188967   6.833   0.905   4.310
29575WAT     H288968   6.814   0.744   4.291
29576WAT      O88969   2.180   3.418   3.424
29576WAT     H188970   2.272   3.455   3.428
29576WAT     H288971   2.120   3.482   3.375
29577WAT      O88972   9.796   3.403   1.538
29577WAT     H188973   9.804   3.349   1.454
29577WAT     H288974   9.846   3.358   1.612
29578WAT      O88975   6.176   9.396   6.807
29578WAT     H188976   6.235   9.443   6.873
29578WAT     H288977   6.087   9.378   6.850
29579WAT      O88978   1.180   0.313   2.517
29579WAT     H188979   1.196   0.287   2.422
29579WAT     H288980   1.084   0.297   2.540
29580WAT      O88981   3.446   3.630   9.347
29580WAT     H188982   3.469   3.724   9.322
29580WAT     H288983   3.364   3.630   9.405
29581WAT      O88984   2.432   4.030   7.328
29581WAT     H188985   2.371   4.086   7.272
29581WAT     H288986   2.524   4.069   7.325
29582WAT      O88987   6.035   6.098   7.651
29582WAT     H188988   5.948   6.050   7.664
29582WAT     H288989   6.067   6.133   7.739
29583WAT      O88990   2.276   1.565   0.195
29583WAT     H188991   2.283   1.513   0.281
29583WAT     H288992   2.366   1.574   0.155
29584WAT      O88993   5.779   4.050   8.128
29584WAT     H188994   5.743   4.044   8.034
29584WAT     H288995   5.827   3.966   8.151
29585WAT      O88996   3.359   5.883   4.000
29585WAT     H188997   3.266   5.917   3.993
29585WAT     H288998   3.370   5.833   4.086
29586WAT      O88999   6.174   9.590   4.227
29586WAT     H189000   6.256   9.612   4.280
29586WAT     H289001   6.150   9.494   4.242
29587WAT      O89002   0.098   8.371   9.145
29587WAT     H189003   0.053   8.288   9.111
29587WAT     H289004   0.037   8.420   9.206
29588WAT      O89005   3.014   5.062   9.189
29588WAT     H189006   2.981   4.998   9.258
29588WAT     H289007   3.068   5.013   9.120
29589WAT      O89008   3.992   9.338   8.970
29589WAT     H189009   4.084   9.307   8.994
29589WAT     H289010   3.966   9.414   9.030
29590WAT      O89011   4.950   4.846   0.063
29590WAT     H189012   4.974   4.911   0.135
29590WAT     H289013   4.861   4.804   0.084
29591WAT      O89014   7.551   3.892   7.427
29591WAT     H189015   7.613   3.818   7.452
29591WAT     H289016   7.511   3.931   7.511
29592WAT      O89017   8.656   6.240   8.243
29592WAT     H189018   8.655   6.234   8.343
29592WAT     H289019   8.728   6.303   8.214
29593WAT      O89020   1.923   4.236   5.638
29593WAT     H189021   1.962   4.270   5.552
29593WAT     H289022   1.953   4.142   5.653
29594WAT      O89023   3.942  -0.004   2.118
29594WAT     H189024   4.035   0.004   2.153
29594WAT     H289025   3.920   0.077   2.063
29595WAT      O89026   7.263   9.378   7.439
29595WAT     H189027   7.185   9.441   7.438
29595WAT     H289028   7.279   9.343   7.347
29596WAT      O89029   0.100   9.158   1.690
29596WAT     H189030   0.139   9.111   1.770
29596WAT     H289031   0.171   9.213   1.647
29597WAT      O89032   2.920   8.037   7.223
29597WAT     H189033   2.984   8.112   7.206
29597WAT     H289034   2.969   7.963   7.270
29598WAT      O89035   5.961   9.732   2.954
29598WAT     H189036   5.948   9.652   2.895
29598WAT     H289037   5.881   9.745   3.012
29599WAT      O89038   5.054   5.352   0.475
29599WAT     H189039   5.020   5.323   0.386
29599WAT     H289040   4.981   5.348   0.543
29600WAT      O89041   6.632   3.585   1.194
29600WAT     H189042   6.715   3.541   1.163
29600WAT     H289043   6.557   3.565   1.131
29601WAT      O89044   1.093   7.831   0.767
29601WAT     H189045   1.044   7.785   0.841
29601WAT     H289046   1.172   7.879   0.804
29602WAT      O89047   8.194   4.685   3.902
29602WAT     H189048   8.198   4.684   3.802
29602WAT     H289049   8.243   4.605   3.938
29603WAT      O89050   6.225   3.139   9.079
29603WAT     H189051   6.197   3.108   8.989
29603WAT     H289052   6.323   3.159   9.078
29604WAT      O89053   6.404   2.401   5.978
29604WAT     H189054   6.474   2.441   6.037
29604WAT     H289055   6.390   2.305   6.002
29605WAT      O89056   1.854   2.627   5.982
29605WAT     H189057   1.928   2.682   5.943
29605WAT     H289058   1.888   2.536   6.004
29606WAT      O89059   4.931   7.099   6.718
29606WAT     H189060   4.885   7.019   6.679
29606WAT     H289061   4.879   7.132   6.797
29607WAT      O89062   9.102   4.888   0.249
29607WAT     H189063   9.201   4.889   0.231
29607WAT     H289064   9.058   4.962   0.198
29608WAT      O89065   1.450   9.306   7.139
29608WAT     H189066   1.406   9.376   7.083
29608WAT     H289067   1.528   9.268   7.090
29609WAT      O89068   8.726   9.340   6.967
29609WAT     H189069   8.806   9.381   7.010
29609WAT     H289070   8.643   9.384   7.002
29610WAT      O89071   4.210   8.383   1.672
29610WAT     H189072   4.171   8.470   1.643
29610WAT     H289073   4.149   8.309   1.644
29611WAT      O89074   2.502   3.706   8.261
29611WAT     H189075   2.543   3.628   8.214
29611WAT     H289076   2.468   3.771   8.193
29612WAT      O89077   6.878   5.760   7.304
29612WAT     H189078   6.881   5.753   7.205
29612WAT     H289079   6.783   5.759   7.335
29613WAT      O89080   4.625   9.296   5.955
29613WAT     H189081   4.701   9.234   5.937
29613WAT     H289082   4.554   9.248   6.007
29614WAT      O89083   9.129   0.693   9.645
29614WAT     H189084   9.061   0.737   9.586
29614WAT     H289085   9.136   0.596   9.622
29615WAT      O89086   2.341   2.040   2.638
29615WAT     H189087   2.367   2.121   2.585
29615WAT     H289088   2.387   2.042   2.727
29616WAT      O89089   0.629   2.784   7.430
29616WAT     H189090   0.721   2.762   7.461
29616WAT     H289091   0.610   2.880   7.446
29617WAT      O89092   5.411   9.266   6.277
29617WAT     H189093   5.424   9.213   6.193
29617WAT     H289094   5.396   9.362   6.254
29618WAT      O89095   2.906   0.169   9.384
29618WAT     H189096   2.937   0.264   9.384
29618WAT     H289097   2.853   0.151   9.300
29619WAT      O89098   7.775   0.783   0.884
29619WAT     H189099   7.858   0.810   0.835
29619WAT     H289100   7.754   0.850   0.955
29620WAT      O89101   9.481   9.478   6.960
29620WAT     H189102   9.411   9.518   6.900
29620WAT     H289103   9.463   9.381   6.971
29621WAT      O89104   3.798   9.703   8.754
29621WAT     H189105   3.793   9.738   8.847
29621WAT     H289106   3.773   9.775   8.690
29622WAT      O89107   0.072   1.018   0.807
29622WAT     H189108   0.131   1.089   0.769
29622WAT     H289109   0.022   1.054   0.886
29623WAT      O89110   7.266   8.146   7.712
29623WAT     H189111   7.238   8.050   7.711
29623WAT     H289112   7.296   8.173   7.620
29624WAT      O89113   2.904   7.396   7.045
29624WAT     H189114   2.969   7.342   6.991
29624WAT     H289115   2.861   7.337   7.114
29625WAT      O89116   7.854   7.877   7.144
29625WAT     H189117   7.848   7.781   7.170
29625WAT     H289118   7.943   7.913   7.173
29626WAT      O89119   4.520   2.816   6.582
29626WAT     H189120   4.434   2.809   6.531
29626WAT     H289121   4.576   2.735   6.564
29627WAT      O89122   6.623   8.927   8.563
29627WAT     H189123   6.669   8.922   8.475
29627WAT     H289124   6.616   9.023   8.591
29628WAT      O89125   7.665   1.466   8.101
29628WAT     H189126   7.665   1.367   8.111
29628WAT     H289127   7.579   1.496   8.061
29629WAT      O89128   6.060   1.573   4.913
29629WAT     H189129   6.051   1.580   5.013
29629WAT     H289130   6.149   1.610   4.886
29630WAT      O89131   6.315   6.199   6.546
29630WAT     H189132   6.236   6.232   6.494
29630WAT     H289133   6.338   6.264   6.618
29631WAT      O89134   2.899   9.324   2.269
29631WAT     H189135   2.953   9.242   2.283
29631WAT     H289136   2.861   9.325   2.176
29632WAT      O89137   0.099   8.312   1.713
29632WAT     H189138   0.128   8.247   1.643
29632WAT     H289139   0.157   8.303   1.793
29633WAT      O89140   2.978   1.941   8.141
29633WAT     H189141   2.921   1.942   8.058
29633WAT     H289142   3.074   1.944   8.115
29634WAT      O89143   4.096   7.827   6.552
29634WAT     H189144   4.120   7.757   6.483
29634WAT     H289145   4.041   7.898   6.509
29635WAT      O89146   8.635   7.416   5.628
29635WAT     H189147   8.658   7.512   5.610
29635WAT     H289148   8.554   7.391   5.576
29636WAT      O89149   2.831   1.646   9.246
29636WAT     H189150   2.794   1.592   9.322
29636WAT     H289151   2.928   1.624   9.233
29637WAT      O89152   0.087   4.218   1.540
29637WAT     H189153   0.144   4.272   1.479
29637WAT     H289154   0.136   4.198   1.624
29638WAT      O89155   0.789   7.271   8.307
29638WAT     H189156   0.725   7.195   8.315
29638WAT     H289157   0.882   7.235   8.298
29639WAT      O89158   7.453   1.313   4.742
29639WAT     H189159   7.364   1.299   4.699
29639WAT     H289160   7.524   1.314   4.672
29640WAT      O89161   1.869   2.442   7.791
29640WAT     H189162   1.945   2.506   7.804
29640WAT     H289163   1.793   2.470   7.850
29641WAT      O89164   5.550   8.284   5.360
29641WAT     H189165   5.516   8.191   5.369
29641WAT     H289166   5.554   8.328   5.450
29642WAT      O89167   3.346   1.191   1.257
29642WAT     H189168   3.283   1.143   1.318
29642WAT     H289169   3.355   1.286   1.285
29643WAT      O89170   8.812   0.592   1.353
29643WAT     H189171   8.863   0.507   1.371
29643WAT     H289172   8.724   0.588   1.399
29644WAT      O89173   9.036   6.984   6.520
29644WAT     H189174   9.034   7.066   6.461
29644WAT     H289175   9.033   7.012   6.616
29645WAT      O89176   0.354   4.863   6.612
29645WAT     H189177   0.259   4.886   6.634
29645WAT     H289178   0.358   4.773   6.570
29646WAT      O89179   5.903   7.989   2.528
29646WAT     H189180   5.812   8.030   2.539
29646WAT     H289181   5.914   7.913   2.593
29647WAT      O89182   4.450   5.957   2.314
29647WAT     H189183   4.394   5.941   2.395
29647WAT     H289184   4.449   5.876   2.256
29648WAT      O89185   0.667   2.733   5.969
29648WAT     H189186   0.748   2.754   6.023
29648WAT     H289187   0.692   2.725   5.872
29649WAT      O89188   8.201   4.987   6.204
29649WAT     H189189   8.186   4.906   6.147
29649WAT     H289190   8.270   5.046   6.162
29650WAT      O89191   1.434   3.323   6.014
29650WAT     H189192   1.354   3.379   6.038
29650WAT     H289193   1.517   3.373   6.038
29651WAT      O89194   6.525   2.551   7.417
29651WAT     H189195   6.531   2.651   7.412
29651WAT     H289196   6.545   2.521   7.510
29652WAT      O89197   9.436   9.586   7.669
29652WAT     H189198   9.467   9.521   7.600
29652WAT     H289199   9.486   9.672   7.659
29653WAT      O89200   4.769   2.855   5.326
29653WAT     H189201   4.864   2.845   5.357
29653WAT     H289202   4.715   2.778   5.359
29654WAT      O89203   8.431   3.389   0.618
29654WAT     H189204   8.332   3.377   0.606
29654WAT     H289205   8.474   3.300   0.634
29655WAT      O89206   0.901   8.850   9.195
29655WAT     H189207   0.989   8.862   9.241
29655WAT     H289208   0.833   8.817   9.261
29656WAT      O89209   1.140   5.464   3.830
29656WAT     H189210   1.218   5.420   3.875
29656WAT     H289211   1.106   5.538   3.888
29657WAT      O89212   9.751   6.512   6.260
29657WAT     H189213   9.784   6.425   6.223
29657WAT     H289214   9.724   6.499   6.356
29658WAT      O89215   8.739   9.110   4.807
29658WAT     H189216   8.708   9.205   4.812
29658WAT     H289217   8.680   9.052   4.862
29659WAT      O89218   8.637   2.818   8.536
29659WAT     H189219   8.670   2.906   8.570
29659WAT     H289220   8.540   2.824   8.513
29660WAT      O89221   5.230   3.171   2.240
29660WAT     H189222   5.197   3.087   2.283
29660WAT     H289223   5.199   3.250   2.294
29661WAT      O89224   3.952   6.261   4.348
29661WAT     H189225   4.003   6.332   4.396
29661WAT     H289226   3.988   6.251   4.255
29662WAT      O89227   3.886   9.694   1.767
29662WAT     H189228   3.810   9.745   1.807
29662WAT     H289229   3.867   9.596   1.773
29663WAT      O89230   8.878   0.862   9.424
29663WAT     H189231   8.918   0.926   9.489
29663WAT     H289232   8.951   0.811   9.378
29664WAT      O89233   7.815   5.266   9.558
29664WAT     H189234   7.850   5.359   9.559
29664WAT     H289235   7.715   5.268   9.568
29665WAT      O89236   5.140   8.084   0.801
29665WAT     H189237   5.131   8.023   0.879
29665WAT     H289238   5.066   8.151   0.801
29666WAT      O89239   3.658   8.943   8.480
29666WAT     H189240   3.598   8.976   8.407
29666WAT     H289241   3.724   9.014   8.504
29667WAT      O89242   2.699   8.534   6.661
29667WAT     H189243   2.674   8.622   6.622
29667WAT     H289244   2.798   8.520   6.650
29668WAT      O89245   5.286   7.271   2.790
29668WAT     H189246   5.345   7.228   2.722
29668WAT     H289247   5.218   7.329   2.744
29669WAT      O89248   0.132   0.489   3.704
29669WAT     H189249   0.217   0.512   3.657
29669WAT     H289250   0.125   0.389   3.713
29670WAT      O89251   7.047   6.291   6.091
29670WAT     H189252   6.992   6.361   6.045
29670WAT     H289253   6.989   6.239   6.154
29671WAT      O89254   4.022   0.742   5.083
29671WAT     H189255   4.117   0.722   5.105
29671WAT     H289256   4.002   0.711   4.990
29672WAT      O89257   6.222   2.579   3.324
29672WAT     H189258   6.238   2.481   3.309
29672WAT     H289259   6.305   2.621   3.361
29673WAT      O89260   5.005   1.615   2.687
29673WAT     H189261   5.016   1.617   2.786
29673WAT     H289262   5.069   1.548   2.648
29674WAT      O89263   5.432   6.784   1.175
29674WAT     H189264   5.394   6.856   1.233
29674WAT     H289265   5.529   6.773   1.196
29675WAT      O89266   4.237   1.075   3.147
29675WAT     H189267   4.230   1.004   3.076
29675WAT     H289268   4.204   1.039   3.234
29676WAT      O89269   7.765   1.682   2.396
29676WAT     H189270   7.760   1.688   2.296
29676WAT     H289271   7.765   1.774   2.435
29677WAT      O89272   6.168   3.380   4.850
29677WAT     H189273   6.080   3.419   4.822
29677WAT     H289274   6.222   3.360   4.769
29678WAT      O89275   5.129   3.353   3.925
29678WAT     H189276   5.059   3.352   3.997
29678WAT     H289277   5.193   3.278   3.939
29679WAT      O89278   1.442   9.798   1.578
29679WAT     H189279   1.418   9.895   1.574
29679WAT     H289280   1.497   9.773   1.498
29680WAT      O89281   0.491   8.113   1.741
29680WAT     H189282   0.498   8.211   1.763
29680WAT     H289283   0.534   8.097   1.652
29681WAT      O89284   4.423   2.941   8.904
29681WAT     H189285   4.339   2.918   8.954
29681WAT     H289286   4.401   3.007   8.831
29682WAT      O89287   3.078   7.388   2.809
29682WAT     H189288   3.065   7.294   2.840
29682WAT     H289289   3.089   7.448   2.888
29683WAT      O89290   8.583   1.520   9.844
29683WAT     H189291   8.504   1.491   9.898
29683WAT     H289292   8.559   1.599   9.789
29684WAT      O89293   7.495   5.622   0.998
29684WAT     H189294   7.583   5.656   1.031
29684WAT     H289295   7.507   5.531   0.959
29685WAT      O89296   0.089   1.546   8.347
29685WAT     H189297   0.080   1.546   8.446
29685WAT     H289298   0.111   1.638   8.316
29686WAT      O89299   1.208   1.871   5.949
29686WAT     H189300   1.136   1.915   6.002
29686WAT     H289301   1.246   1.936   5.883
29687WAT      O89302   2.016   4.701   8.680
29687WAT     H189303   2.014   4.693   8.780
29687WAT     H289304   2.047   4.615   8.640
29688WAT      O89305   8.675   9.524   7.750
29688WAT     H189306   8.712   9.484   7.834
29688WAT     H289307   8.738   9.509   7.675
29689WAT      O89308   6.464   4.750   8.528
29689WAT     H189309   6.378   4.766   8.479
29689WAT     H289310   6.457   4.786   8.621
29690WAT      O89311   1.013   3.569   4.707
29690WAT     H189312   0.953   3.629   4.759
29690WAT     H289313   1.103   3.567   4.750
29691WAT      O89314   3.839   4.993   1.908
29691WAT     H189315   3.892   5.078   1.901
29691WAT     H289316   3.851   4.940   1.824
29692WAT      O89317   0.885   5.919   4.563
29692WAT     H189318   0.833   5.857   4.504
29692WAT     H289319   0.830   5.940   4.644
29693WAT      O89320   7.140   4.658   5.069
29693WAT     H189321   7.083   4.634   4.990
29693WAT     H289322   7.152   4.757   5.073
29694WAT      O89323   1.576   9.411   5.912
29694WAT     H189324   1.670   9.407   5.944
29694WAT     H289325   1.526   9.482   5.962
29695WAT      O89326   0.534   3.705   1.162
29695WAT     H189327   0.485   3.631   1.117
29695WAT     H289328   0.469   3.776   1.189
29696WAT      O89329   6.058   3.383   3.272
29696WAT     H189330   6.111   3.427   3.344
29696WAT     H289331   5.963   3.414   3.277
29697WAT      O89332   4.817   9.620   8.457
29697WAT     H189333   4.754   9.677   8.405
29697WAT     H289334   4.886   9.581   8.395
29698WAT      O89335   1.083   7.277   9.164
29698WAT     H189336   1.118   7.213   9.096
29698WAT     H289337   1.076   7.368   9.124
29699WAT      O89338   2.100   0.022   9.724
29699WAT     H189339   2.098   0.063   9.633
29699WAT     H289340   2.133   0.090   9.790
29700WAT      O89341   1.810   1.956   6.558
29700WAT     H189342   1.846   1.969   6.466
29700WAT     H289343   1.781   2.044   6.595
29701WAT      O89344   6.522   9.197   5.556
29701WAT     H189345   6.467   9.206   5.639
29701WAT     H289346   6.617   9.220   5.575
29702WAT      O89347   1.497   1.301   2.948
29702WAT     H189348   1.420   1.278   3.007
29702WAT     H289349   1.508   1.230   2.878
29703WAT      O89350   6.106   4.218   1.851
29703WAT     H189351   6.164   4.225   1.933
29703WAT     H289352   6.010   4.232   1.877
29704WAT      O89353   9.502   7.360   5.114
29704WAT     H189354   9.510   7.329   5.209
29704WAT     H289355   9.520   7.284   5.052
29705WAT      O89356   2.933   5.833   0.736
29705WAT     H189357   2.911   5.929   0.718
29705WAT     H289358   2.928   5.815   0.834
29706WAT      O89359   9.874   6.787   4.811
29706WAT     H189360   9.911   6.865   4.861
29706WAT     H289361   9.900   6.702   4.857
29707WAT      O89362   5.864   1.008   6.393
29707WAT     H189363   5.860   0.980   6.488
29707WAT     H289364   5.780   0.982   6.346
29708WAT      O89365   3.226   3.133   3.230
29708WAT     H189366   3.290   3.060   3.208
29708WAT     H289367   3.254   3.179   3.314
29709WAT      O89368   0.662   8.091   5.936
29709WAT     H189369   0.639   8.100   5.839
29709WAT     H289370   0.689   7.997   5.956
29710WAT      O89371   3.661   3.408   0.011
29710WAT     H189372   3.665   3.419  -0.088
29710WAT     H289373   3.738   3.351   0.041
29711WAT      O89374   4.035   9.635   3.717
29711WAT     H189375   3.960   9.570   3.717
29711WAT     H289376   3.998   9.728   3.716
29712WAT      O89377   5.292   8.911   2.623
29712WAT     H189378   5.260   8.883   2.532
29712WAT     H289379   5.302   9.010   2.625
29713WAT      O89380   0.516   7.070   7.462
29713WAT     H189381   0.553   7.002   7.526
29713WAT     H289382   0.528   7.038   7.368
29714WAT      O89383   1.604   8.135   5.264
29714WAT     H189384   1.584   8.126   5.166
29714WAT     H289385   1.588   8.048   5.310
29715WAT      O89386   9.048   6.547   7.505
29715WAT     H189387   8.973   6.481   7.497
29715WAT     H289388   9.048   6.607   7.424
29716WAT      O89389   5.137   3.687   5.573
29716WAT     H189390   5.083   3.614   5.531
29716WAT     H289391   5.208   3.646   5.630
29717WAT      O89392   5.810   5.251   7.925
29717WAT     H189393   5.904   5.216   7.930
29717WAT     H289394   5.799   5.325   7.991
29718WAT      O89395   7.535   6.331   5.390
29718WAT     H189396   7.610   6.267   5.376
29718WAT     H289397   7.475   6.329   5.310
29719WAT      O89398   3.168   2.984   1.179
29719WAT     H189399   3.152   3.067   1.124
29719WAT     H289400   3.113   2.909   1.142
29720WAT      O89401   3.763   1.520   4.085
29720WAT     H189402   3.710   1.482   4.009
29720WAT     H289403   3.732   1.479   4.171
29721WAT      O89404   4.425   7.146   3.314
29721WAT     H189405   4.360   7.086   3.361
29721WAT     H289406   4.414   7.135   3.215
29722WAT      O89407   9.555   9.815   4.641
29722WAT     H189408   9.575   9.763   4.724
29722WAT     H289409   9.632   9.873   4.617
29723WAT      O89410   1.608   8.424   5.779
29723WAT     H189411   1.560   8.405   5.864
29723WAT     H289412   1.542   8.456   5.710
29724WAT      O89413   7.942   0.514   3.118
29724WAT     H189414   8.032   0.474   3.103
29724WAT     H289415   7.952   0.612   3.136
29725WAT      O89416   7.020   0.603   2.830
29725WAT     H189417   6.987   0.627   2.739
29725WAT     H289418   7.114   0.634   2.841
29726WAT      O89419   6.085   5.794   0.387
29726WAT     H189420   6.119   5.864   0.450
29726WAT     H289421   5.995   5.821   0.352
29727WAT      O89422   2.873   7.583   2.467
29727WAT     H189423   2.888   7.675   2.502
29727WAT     H289424   2.846   7.587   2.370
29728WAT      O89425   8.243   9.818   7.303
29728WAT     H189426   8.204   9.733   7.339
29728WAT     H289427   8.327   9.839   7.353
29729WAT      O89428   2.465   0.718   9.379
29729WAT     H189429   2.551   0.734   9.331
29729WAT     H289430   2.444   0.621   9.377
29730WAT      O89431   7.438   1.799   1.889
29730WAT     H189432   7.440   1.764   1.983
29730WAT     H289433   7.498   1.878   1.882
29731WAT      O89434   5.961   0.130   6.474
29731WAT     H189435   5.948   0.040   6.516
29731WAT     H289436   6.005   0.119   6.385
29732WAT      O89437   1.038   0.634   8.975
29732WAT     H189438   0.972   0.562   8.959
29732WAT     H289439   1.129   0.594   8.987
29733WAT      O89440   4.179   9.603   2.430
29733WAT     H189441   4.117   9.593   2.352
29733WAT     H289442   4.261   9.547   2.416
29734WAT      O89443   6.122   3.837   0.870
29734WAT     H189444   6.200   3.858   0.811
29734WAT     H289445   6.130   3.744   0.904
29735WAT      O89446   8.848   3.601   6.374
29735WAT     H189447   8.864   3.673   6.442
29735WAT     H289448   8.752   3.602   6.346
29736WAT      O89449   2.396   3.026   4.779
29736WAT     H189450   2.348   3.026   4.867
29736WAT     H289451   2.402   2.932   4.745
29737WAT      O89452   0.940   1.889   5.695
29737WAT     H189453   1.014   1.882   5.627
29737WAT     H289454   0.919   1.798   5.730
29738WAT      O89455   2.549   4.055   2.032
29738WAT     H189456   2.536   3.991   2.108
29738WAT     H289457   2.605   4.132   2.062
29739WAT      O89458   3.881   1.462   4.418
29739WAT     H189459   3.886   1.392   4.489
29739WAT     H289460   3.872   1.552   4.462
29740WAT      O89461   8.576   9.842   4.517
29740WAT     H189462   8.672   9.851   4.545
29740WAT     H289463   8.529   9.783   4.583
29741WAT      O89464   8.685   4.197   6.150
29741WAT     H189465   8.688   4.296   6.137
29741WAT     H289466   8.686   4.176   6.247
29742WAT      O89467   6.273   8.372   6.805
29742WAT     H189468   6.359   8.370   6.755
29742WAT     H289469   6.278   8.309   6.883
29743WAT      O89470   1.454   4.580   0.009
29743WAT     H189471   1.372   4.580  -0.048
29743WAT     H289472   1.521   4.643  -0.029
29744WAT      O89473   3.956   0.921   3.123
29744WAT     H189474   4.021   0.848   3.101
29744WAT     H289475   3.973   1.000   3.064
29745WAT      O89476   3.254   9.459   3.574
29745WAT     H189477   3.245   9.384   3.640
29745WAT     H289478   3.351   9.478   3.559
29746WAT      O89479   2.389   2.201   7.716
29746WAT     H189480   2.460   2.153   7.663
29746WAT     H289481   2.367   2.287   7.671
29747WAT      O89482   3.972   2.400   7.386
29747WAT     H189483   3.962   2.413   7.287
29747WAT     H289484   4.018   2.480   7.425
29748WAT      O89485   4.451   6.412   8.935
29748WAT     H189486   4.515   6.340   8.962
29748WAT     H289487   4.380   6.422   9.005
29749WAT      O89488   6.879   3.211   3.631
29749WAT     H189489   6.832   3.300   3.626
29749WAT     H289490   6.971   3.224   3.668
29750WAT      O89491   4.721   6.498   2.165
29750WAT     H189492   4.685   6.421   2.112
29750WAT     H289493   4.645   6.556   2.194
29751WAT      O89494   6.294   6.736   1.202
29751WAT     H189495   6.284   6.833   1.222
29751WAT     H289496   6.204   6.696   1.183
29752WAT      O89497   3.096   1.517   0.373
29752WAT     H189498   3.050   1.496   0.459
29752WAT     H289499   3.035   1.495   0.297
29753WAT      O89500   3.588   0.763   8.105
29753WAT     H189501   3.576   0.710   8.021
29753WAT     H289502   3.671   0.819   8.097
29754WAT      O89503   3.669   9.344   8.401
29754WAT     H189504   3.718   9.371   8.318
29754WAT     H289505   3.597   9.279   8.377
29755WAT      O89506   7.339   1.424   2.118
29755WAT     H189507   7.271   1.488   2.155
29755WAT     H289508   7.401   1.474   2.057
29756WAT      O89509   2.168   7.963   1.856
29756WAT     H189510   2.124   7.892   1.800
29756WAT     H289511   2.213   7.920   1.934
29757WAT      O89512   3.164   8.041   0.542
29757WAT     H189513   3.109   7.962   0.569
29757WAT     H289514   3.261   8.018   0.546
29758WAT      O89515   4.188   7.752   3.899
29758WAT     H189516   4.232   7.740   3.988
29758WAT     H289517   4.136   7.670   3.876
29759WAT      O89518   7.518   2.130   7.642
29759WAT     H189519   7.534   2.038   7.680
29759WAT     H289520   7.489   2.191   7.716
29760WAT      O89521   0.839   1.826   1.413
29760WAT     H189522   0.795   1.803   1.500
29760WAT     H289523   0.864   1.922   1.412
29761WAT      O89524   0.645   8.782   7.328
29761WAT     H189525   0.611   8.728   7.251
29761WAT     H289526   0.722   8.734   7.370
29762WAT      O89527   5.715   3.422   1.575
29762WAT     H189528   5.688   3.382   1.662
29762WAT     H289529   5.666   3.376   1.500
29763WAT      O89530   8.803   6.062   7.069
29763WAT     H189531   8.808   5.962   7.064
29763WAT     H289532   8.866   6.102   7.002
29764WAT      O89533   8.578   4.369   8.165
29764WAT     H189534   8.602   4.384   8.070
29764WAT     H289535   8.488   4.409   8.184
29765WAT      O89536   3.588   4.628   4.249
29765WAT     H189537   3.509   4.607   4.306
29765WAT     H289538   3.659   4.671   4.305
29766WAT      O89539   6.818   5.402   8.981
29766WAT     H189540   6.789   5.484   9.030
29766WAT     H289541   6.918   5.397   8.981
29767WAT      O89542   7.304   2.861   8.816
29767WAT     H189543   7.390   2.866   8.866
29767WAT     H289544   7.234   2.915   8.863
29768WAT      O89545   4.707   6.665   5.133
29768WAT     H189546   4.701   6.636   5.037
29768WAT     H289547   4.775   6.609   5.181
29769WAT      O89548   1.396   9.179   8.091
29769WAT     H189549   1.296   9.185   8.099
29769WAT     H289550   1.425   9.233   8.012
29770WAT      O89551   1.088   7.937   5.382
29770WAT     H189552   1.098   7.901   5.289
29770WAT     H289553   1.011   8.000   5.385
29771WAT      O89554   7.652   3.483   8.213
29771WAT     H189555   7.595   3.553   8.170
29771WAT     H289556   7.722   3.527   8.270
29772WAT      O89557   5.485   1.117   8.861
29772WAT     H189558   5.505   1.200   8.809
29772WAT     H289559   5.522   1.125   8.953
29773WAT      O89560   9.269   8.699   5.163
29773WAT     H189561   9.221   8.615   5.187
29773WAT     H289562   9.350   8.677   5.108
29774WAT      O89563   2.045   2.022   1.992
29774WAT     H189564   2.100   2.077   2.055
29774WAT     H289565   2.059   1.925   2.010
29775WAT      O89566   4.664   4.638   1.946
29775WAT     H189567   4.573   4.619   1.909
29775WAT     H289568   4.657   4.706   2.019
29776WAT      O89569   1.266   9.128   7.262
29776WAT     H189570   1.360   9.162   7.252
29776WAT     H289571   1.245   9.065   7.188
29777WAT      O89572   1.263   3.672   6.214
29777WAT     H189573   1.333   3.666   6.285
29777WAT     H289574   1.255   3.767   6.184
29778WAT      O89575   0.819   7.865   0.652
29778WAT     H189576   0.772   7.925   0.717
29778WAT     H289577   0.913   7.849   0.683
29779WAT      O89578   4.386   7.830   6.198
29779WAT     H189579   4.409   7.803   6.291
29779WAT     H289580   4.383   7.930   6.192
29780WAT      O89581   8.428   1.785   4.451
29780WAT     H189582   8.450   1.782   4.354
29780WAT     H289583   8.506   1.819   4.502
29781WAT      O89584   3.546   8.703   4.273
29781WAT     H189585   3.529   8.686   4.176
29781WAT     H289586   3.641   8.680   4.295
29782WAT      O89587   3.153   9.452   3.072
29782WAT     H189588   3.067   9.402   3.070
29782WAT     H289589   3.192   9.456   2.980
29783WAT      O89590   7.872   8.308   3.376
29783WAT     H189591   7.909   8.324   3.467
29783WAT     H289592   7.838   8.214   3.370
29784WAT      O89593   1.348   8.370   1.676
29784WAT     H189594   1.429   8.426   1.693
29784WAT     H289595   1.376   8.281   1.639
29785WAT      O89596   5.259   4.528   9.199
29785WAT     H189597   5.334   4.584   9.163
29785WAT     H289598   5.296   4.460   9.263
29786WAT      O89599   3.951   9.272   2.633
29786WAT     H189600   4.026   9.323   2.675
29786WAT     H289601   3.983   9.181   2.607
29787WAT      O89602   4.443   7.924   6.470
29787WAT     H189603   4.431   8.022   6.488
29787WAT     H289604   4.437   7.873   6.556
29788WAT      O89605   6.718   3.755   6.869
29788WAT     H189606   6.727   3.751   6.770
29788WAT     H289607   6.785   3.695   6.912
29789WAT      O89608   4.322   0.975   6.436
29789WAT     H189609   4.226   0.967   6.409
29789WAT     H289610   4.361   1.058   6.396
29790WAT      O89611   1.430   4.356   1.969
29790WAT     H189612   1.411   4.304   1.885
29790WAT     H289613   1.507   4.315   2.017
29791WAT      O89614   7.418   8.416   4.763
29791WAT     H189615   7.410   8.436   4.861
29791WAT     H289616   7.433   8.501   4.712
29792WAT      O89617   2.836   2.175   3.153
29792WAT     H189618   2.764   2.243   3.173
29792WAT     H289619   2.877   2.145   3.239
29793WAT      O89620   4.144   1.828   2.377
29793WAT     H189621   4.227   1.874   2.345
29793WAT     H289622   4.088   1.801   2.298
29794WAT      O89623   1.513   5.882   1.108
29794WAT     H189624   1.484   5.863   1.014
29794WAT     H289625   1.578   5.958   1.108
29795WAT      O89626   1.048   1.671   3.256
29795WAT     H189627   0.993   1.648   3.176
29795WAT     H289628   1.108   1.749   3.234
29796WAT      O89629   9.815   4.133   5.184
29796WAT     H189630   9.717   4.109   5.183
29796WAT     H289631   9.867   4.055   5.221
29797WAT      O89632   9.556   3.178   3.767
29797WAT     H189633   9.616   3.176   3.687
29797WAT     H289634   9.577   3.258   3.822
29798WAT      O89635   6.475   9.216   0.903
29798WAT     H189636   6.554   9.156   0.891
29798WAT     H289637   6.412   9.206   0.826
29799WAT      O89638   3.611   4.829   4.700
29799WAT     H189639   3.668   4.898   4.654
29799WAT     H289640   3.668   4.775   4.762
29800WAT      O89641   8.328   1.522   4.724
29800WAT     H189642   8.422   1.531   4.756
29800WAT     H289643   8.270   1.589   4.772
29801WAT      O89644   2.098   8.642   7.574
29801WAT     H189645   2.188   8.685   7.585
29801WAT     H289646   2.110   8.547   7.544
29802WAT      O89647   9.095   3.608   4.383
29802WAT     H189648   9.110   3.583   4.288
29802WAT     H289649   9.183   3.623   4.428
29803WAT      O89650   3.589   2.736   7.879
29803WAT     H189651   3.604   2.653   7.933
29803WAT     H289652   3.494   2.741   7.850
29804WAT      O89653   4.444   3.145   0.328
29804WAT     H189654   4.377   3.210   0.291
29804WAT     H289655   4.513   3.124   0.259
29805WAT      O89656   6.406   7.304   2.822
29805WAT     H189657   6.506   7.309   2.818
29805WAT     H289658   6.367   7.368   2.755
29806WAT      O89659   6.851   9.703   0.476
29806WAT     H189660   6.868   9.660   0.388
29806WAT     H289661   6.814   9.795   0.462
29807WAT      O89662   7.440   8.668   7.192
29807WAT     H189663   7.522   8.725   7.200
29807WAT     H289664   7.466   8.572   7.189
29808WAT      O89665   6.702   6.567   4.928
29808WAT     H189666   6.606   6.580   4.905
29808WAT     H289667   6.718   6.473   4.958
29809WAT      O89668   1.883   8.996   4.384
29809WAT     H189669   1.954   9.008   4.315
29809WAT     H289670   1.922   9.014   4.475
29810WAT      O89671   2.395   9.470   5.538
29810WAT     H189672   2.474   9.509   5.585
29810WAT     H289673   2.349   9.406   5.599
29811WAT      O89674   4.274   5.462   7.654
29811WAT     H189675   4.251   5.535   7.590
29811WAT     H289676   4.350   5.491   7.712
29812WAT      O89677   8.569   8.183   1.074
29812WAT     H189678   8.487   8.195   1.017
29812WAT     H289679   8.575   8.088   1.105
29813WAT      O89680   7.184   6.604   7.981
29813WAT     H189681   7.260   6.539   7.975
29813WAT     H289682   7.123   6.590   7.904
29814WAT      O89683   4.109   0.193   4.741
29814WAT     H189684   4.089   0.265   4.674
29814WAT     H289685   4.102   0.231   4.833
29815WAT      O89686   8.023   5.849   5.037
29815WAT     H189687   7.995   5.753   5.032
29815WAT     H289688   8.096   5.858   5.105
29816WAT      O89689   2.407   0.360   4.033
29816WAT     H189690   2.461   0.290   4.079
29816WAT     H289691   2.420   0.351   3.934
29817WAT      O89692   2.290   4.478   9.272
29817WAT     H189693   2.218   4.482   9.341
29817WAT     H289694   2.338   4.566   9.268
29818WAT      O89695   0.555   3.680   6.913
29818WAT     H189696   0.457   3.701   6.908
29818WAT     H289697   0.578   3.613   6.843
29819WAT      O89698   4.644   5.797   7.153
29819WAT     H189699   4.647   5.851   7.237
29819WAT     H289700   4.662   5.857   7.074
29820WAT      O89701   6.960   5.188   3.898
29820WAT     H189702   6.966   5.089   3.882
29820WAT     H289703   6.894   5.206   3.971
29821WAT      O89704   1.379   6.088   2.227
29821WAT     H189705   1.338   6.014   2.280
29821WAT     H289706   1.313   6.163   2.217
29822WAT      O89707   0.529   8.461   0.872
29822WAT     H189708   0.496   8.534   0.813
29822WAT     H289709   0.622   8.483   0.903
29823WAT      O89710   0.082   5.435   8.916
29823WAT     H189711   0.147   5.505   8.945
29823WAT     H289712   0.007   5.477   8.865
29824WAT      O89713   3.940   4.998   4.145
29824WAT     H189714   3.916   4.902   4.133
29824WAT     H289715   4.032   5.004   4.186
29825WAT      O89716   9.534   6.264   7.243
29825WAT     H189717   9.532   6.246   7.341
29825WAT     H289718   9.441   6.278   7.210
29826WAT      O89719   9.383   1.089   7.792
29826WAT     H189720   9.315   1.153   7.755
29826WAT     H289721   9.337   1.005   7.820
29827WAT      O89722   4.143   9.151   1.662
29827WAT     H189723   4.128   9.198   1.575
29827WAT     H289724   4.232   9.106   1.661
29828WAT      O89725   4.378   9.440   1.522
29828WAT     H189726   4.322   9.502   1.577
29828WAT     H289727   4.318   9.388   1.460
29829WAT      O89728   7.163   2.115   6.412
29829WAT     H189729   7.210   2.066   6.486
29829WAT     H289730   7.230   2.162   6.355
29830WAT      O89731   2.421   0.324   3.375
29830WAT     H189732   2.403   0.412   3.420
29830WAT     H289733   2.489   0.273   3.427
29831WAT      O89734   2.889   8.706   1.656
29831WAT     H189735   2.837   8.646   1.716
29831WAT     H289736   2.972   8.660   1.627
29832WAT      O89737   9.000   3.739   0.525
29832WAT     H189738   9.004   3.663   0.589
29832WAT     H289739   8.930   3.721   0.456
29833WAT      O89740   3.274   9.319   5.352
29833WAT     H189741   3.313   9.229   5.332
29833WAT     H289742   3.225   9.353   5.271
29834WAT      O89743   6.144   1.424   1.374
29834WAT     H189744   6.186   1.515   1.373
29834WAT     H289745   6.175   1.373   1.455
29835WAT      O89746   1.442   3.306   2.490
29835WAT     H189747   1.483   3.292   2.400
29835WAT     H289748   1.403   3.398   2.495
29836WAT      O89749   8.503   2.942   0.125
29836WAT     H189750   8.580   2.974   0.070
29836WAT     H289751   8.490   2.844   0.110
29837WAT      O89752   4.705   0.732   9.703
29837WAT     H189753   4.735   0.794   9.630
29837WAT     H289754   4.730   0.638   9.680
29838WAT      O89755   5.223   2.278   1.635
29838WAT     H189756   5.150   2.345   1.652
29838WAT     H289757   5.311   2.324   1.635
29839WAT      O89758   1.517   6.247   6.182
29839WAT     H189759   1.599   6.301   6.201
29839WAT     H289760   1.508   6.233   6.084
29840WAT      O89761   4.795   2.471   3.362
29840WAT     H189762   4.811   2.485   3.460
29840WAT     H289763   4.732   2.540   3.328
29841WAT      O89764   6.312   8.503   3.606
29841WAT     H189765   6.293   8.411   3.640
29841WAT     H289766   6.229   8.558   3.609
29842WAT      O89767   8.181   3.786   6.713
29842WAT     H189768   8.239   3.840   6.652
29842WAT     H289769   8.234   3.755   6.791
29843WAT      O89770   1.796   8.354   2.506
29843WAT     H189771   1.760   8.328   2.595
29843WAT     H289772   1.724   8.343   2.437
29844WAT      O89773   9.282   4.705   1.432
29844WAT     H189774   9.335   4.780   1.394
29844WAT     H289775   9.204   4.685   1.373
29845WAT      O89776   5.043   3.705   3.155
29845WAT     H189777   5.039   3.687   3.254
29845WAT     H289778   5.131   3.747   3.133
29846WAT      O89779   5.477   1.195   3.811
29846WAT     H189780   5.400   1.154   3.859
29846WAT     H289781   5.500   1.283   3.853
29847WAT      O89782   1.974   7.032   7.204
29847WAT     H189783   1.974   7.120   7.156
29847WAT     H289784   2.043   6.972   7.163
29848WAT      O89785   5.162   0.383   9.269
29848WAT     H189786   5.093   0.407   9.200
29848WAT     H289787   5.129   0.307   9.325
29849WAT      O89788   1.053   5.519   2.776
29849WAT     H189789   1.059   5.434   2.724
29849WAT     H289790   1.143   5.563   2.780
29850WAT      O89791   7.989   2.609   4.474
29850WAT     H189792   7.953   2.607   4.381
29850WAT     H289793   8.019   2.517   4.500
29851WAT      O89794   2.266   8.057   7.158
29851WAT     H189795   2.344   7.996   7.141
29851WAT     H289796   2.284   8.146   7.117
29852WAT      O89797   3.937   3.052   7.802
29852WAT     H189798   3.986   2.991   7.864
29852WAT     H289799   3.942   3.146   7.835
29853WAT      O89800   1.230   1.572   9.046
29853WAT     H189801   1.195   1.565   9.139
29853WAT     H289802   1.278   1.487   9.022
29854WAT      O89803   0.228   1.346   0.116
29854WAT     H189804   0.296   1.419   0.107
29854WAT     H289805   0.137   1.382   0.093
29855WAT      O89806   6.059   2.117   9.562
29855WAT     H189807   6.153   2.091   9.543
29855WAT     H289808   6.015   2.046   9.617
29856WAT      O89809   8.923   6.161   4.400
29856WAT     H189810   8.928   6.063   4.420
29856WAT     H289811   8.850   6.202   4.454
29857WAT      O89812   1.310   3.840   5.397
29857WAT     H189813   1.274   3.765   5.453
29857WAT     H289814   1.406   3.856   5.422
29858WAT      O89815   7.309   6.381   0.788
29858WAT     H189816   7.303   6.429   0.876
29858WAT     H289817   7.363   6.298   0.799
29859WAT      O89818   6.540   8.909   6.595
29859WAT     H189819   6.531   8.810   6.597
29859WAT     H289820   6.515   8.943   6.504
29860WAT      O89821   5.543   2.091   5.454
29860WAT     H189822   5.630   2.103   5.407
29860WAT     H289823   5.559   2.049   5.543
29861WAT      O89824   7.303   0.263   7.972
29861WAT     H189825   7.356   0.211   7.906
29861WAT     H289826   7.250   0.334   7.924
29862WAT      O89827   3.334   5.603   5.009
29862WAT     H189828   3.246   5.646   4.988
29862WAT     H289829   3.395   5.670   5.052
29863WAT      O89830   8.976   5.886   0.124
29863WAT     H189831   8.886   5.873   0.166
29863WAT     H289832   9.030   5.948   0.180
29864WAT      O89833   6.883   2.392   3.905
29864WAT     H189834   6.962   2.344   3.867
29864WAT     H289835   6.900   2.415   4.000
29865WAT      O89836   9.656   2.758   8.051
29865WAT     H189837   9.647   2.850   8.090
29865WAT     H289838   9.730   2.758   7.983
29866WAT      O89839   9.530   6.496   1.043
29866WAT     H189840   9.515   6.489   1.141
29866WAT     H289841   9.623   6.466   1.022
29867WAT      O89842   8.146   6.723   2.100
29867WAT     H189843   8.179   6.798   2.157
29867WAT     H289844   8.123   6.758   2.009
29868WAT      O89845   0.028   3.767   0.536
29868WAT     H189846  -0.067   3.765   0.505
29868WAT     H289847   0.037   3.833   0.609
29869WAT      O89848   3.281   7.239   0.287
29869WAT     H189849   3.357   7.199   0.339
29869WAT     H289850   3.244   7.317   0.337
29870WAT      O89851   5.173   3.312   8.225
29870WAT     H189852   5.162   3.221   8.184
29870WAT     H289853   5.083   3.351   8.245
29871WAT      O89854   5.441   2.545   2.188
29871WAT     H189855   5.539   2.558   2.203
29871WAT     H289856   5.419   2.566   2.093
29872WAT      O89857   1.359   2.060   2.431
29872WAT     H189858   1.290   1.987   2.425
29872WAT     H289859   1.410   2.050   2.516
29873WAT      O89860   5.282   8.240   8.128
29873WAT     H189861   5.257   8.335   8.114
29873WAT     H289862   5.344   8.233   8.206
29874WAT      O89863   3.865   5.464   1.223
29874WAT     H189864   3.841   5.537   1.287
29874WAT     H289865   3.859   5.376   1.270
29875WAT      O89866   9.361   9.101   1.831
29875WAT     H189867   9.391   9.195   1.818
29875WAT     H289868   9.439   9.042   1.849
29876WAT      O89869   5.496   8.396   4.363
29876WAT     H189870   5.500   8.414   4.265
29876WAT     H289871   5.440   8.467   4.407
29877WAT      O89872   7.090   1.882   4.703
29877WAT     H189873   7.150   1.962   4.708
29877WAT     H289874   7.085   1.839   4.793
29878WAT      O89875   3.963   7.588   0.803
29878WAT     H189876   4.014   7.609   0.719
29878WAT     H289877   3.975   7.491   0.825
29879WAT      O89878   3.129   9.040   3.105
29879WAT     H189879   3.049   9.056   3.163
29879WAT     H289880   3.098   9.015   3.013
29880WAT      O89881   9.810   1.534   6.551
29880WAT     H189882   9.767   1.527   6.641
29880WAT     H289883   9.877   1.460   6.541
29881WAT      O89884   4.730   0.213   0.655
29881WAT     H189885   4.792   0.212   0.577
29881WAT     H289886   4.782   0.200   0.739
29882WAT      O89887   2.773   8.089   0.578
29882WAT     H189888   2.826   8.158   0.627
29882WAT     H289889   2.706   8.049   0.640
29883WAT      O89890   4.817   7.701   0.982
29883WAT     H189891   4.914   7.719   0.965
29883WAT     H289892   4.775   7.663   0.899
29884WAT      O89893   8.864   4.481   7.530
29884WAT     H189894   8.778   4.530   7.513
29884WAT     H289895   8.847   4.382   7.526
29885WAT      O89896   1.147   9.009   9.328
29885WAT     H189897   1.166   8.933   9.265
29885WAT     H289898   1.087   8.978   9.402
29886WAT      O89899   5.202   6.433   2.959
29886WAT     H189900   5.119   6.448   3.012
29886WAT     H289901   5.209   6.503   2.888
29887WAT      O89902   4.386   4.059   3.477
29887WAT     H189903   4.417   4.149   3.506
29887WAT     H289904   4.296   4.040   3.516
29888WAT      O89905   4.677   9.139   8.292
29888WAT     H189906   4.626   9.209   8.241
29888WAT     H289907   4.653   9.145   8.389
29889WAT      O89908   7.805   3.112   9.262
29889WAT     H189909   7.751   3.157   9.192
29889WAT     H289910   7.900   3.105   9.232
29890WAT      O89911   7.848   0.733   7.404
29890WAT     H189912   7.926   0.724   7.342
29890WAT     H289913   7.864   0.807   7.469
29891WAT      O89914   8.391   3.471   8.475
29891WAT     H189915   8.306   3.508   8.438
29891WAT     H289916   8.422   3.395   8.417
29892WAT      O89917   1.904   4.632   7.486
29892WAT     H189918   1.921   4.550   7.432
29892WAT     H289919   1.988   4.687   7.490
29893WAT      O89920   7.400   0.982   3.540
29893WAT     H189921   7.372   0.903   3.485
29893WAT     H289922   7.338   0.991   3.619
29894WAT      O89923   4.345   6.569   6.291
29894WAT     H189924   4.251   6.557   6.259
29894WAT     H289925   4.349   6.560   6.390
29895WAT      O89926   5.730   7.303   7.200
29895WAT     H189927   5.828   7.313   7.217
29895WAT     H289928   5.716   7.259   7.111
29896WAT      O89929   7.402   0.989   4.347
29896WAT     H189930   7.336   0.915   4.359
29896WAT     H289931   7.459   0.996   4.429
29897WAT      O89932   2.210   6.916   3.866
29897WAT     H189933   2.164   6.897   3.952
29897WAT     H289934   2.304   6.946   3.885
29898WAT      O89935   7.492   2.959   7.339
29898WAT     H189936   7.459   3.053   7.345
29898WAT     H289937   7.464   2.908   7.420
29899WAT      O89938   8.570   4.218   3.612
29899WAT     H189939   8.547   4.133   3.564
29899WAT     H289940   8.609   4.196   3.701
29900WAT      O89941   6.138   1.331   9.262
29900WAT     H189942   6.237   1.337   9.257
29900WAT     H289943   6.105   1.260   9.200
29901WAT      O89944   3.313   6.796   7.692
29901WAT     H189945   3.338   6.801   7.596
29901WAT     H289946   3.383   6.746   7.743
29902WAT      O89947   9.108   9.590   1.182
29902WAT     H189948   9.027   9.535   1.163
29902WAT     H289949   9.116   9.662   1.112
29903WAT      O89950   5.041   8.402   6.129
29903WAT     H189951   5.116   8.428   6.068
29903WAT     H289952   5.044   8.304   6.146
29904WAT      O89953   7.944   2.998   4.822
29904WAT     H189954   7.938   2.915   4.878
29904WAT     H289955   7.857   3.047   4.825
29905WAT      O89956   7.757   9.061   8.264
29905WAT     H189957   7.740   8.969   8.297
29905WAT     H289958   7.671   9.111   8.258
29906WAT      O89959   6.754   9.748   6.123
29906WAT     H189960   6.763   9.848   6.117
29906WAT     H289961   6.690   9.717   6.053
29907WAT      O89962   3.802   3.521   1.532
29907WAT     H189963   3.725   3.530   1.595
29907WAT     H289964   3.771   3.537   1.438
29908WAT      O89965   7.629   4.419   8.557
29908WAT     H189966   7.714   4.367   8.555
29908WAT     H289967   7.565   4.380   8.491
29909WAT      O89968   3.824   5.789   8.940
29909WAT     H189969   3.840   5.754   8.848
29909WAT     H289970   3.846   5.717   9.007
29910WAT      O89971   3.112   0.209   5.467
29910WAT     H189972   3.148   0.115   5.463
29910WAT     H289973   3.164   0.261   5.534
29911WAT      O89974   6.399   6.319   6.177
29911WAT     H189975   6.301   6.334   6.193
29911WAT     H289976   6.451   6.396   6.212
29912WAT      O89977   1.669   0.305   0.533
29912WAT     H189978   1.661   0.392   0.485
29912WAT     H289979   1.619   0.234   0.482
29913WAT      O89980   0.828   2.666   1.377
29913WAT     H189981   0.855   2.572   1.355
29913WAT     H289982   0.888   2.703   1.448
29914WAT      O89983   4.005   6.637   7.532
29914WAT     H189984   3.990   6.603   7.439
29914WAT     H289985   4.101   6.624   7.557
29915WAT      O89986   0.381   1.618   2.245
29915WAT     H189987   0.389   1.717   2.236
29915WAT     H289988   0.290   1.595   2.280
29916WAT      O89989   0.563   9.818   0.385
29916WAT     H189990   0.628   9.879   0.429
29916WAT     H289991   0.538   9.744   0.448
29917WAT      O89992   1.977   4.660   5.009
29917WAT     H189993   2.004   4.756   5.003
29917WAT     H289994   1.939   4.642   5.100
29918WAT      O89995   0.208   5.623   5.048
29918WAT     H189996   0.238   5.673   5.129
29918WAT     H289997   0.124   5.663   5.013
29919WAT      O89998   9.760   2.354   3.160
29919WAT     H189999   9.674   2.399   3.134
29919WAT     H290000   9.837   2.406   3.122
29920WAT      O90001   6.371   0.997   7.018
29920WAT     H190002   6.298   0.937   7.051
29920WAT     H290003   6.441   0.942   6.973
29921WAT      O90004   9.100   9.377   3.777
29921WAT     H190005   9.187   9.327   3.782
29921WAT     H290006   9.043   9.337   3.706
29922WAT      O90007   4.593   3.873   9.727
29922WAT     H190008   4.675   3.827   9.691
29922WAT     H290009   4.608   3.896   9.823
29923WAT      O90010   7.828   6.818   3.275
29923WAT     H190011   7.776   6.758   3.335
29923WAT     H290012   7.865   6.894   3.329
29924WAT      O90013   3.040   1.842   2.282
29924WAT     H190014   3.079   1.805   2.197
29924WAT     H290015   3.045   1.773   2.354
29925WAT      O90016   4.009   4.836   5.377
29925WAT     H190017   4.066   4.835   5.459
29925WAT     H290018   4.058   4.879   5.302
29926WAT      O90019   6.746   8.590   8.743
29926WAT     H190020   6.742   8.681   8.784
29926WAT     H290021   6.677   8.582   8.671
29927WAT      O90022   6.975   0.983   5.528
29927WAT     H190023   6.996   0.976   5.626
29927WAT     H290024   7.049   1.030   5.481
29928WAT      O90025   0.412   2.441   7.183
29928WAT     H190026   0.435   2.395   7.097
29928WAT     H290027   0.479   2.513   7.202
29929WAT      O90028   1.011   2.222   4.985
29929WAT     H190029   1.083   2.153   4.988
29929WAT     H290030   0.972   2.234   5.076
29930WAT      O90031   6.614   3.625   8.775
29930WAT     H190032   6.571   3.633   8.685
29930WAT     H290033   6.605   3.530   8.807
29931WAT      O90034   3.439   2.310   2.964
29931WAT     H190035   3.416   2.369   3.042
29931WAT     H290036   3.524   2.342   2.921
29932WAT      O90037   5.080   3.811   2.627
29932WAT     H190038   4.996   3.758   2.638
29932WAT     H290039   5.059   3.896   2.578
29933WAT      O90040   5.619   6.936   9.632
29933WAT     H190041   5.637   6.977   9.543
29933WAT     H290042   5.697   6.880   9.660
29934WAT      O90043   4.380   8.450   7.981
29934WAT     H190044   4.323   8.443   7.899
29934WAT     H290045   4.393   8.546   8.005
29935WAT      O90046   3.919   1.222   2.676
29935WAT     H190047   3.893   1.317   2.688
29935WAT     H290048   4.012   1.217   2.638
29936WAT      O90049   8.140   1.974   6.369
29936WAT     H190050   8.143   2.003   6.273
29936WAT     H290051   8.198   2.034   6.424
29937WAT      O90052   0.881   0.738   3.426
29937WAT     H190053   0.811   0.807   3.407
29937WAT     H290054   0.852   0.683   3.505
29938WAT      O90055   2.352   2.390   7.149
29938WAT     H190056   2.350   2.467   7.085
29938WAT     H290057   2.306   2.417   7.234
29939WAT      O90058   7.354   0.409   9.472
29939WAT     H190059   7.437   0.376   9.427
29939WAT     H290060   7.274   0.363   9.435
29940WAT      O90061   9.328   9.591   1.406
29940WAT     H190062   9.355   9.540   1.487
29940WAT     H290063   9.305   9.528   1.332
29941WAT      O90064   5.819   2.419   5.707
29941WAT     H190065   5.737   2.467   5.677
29941WAT     H290066   5.844   2.350   5.640
29942WAT      O90067   8.267   2.374   9.607
29942WAT     H190068   8.295   2.470   9.610
29942WAT     H290069   8.206   2.355   9.684
29943WAT      O90070   7.264   2.760   3.660
29943WAT     H190071   7.304   2.695   3.725
29943WAT     H290072   7.170   2.781   3.687
29944WAT      O90073   7.055   4.238   6.319
29944WAT     H190074   6.987   4.273   6.384
29944WAT     H290075   7.144   4.233   6.364
29945WAT      O90076   1.800   9.723   7.612
29945WAT     H190077   1.796   9.807   7.665
29945WAT     H290078   1.861   9.658   7.659
29946WAT      O90079   0.495   0.480   7.710
29946WAT     H190080   0.423   0.503   7.776
29946WAT     H290081   0.461   0.495   7.618
29947WAT      O90082   6.781   0.175   6.146
29947WAT     H190083   6.693   0.181   6.193
29947WAT     H290084   6.830   0.262   6.154
29948WAT      O90085   7.148   1.740   3.553
29948WAT     H190086   7.066   1.712   3.503
29948WAT     H290087   7.178   1.665   3.613
29949WAT      O90088   5.077   0.513   5.230
29949WAT     H190089   4.994   0.487   5.180
29949WAT     H290090   5.154   0.519   5.167
29950WAT      O90091   2.347   1.479   0.453
29950WAT     H190092   2.426   1.424   0.426
29950WAT     H290093   2.319   1.453   0.546
29951WAT      O90094   4.631   3.420   1.683
29951WAT     H190095   4.665   3.396   1.774
29951WAT     H290096   4.707   3.421   1.618
29952WAT      O90097   1.919   7.104   3.824
29952WAT     H190098   2.016   7.086   3.838
29952WAT     H290099   1.865   7.024   3.852
29953WAT      O90100   4.166   7.031   6.639
29953WAT     H190101   4.206   7.105   6.584
29953WAT     H290102   4.070   7.052   6.658
29954WAT      O90103   6.371   5.442   9.041
29954WAT     H190104   6.286   5.394   9.020
29954WAT     H290105   6.421   5.391   9.112
29955WAT      O90106   2.519   2.499   1.684
29955WAT     H190107   2.507   2.594   1.714
29955WAT     H290108   2.589   2.455   1.739
29956WAT      O90109   5.392   0.971   7.328
29956WAT     H190110   5.390   1.013   7.237
29956WAT     H290111   5.423   1.038   7.396
29957WAT      O90112   1.884   0.039   7.108
29957WAT     H190113   1.845  -0.025   7.174
29957WAT     H290114   1.942  -0.011   7.044
29958WAT      O90115   5.329   5.148   7.499
29958WAT     H190116   5.270   5.188   7.429
29958WAT     H290117   5.371   5.065   7.462
29959WAT      O90118   6.845   6.762   8.634
29959WAT     H190119   6.789   6.783   8.555
29959WAT     H290120   6.935   6.805   8.623
29960WAT      O90121   2.446   5.931   4.169
29960WAT     H190122   2.524   5.931   4.106
29960WAT     H290123   2.382   5.859   4.143
29961WAT      O90124   7.371   5.549   7.309
29961WAT     H190125   7.417   5.560   7.221
29961WAT     H290126   7.273   5.570   7.297
29962WAT      O90127   2.222   8.617   3.148
29962WAT     H190128   2.164   8.659   3.078
29962WAT     H290129   2.248   8.525   3.118
29963WAT      O90130   5.584   3.193   9.861
29963WAT     H190131   5.561   3.190   9.764
29963WAT     H290132   5.589   3.100   9.898
29964WAT      O90133   4.419   7.421   7.353
29964WAT     H190134   4.428   7.489   7.280
29964WAT     H290135   4.357   7.349   7.325
29965WAT      O90136   5.000   3.762   6.299
29965WAT     H190137   4.914   3.793   6.258
29965WAT     H290138   5.012   3.664   6.283
29966WAT      O90139   4.851   6.750   7.703
29966WAT     H190140   4.784   6.789   7.640
29966WAT     H290141   4.903   6.678   7.656
29967WAT      O90142   2.768   3.039   3.318
29967WAT     H190143   2.854   2.991   3.300
29967WAT     H290144   2.692   2.987   3.281
29968WAT      O90145   7.788   2.634   7.317
29968WAT     H190146   7.731   2.687   7.254
29968WAT     H290147   7.885   2.655   7.300
29969WAT      O90148   7.103   3.688   4.525
29969WAT     H190149   7.120   3.605   4.578
29969WAT     H290150   7.169   3.695   4.450
29970WAT      O90151   4.521   8.803   4.377
29970WAT     H190152   4.618   8.804   4.354
29970WAT     H290153   4.509   8.773   4.472
29971WAT      O90154   3.465   2.760   3.570
29971WAT     H190155   3.538   2.704   3.530
29971WAT     H290156   3.501   2.810   3.649
29972WAT      O90157   7.834   7.920   5.744
29972WAT     H190158   7.899   7.863   5.693
29972WAT     H290159   7.755   7.865   5.771
29973WAT      O90160   9.822   4.625   4.426
29973WAT     H190161   9.902   4.580   4.467
29973WAT     H290162   9.740   4.570   4.444
29974WAT      O90163   1.410   9.119   9.741
29974WAT     H190164   1.401   9.152   9.648
29974WAT     H290165   1.332   9.060   9.763
29975WAT      O90166   5.499   5.507   1.379
29975WAT     H190167   5.472   5.529   1.472
29975WAT     H290168   5.543   5.416   1.378
29976WAT      O90169   7.975   5.569   4.129
29976WAT     H190170   7.897   5.625   4.100
29976WAT     H290171   7.947   5.474   4.138
29977WAT      O90172   9.616   2.952   2.158
29977WAT     H190173   9.617   2.871   2.216
29977WAT     H290174   9.560   2.935   2.077
29978WAT      O90175   9.717   7.117   2.596
29978WAT     H190176   9.623   7.147   2.610
29978WAT     H290177   9.743   7.130   2.501
29979WAT      O90178   2.781   7.377   3.662
29979WAT     H190179   2.784   7.471   3.697
29979WAT     H290180   2.858   7.362   3.600
29980WAT      O90181   8.246   6.640   5.050
29980WAT     H190182   8.261   6.710   5.119
29980WAT     H290183   8.335   6.604   5.020
29981WAT      O90184   5.420   7.646   7.981
29981WAT     H190185   5.341   7.689   8.024
29981WAT     H290186   5.440   7.691   7.895
29982WAT      O90187   4.844   5.512   1.657
29982WAT     H190188   4.789   5.550   1.583
29982WAT     H290189   4.941   5.530   1.640
29983WAT      O90190   7.763   3.907   8.246
29983WAT     H190191   7.860   3.882   8.244
29983WAT     H290192   7.726   3.887   8.337
29984WAT      O90193   7.547   8.331   2.266
29984WAT     H190194   7.561   8.317   2.168
29984WAT     H290195   7.586   8.254   2.317
29985WAT      O90196   7.790   0.263   3.932
29985WAT     H190197   7.825   0.326   3.862
29985WAT     H290198   7.830   0.286   4.021
29986WAT      O90199   8.979   7.641   2.102
29986WAT     H190200   9.040   7.719   2.113
29986WAT     H290201   8.954   7.605   2.192
29987WAT      O90202   7.430   2.445   3.354
29987WAT     H190203   7.334   2.416   3.350
29987WAT     H290204   7.434   2.539   3.388
29988WAT      O90205   2.799   3.194   4.461
29988WAT     H190206   2.705   3.200   4.429
29988WAT     H290207   2.830   3.099   4.458
29989WAT      O90208   2.881   4.785   5.925
29989WAT     H190209   2.942   4.810   6.000
29989WAT     H290210   2.916   4.821   5.839
29990WAT      O90211   8.950   2.195   6.901
29990WAT     H190212   8.988   2.283   6.928
29990WAT     H290213   9.022   2.125   6.906
29991WAT      O90214   7.162   4.875   2.834
29991WAT     H190215   7.214   4.790   2.836
29991WAT     H290216   7.095   4.872   2.760
29992WAT      O90217   4.902   3.004   9.721
29992WAT     H190218   4.925   2.916   9.763
29992WAT     H290219   4.880   2.991   9.625
29993WAT      O90220   5.758   5.832   1.259
29993WAT     H190221   5.846   5.867   1.292
29993WAT     H290222   5.749   5.736   1.283
29994WAT      O90223   0.005   8.060   0.078
29994WAT     H190224   0.031   8.145   0.034
29994WAT     H290225   0.030   7.983   0.020
29995WAT      O90226   1.064   9.587   1.878
29995WAT     H190227   1.094   9.593   1.783
29995WAT     H290228   0.983   9.644   1.890
29996WAT      O90229   7.332   9.488   3.252
29996WAT     H190230   7.261   9.552   3.225
29996WAT     H290231   7.308   9.396   3.220
29997WAT      O90232   5.460   1.871   6.098
29997WAT     H190233   5.363   1.859   6.079
29997WAT     H290234   5.483   1.968   6.099
29998WAT      O90235   4.534   3.989   5.637
29998WAT     H190236   4.466   4.057   5.610
29998WAT     H290237   4.539   3.916   5.568
29999WAT      O90238   6.672   0.152   3.599
29999WAT     H190239   6.601   0.116   3.660
29999WAT     H290240   6.731   0.215   3.649
30000WAT      O90241   2.167   8.082   9.201
30000WAT     H190242   2.170   8.132   9.288
30000WAT     H290243   2.213   8.136   9.131
30001WAT      O90244   1.772   3.812   0.961
30001WAT     H190245   1.728   3.869   1.030
30001WAT     H290246   1.871   3.818   0.971
30002WAT      O90247   2.611   3.736   2.831
30002WAT     H190248   2.612   3.665   2.901
30002WAT     H290249   2.678   3.807   2.855
30003WAT      O90250   6.466   7.636   7.090
30003WAT     H190251   6.487   7.557   7.147
30003WAT     H290252   6.430   7.606   7.002
30004WAT      O90253   0.212   8.332   4.232
30004WAT     H190254   0.199   8.389   4.313
30004WAT     H290255   0.130   8.276   4.218
30005WAT      O90256   3.421   9.787   6.142
30005WAT     H190257   3.398   9.823   6.051
30005WAT     H290258   3.383   9.847   6.212
30006WAT      O90259   1.532   6.580   1.721
30006WAT     H190260   1.627   6.597   1.694
30006WAT     H290261   1.525   6.489   1.763
30007WAT      O90262   8.354   0.161   2.041
30007WAT     H190263   8.351   0.122   2.133
30007WAT     H290264   8.393   0.253   2.045
30008WAT      O90265   3.547   0.902   0.955
30008WAT     H190266   3.614   0.871   0.888
30008WAT     H290267   3.559   0.851   1.040
30009WAT      O90268   3.607   8.825   0.698
30009WAT     H190269   3.552   8.877   0.764
30009WAT     H290270   3.633   8.884   0.622
30010WAT      O90271   4.180   5.657   8.653
30010WAT     H190272   4.247   5.731   8.643
30010WAT     H290273   4.190   5.617   8.744
30011WAT      O90274   1.729   4.631   1.032
30011WAT     H190275   1.717   4.600   0.938
30011WAT     H290276   1.671   4.577   1.093
30012WAT      O90277   6.485   2.418   8.297
30012WAT     H190278   6.500   2.469   8.381
30012WAT     H290279   6.544   2.337   8.295
30013WAT      O90280   7.227   4.596   2.317
30013WAT     H190281   7.319   4.611   2.281
30013WAT     H290282   7.172   4.678   2.306
30014WAT      O90283   3.871   2.362   1.134
30014WAT     H190284   3.952   2.367   1.193
30014WAT     H290285   3.799   2.311   1.180
30015WAT      O90286   6.534   1.289   3.557
30015WAT     H190287   6.492   1.220   3.497
30015WAT     H290288   6.462   1.341   3.602
30016WAT      O90289   5.231   8.605   9.152
30016WAT     H190290   5.138   8.571   9.166
30016WAT     H290291   5.297   8.544   9.197
30017WAT      O90292   4.977   9.171   9.806
30017WAT     H190293   4.925   9.244   9.849
30017WAT     H290294   5.064   9.159   9.854
30018WAT      O90295   2.644   0.276   7.285
30018WAT     H190296   2.578   0.317   7.222
30018WAT     H290297   2.698   0.208   7.235
30019WAT      O90298   2.111   7.656   3.336
30019WAT     H190299   2.153   7.566   3.346
30019WAT     H290300   2.017   7.652   3.370
30020WAT      O90301   4.271   5.996   9.279
30020WAT     H190302   4.234   5.914   9.323
30020WAT     H290303   4.349   6.029   9.331
30021WAT      O90304   2.302   3.133   3.637
30021WAT     H190305   2.314   3.068   3.712
30021WAT     H290306   2.386   3.186   3.625
30022WAT      O90307   1.501   3.930   6.469
30022WAT     H190308   1.543   3.958   6.555
30022WAT     H290309   1.572   3.903   6.404
30023WAT      O90310   7.202   2.291   5.230
30023WAT     H190311   7.240   2.321   5.143
30023WAT     H290312   7.272   2.242   5.281
30024WAT      O90313   5.787   2.308   5.339
30024WAT     H190314   5.828   2.266   5.420
30024WAT     H290315   5.756   2.237   5.277
30025WAT      O90316   0.096   3.722   2.948
30025WAT     H190317   0.012   3.765   2.916
30025WAT     H290318   0.143   3.679   2.870
30026WAT      O90319   2.981   5.617   5.386
30026WAT     H190320   3.074   5.653   5.391
30026WAT     H290321   2.957   5.574   5.473
30027WAT      O90322   4.060   1.986   3.695
30027WAT     H190323   3.968   2.019   3.675
30027WAT     H290324   4.116   1.991   3.612
30028WAT      O90325   4.768   8.348   8.116
30028WAT     H190326   4.731   8.434   8.150
30028WAT     H290327   4.728   8.272   8.169
30029WAT      O90328   0.051   7.433   0.558
30029WAT     H190329   0.138   7.464   0.598
30029WAT     H290330  -0.021   7.499   0.579
30030WAT      O90331   7.604   6.394   0.765
30030WAT     H190332   7.658   6.312   0.788
30030WAT     H290333   7.633   6.469   0.824
30031WAT      O90334   5.842   3.129   8.599
30031WAT     H190335   5.930   3.176   8.596
30031WAT     H290336   5.857   3.032   8.616
30032WAT      O90337   9.593   7.267   0.255
30032WAT     H190338   9.539   7.205   0.312
30032WAT     H290339   9.558   7.360   0.265
30033WAT      O90340   3.576   8.315   4.407
30033WAT     H190341   3.481   8.318   4.376
30033WAT     H290342   3.577   8.299   4.506
30034WAT      O90343   8.194   7.681   5.205
30034WAT     H190344   8.130   7.621   5.156
30034WAT     H290345   8.151   7.769   5.222
30035WAT      O90346   6.770   4.208   8.354
30035WAT     H190347   6.736   4.235   8.264
30035WAT     H290348   6.811   4.287   8.400
30036WAT      O90349   9.583   9.017   4.628
30036WAT     H190350   9.503   9.025   4.568
30036WAT     H290351   9.572   8.938   4.688
30037WAT      O90352   0.113   5.422   2.848
30037WAT     H190353   0.026   5.467   2.829
30037WAT     H290354   0.176   5.488   2.889
30038WAT      O90355   4.635   0.233   5.871
30038WAT     H190356   4.678   0.164   5.811
30038WAT     H290357   4.608   0.312   5.817
30039WAT      O90358   6.441   9.547   3.813
30039WAT     H190359   6.391   9.462   3.798
30039WAT     H290360   6.506   9.561   3.739
30040WAT      O90361   3.669   7.123   1.218
30040WAT     H190362   3.758   7.159   1.246
30040WAT     H290363   3.642   7.049   1.280
30041WAT      O90364   6.822   8.312   1.655
30041WAT     H190365   6.794   8.325   1.750
30041WAT     H290366   6.901   8.251   1.651
30042WAT      O90367   3.185   8.733   1.834
30042WAT     H190368   3.146   8.690   1.752
30042WAT     H290369   3.284   8.743   1.822
30043WAT      O90370   5.716   9.333   6.248
30043WAT     H190371   5.752   9.414   6.295
30043WAT     H290372   5.619   9.323   6.269
30044WAT      O90373   5.318   1.522   9.351
30044WAT     H190374   5.293   1.533   9.255
30044WAT     H290375   5.238   1.492   9.403
30045WAT      O90376   5.139   3.930   8.700
30045WAT     H190377   5.207   3.964   8.765
30045WAT     H290378   5.083   3.860   8.745
30046WAT      O90379   5.941   8.328   4.054
30046WAT     H190380   5.983   8.368   4.136
30046WAT     H290381   5.844   8.310   4.072
30047WAT      O90382   9.627   0.383   0.615
30047WAT     H190383   9.723   0.381   0.642
30047WAT     H290384   9.620   0.407   0.518
30048WAT      O90385   7.816   1.744   6.060
30048WAT     H190386   7.788   1.709   6.149
30048WAT     H290387   7.788   1.840   6.052
30049WAT      O90388   9.538   0.347   2.070
30049WAT     H190389   9.626   0.373   2.110
30049WAT     H290390   9.475   0.319   2.142
30050WAT      O90391   8.712   3.116   8.273
30050WAT     H190392   8.787   3.150   8.330
30050WAT     H290393   8.748   3.080   8.187
30051WAT      O90394   5.008   8.563   7.334
30051WAT     H190395   5.044   8.605   7.417
30051WAT     H290396   5.070   8.491   7.303
30052WAT      O90397   7.070   7.903   8.255
30052WAT     H190398   7.087   7.954   8.339
30052WAT     H290399   7.081   7.964   8.176
30053WAT      O90400   7.486   7.409   9.810
30053WAT     H190401   7.572   7.358   9.799
30053WAT     H290402   7.465   7.418   9.907
30054WAT      O90403   3.891   8.771   9.290
30054WAT     H190404   3.974   8.782   9.346
30054WAT     H290405   3.816   8.821   9.333
30055WAT      O90406   4.858   0.656   6.513
30055WAT     H190407   4.889   0.647   6.418
30055WAT     H290408   4.807   0.573   6.539
30056WAT      O90409   6.457   5.575   3.906
30056WAT     H190410   6.418   5.506   3.967
30056WAT     H290411   6.543   5.542   3.868
30057WAT      O90412   2.540   9.722   9.644
30057WAT     H190413   2.578   9.642   9.690
30057WAT     H290414   2.588   9.804   9.675
30058WAT      O90415   0.332   7.152   4.632
30058WAT     H190416   0.400   7.205   4.682
30058WAT     H290417   0.241   7.188   4.654
30059WAT      O90418   1.227   8.284   7.975
30059WAT     H190419   1.289   8.206   7.985
30059WAT     H290420   1.159   8.264   7.905
30060WAT      O90421   1.997   5.812   4.789
30060WAT     H190422   1.912   5.863   4.801
30060WAT     H290423   1.983   5.738   4.723
30061WAT      O90424   6.451   7.863   9.026
30061WAT     H190425   6.440   7.953   9.069
30061WAT     H290426   6.529   7.865   8.964
30062WAT      O90427   3.707   7.489   8.182
30062WAT     H190428   3.652   7.500   8.099
30062WAT     H290429   3.742   7.395   8.185
30063WAT      O90430   2.318   3.267   2.205
30063WAT     H190431   2.343   3.222   2.120
30063WAT     H290432   2.392   3.258   2.271
30064WAT      O90433   8.515   5.545   3.227
30064WAT     H190434   8.520   5.518   3.131
30064WAT     H290435   8.427   5.588   3.246
30065WAT      O90436   8.843   2.264   1.701
30065WAT     H190437   8.899   2.284   1.782
30065WAT     H290438   8.884   2.309   1.621
30066WAT      O90439   0.780   7.197   8.679
30066WAT     H190440   0.798   7.284   8.634
30066WAT     H290441   0.866   7.146   8.690
30067WAT      O90442   1.723   2.137   6.193
30067WAT     H190443   1.677   2.197   6.128
30067WAT     H290444   1.771   2.191   6.262
30068WAT      O90445   6.547   3.061   3.459
30068WAT     H190446   6.467   3.008   3.431
30068WAT     H290447   6.622   2.999   3.482
30069WAT      O90448   6.731   2.060   9.647
30069WAT     H190449   6.759   2.056   9.743
30069WAT     H290450   6.654   2.123   9.638
30070WAT      O90451   1.189   4.727   6.074
30070WAT     H190452   1.232   4.756   6.159
30070WAT     H290453   1.136   4.803   6.036
30071WAT      O90454   2.143   5.250   9.354
30071WAT     H190455   2.199   5.250   9.437
30071WAT     H290456   2.046   5.257   9.380
30072WAT      O90457   7.208   7.590   3.833
30072WAT     H190458   7.114   7.557   3.843
30072WAT     H290459   7.219   7.675   3.884
30073WAT      O90460   4.426   7.655   8.003
30073WAT     H190461   4.428   7.580   7.937
30073WAT     H290462   4.332   7.671   8.033
30074WAT      O90463   7.130   6.297   9.192
30074WAT     H190464   7.203   6.231   9.207
30074WAT     H290465   7.041   6.252   9.201
30075WAT      O90466   1.533   7.402   0.769
30075WAT     H190467   1.562   7.344   0.693
30075WAT     H290468   1.437   7.429   0.755
30076WAT      O90469   6.335   4.605   7.116
30076WAT     H190470   6.237   4.621   7.106
30076WAT     H290471   6.352   4.506   7.119
30077WAT      O90472   7.177   3.412   4.653
30077WAT     H190473   7.177   3.314   4.670
30077WAT     H290474   7.168   3.461   4.740
30078WAT      O90475   2.855   2.722   9.443
30078WAT     H190476   2.872   2.673   9.358
30078WAT     H290477   2.788   2.794   9.427
30079WAT      O90478   2.013   1.339   4.872
30079WAT     H190479   1.957   1.397   4.931
30079WAT     H290480   1.956   1.300   4.800
30080WAT      O90481   6.930   1.909   6.093
30080WAT     H190482   6.937   1.991   6.037
30080WAT     H290483   6.925   1.828   6.034
30081WAT      O90484   0.424   4.631   3.666
30081WAT     H190485   0.437   4.561   3.596
30081WAT     H290486   0.388   4.589   3.749
30082WAT      O90487   0.401   4.979   4.019
30082WAT     H190488   0.348   5.005   4.100
30082WAT     H290489   0.379   4.885   3.993
30083WAT      O90490   9.870   1.008   6.531
30083WAT     H190491   9.851   0.917   6.496
30083WAT     H290492   9.813   1.075   6.485
30084WAT      O90493   5.420   5.721   8.483
30084WAT     H190494   5.447   5.693   8.575
30084WAT     H290495   5.436   5.646   8.419
30085WAT      O90496   1.222   6.895   5.156
30085WAT     H190497   1.207   6.970   5.220
30085WAT     H290498   1.190   6.809   5.197
30086WAT      O90499   4.917   3.400   8.266
30086WAT     H190500   4.880   3.431   8.353
30086WAT     H290501   4.931   3.479   8.206
30087WAT      O90502   2.991   1.536   8.131
30087WAT     H190503   2.896   1.553   8.157
30087WAT     H290504   3.014   1.441   8.148
30088WAT      O90505   0.606   6.465   6.443
30088WAT     H190506   0.570   6.484   6.352
30088WAT     H290507   0.673   6.391   6.438
30089WAT      O90508   6.802   1.187   1.835
30089WAT     H190509   6.757   1.264   1.790
30089WAT     H290510   6.744   1.153   1.909
30090WAT      O90511   5.746   3.723   7.863
30090WAT     H190512   5.739   3.730   7.962
30090WAT     H290513   5.657   3.742   7.821
30091WAT      O90514   9.191   4.513   6.263
30091WAT     H190515   9.219   4.500   6.167
30091WAT     H290516   9.182   4.611   6.281
30092WAT      O90517   2.991   8.470   0.489
30092WAT     H190518   2.981   8.418   0.404
30092WAT     H290519   2.951   8.561   0.477
30093WAT      O90520   7.568   9.241   2.442
30093WAT     H190521   7.486   9.296   2.456
30093WAT     H290522   7.566   9.200   2.351
30094WAT      O90523   2.881   0.053   7.759
30094WAT     H190524   2.810  -0.008   7.794
30094WAT     H290525   2.961   0.049   7.819
30095WAT      O90526   5.167   6.690   3.598
30095WAT     H190527   5.135   6.785   3.596
30095WAT     H290528   5.219   6.671   3.515
30096WAT      O90529   0.712   7.127   3.834
30096WAT     H190530   0.672   7.116   3.743
30096WAT     H290531   0.809   7.101   3.831
30097WAT      O90532   4.554   5.979   5.457
30097WAT     H190533   4.580   6.030   5.375
30097WAT     H290534   4.476   6.023   5.501
30098WAT      O90535   7.342   6.242   5.190
30098WAT     H190536   7.296   6.270   5.106
30098WAT     H290537   7.273   6.219   5.259
30099WAT      O90538   3.754   9.593   3.780
30099WAT     H190539   3.684   9.555   3.720
30099WAT     H290540   3.724   9.681   3.816
30100WAT      O90541   8.301   1.750   3.044
30100WAT     H190542   8.341   1.729   2.955
30100WAT     H290543   8.314   1.847   3.064
30101WAT      O90544   4.443   6.757   5.186
30101WAT     H190545   4.528   6.705   5.196
30101WAT     H290546   4.465   6.854   5.170
30102WAT      O90547   5.269   8.108   6.435
30102WAT     H190548   5.253   8.043   6.361
30102WAT     H290549   5.189   8.113   6.494
30103WAT      O90550   7.890   2.376   2.455
30103WAT     H190551   7.920   2.281   2.459
30103WAT     H290552   7.831   2.396   2.533
30104WAT      O90553   3.779   9.016   2.320
30104WAT     H190554   3.828   8.943   2.368
30104WAT     H290555   3.837   9.097   2.314
30105WAT      O90556   6.182   1.231   8.082
30105WAT     H190557   6.152   1.203   8.173
30105WAT     H290558   6.196   1.149   8.025
30106WAT      O90559   8.154   9.601   7.449
30106WAT     H190560   8.220   9.621   7.522
30106WAT     H290561   8.164   9.505   7.422
30107WAT      O90562   2.309   4.617   2.039
30107WAT     H190563   2.323   4.532   2.090
30107WAT     H290564   2.261   4.682   2.097
30108WAT      O90565   8.985   3.330   8.063
30108WAT     H190566   8.888   3.309   8.078
30108WAT     H290567   9.035   3.246   8.043
30109WAT      O90568   8.388   0.967   8.131
30109WAT     H190569   8.432   0.883   8.161
30109WAT     H290570   8.451   1.019   8.073
30110WAT      O90571   4.356   6.386   5.205
30110WAT     H190572   4.307   6.473   5.217
30110WAT     H290573   4.400   6.386   5.115
30111WAT      O90574   2.804   2.564   7.062
30111WAT     H190575   2.863   2.634   7.022
30111WAT     H290576   2.743   2.607   7.129
30112WAT      O90577   9.311   2.190   5.110
30112WAT     H190578   9.330   2.118   5.044
30112WAT     H290579   9.214   2.187   5.134
30113WAT      O90580   3.564   5.954   4.789
30113WAT     H190581   3.628   6.007   4.734
30113WAT     H290582   3.533   6.008   4.866
30114WAT      O90583   6.221   3.431   4.447
30114WAT     H190584   6.254   3.525   4.441
30114WAT     H290585   6.262   3.386   4.526
30115WAT      O90586   4.877   6.115   4.157
30115WAT     H190587   4.778   6.116   4.162
30115WAT     H290588   4.913   6.208   4.167
30116WAT      O90589   1.193   3.917   2.795
30116WAT     H190590   1.219   3.839   2.739
30116WAT     H290591   1.273   3.949   2.847
30117WAT      O90592   0.283   5.106   8.713
30117WAT     H190593   0.240   5.080   8.626
30117WAT     H290594   0.212   5.132   8.778
30118WAT      O90595   1.615   2.955   0.934
30118WAT     H190596   1.689   2.961   1.002
30118WAT     H290597   1.566   3.042   0.932
30119WAT      O90598   4.216   3.581   8.253
30119WAT     H190599   4.221   3.582   8.353
30119WAT     H290600   4.196   3.488   8.222
30120WAT      O90601   8.610   5.675   6.473
30120WAT     H190602   8.593   5.773   6.471
30120WAT     H290603   8.644   5.646   6.383
30121WAT      O90604   7.006   5.581   6.857
30121WAT     H190605   6.960   5.500   6.893
30121WAT     H290606   6.962   5.664   6.892
30122WAT      O90607   8.494   3.962   8.090
30122WAT     H190608   8.547   3.993   8.011
30122WAT     H290609   8.547   3.975   8.174
30123WAT      O90610   9.514   1.734   0.200
30123WAT     H190611   9.463   1.810   0.239
30123WAT     H290612   9.500   1.652   0.256
30124WAT      O90613   8.956   5.756   0.489
30124WAT     H190614   8.957   5.668   0.440
30124WAT     H290615   9.040   5.765   0.541
30125WAT      O90616   8.840   4.160   0.663
30125WAT     H190617   8.909   4.218   0.708
30125WAT     H290618   8.886   4.094   0.603
30126WAT      O90619   5.877   6.318   4.071
30126WAT     H190620   5.801   6.289   4.013
30126WAT     H290621   5.906   6.241   4.128
30127WAT      O90622   8.989   8.521   2.120
30127WAT     H190623   9.057   8.489   2.185
30127WAT     H290624   8.923   8.581   2.166
30128WAT      O90625   8.608   6.607   9.311
30128WAT     H190626   8.565   6.516   9.306
30128WAT     H290627   8.648   6.620   9.402
30129WAT      O90628   6.823   7.305   7.740
30129WAT     H190629   6.756   7.352   7.797
30129WAT     H290630   6.785   7.218   7.707
30130WAT      O90631   8.324   3.447   1.435
30130WAT     H190632   8.321   3.370   1.499
30130WAT     H290633   8.287   3.529   1.481
30131WAT      O90634   6.538   4.167   6.910
30131WAT     H190635   6.619   4.110   6.921
30131WAT     H290636   6.564   4.255   6.870
30132WAT      O90637   3.605   4.818   8.120
30132WAT     H190638   3.671   4.882   8.081
30132WAT     H290639   3.651   4.761   8.188
30133WAT      O90640   3.873   1.987   9.537
30133WAT     H190641   3.915   1.955   9.451
30133WAT     H290642   3.809   2.062   9.517
30134WAT      O90643   1.859   1.240   1.386
30134WAT     H190644   1.924   1.187   1.442
30134WAT     H290645   1.766   1.209   1.405
30135WAT      O90646   3.454   2.653   0.679
30135WAT     H190647   3.507   2.683   0.758
30135WAT     H290648   3.374   2.712   0.668
30136WAT      O90649   6.302   8.919   0.742
30136WAT     H190650   6.209   8.886   0.725
30136WAT     H290651   6.322   8.995   0.680
30137WAT      O90652   6.156   4.475   0.533
30137WAT     H190653   6.193   4.466   0.441
30137WAT     H290654   6.062   4.441   0.535
30138WAT      O90655   6.204   8.289   1.088
30138WAT     H190656   6.198   8.222   1.015
30138WAT     H290657   6.260   8.366   1.058
30139WAT      O90658   6.875   9.017   1.066
30139WAT     H190659   6.910   9.105   1.100
30139WAT     H290660   6.866   8.953   1.142
30140WAT      O90661   2.186   0.679   0.043
30140WAT     H190662   2.097   0.636   0.026
30140WAT     H290663   2.192   0.764  -0.009
30141WAT      O90664   6.087   1.923   6.897
30141WAT     H190665   6.148   1.844   6.903
30141WAT     H290666   6.102   1.984   6.975
30142WAT      O90667   7.728   8.807   8.379
30142WAT     H190668   7.687   8.808   8.470
30142WAT     H290669   7.788   8.728   8.370
30143WAT      O90670   2.677   0.394   8.906
30143WAT     H190671   2.659   0.431   8.815
30143WAT     H290672   2.693   0.295   8.900
30144WAT      O90673   1.137   9.276   8.068
30144WAT     H190674   1.072   9.261   8.143
30144WAT     H290675   1.105   9.228   7.986
30145WAT      O90676   0.525   9.725   6.707
30145WAT     H190677   0.507   9.636   6.748
30145WAT     H290678   0.595   9.716   6.636
30146WAT      O90679   5.480   2.623   4.141
30146WAT     H190680   5.400   2.563   4.132
30146WAT     H290681   5.543   2.584   4.208
30147WAT      O90682   4.716   3.527   3.880
30147WAT     H190683   4.785   3.599   3.889
30147WAT     H290684   4.756   3.448   3.834
30148WAT      O90685   0.651   5.146   2.095
30148WAT     H190686   0.625   5.139   1.998
30148WAT     H290687   0.625   5.061   2.142
30149WAT      O90688   1.022   4.908   0.316
30149WAT     H190689   1.112   4.931   0.354
30149WAT     H290690   1.034   4.855   0.232
30150WAT      O90691   1.730   4.559   7.117
30150WAT     H190692   1.828   4.562   7.136
30150WAT     H290693   1.716   4.547   7.018
30151WAT      O90694   6.509   8.642   4.779
30151WAT     H190695   6.540   8.694   4.699
30151WAT     H290696   6.517   8.699   4.861
30152WAT      O90697   3.565   6.926   8.426
30152WAT     H190698   3.479   6.875   8.439
30152WAT     H290699   3.551   6.998   8.358
30153WAT      O90700   9.833   3.465   9.877
30153WAT     H190701   9.867   3.373   9.897
30153WAT     H290702   9.785   3.464   9.789
30154WAT      O90703   2.755   3.213   7.534
30154WAT     H190704   2.736   3.241   7.628
30154WAT     H290705   2.736   3.116   7.524
30155WAT      O90706   9.310   0.843   1.384
30155WAT     H190707   9.238   0.903   1.350
30155WAT     H290708   9.393   0.897   1.400
30156WAT      O90709   8.867   2.851   0.934
30156WAT     H190710   8.884   2.896   0.846
30156WAT     H290711   8.828   2.760   0.919
30157WAT      O90712   6.537   8.441   6.766
30157WAT     H190713   6.606   8.435   6.694
30157WAT     H290714   6.541   8.359   6.823
30158WAT      O90715   1.028   3.634   9.528
30158WAT     H190716   1.074   3.658   9.442
30158WAT     H290717   0.933   3.608   9.508
30159WAT      O90718   3.533   2.376   8.233
30159WAT     H190719   3.468   2.425   8.290
30159WAT     H290720   3.485   2.328   8.159
30160WAT      O90721   5.068   6.639   4.417
30160WAT     H190722   5.051   6.542   4.431
30160WAT     H290723   5.167   6.657   4.423
30161WAT      O90724   2.705   5.082   2.484
30161WAT     H190725   2.629   5.068   2.547
30161WAT     H290726   2.764   5.001   2.485
30162WAT      O90727   9.297   8.000   6.246
30162WAT     H190728   9.373   8.044   6.293
30162WAT     H290729   9.311   7.901   6.246
30163WAT      O90730   4.697   1.962   5.237
30163WAT     H190731   4.657   1.873   5.213
30163WAT     H290732   4.796   1.952   5.251
30164WAT      O90733   1.615   9.184   4.592
30164WAT     H190734   1.534   9.129   4.615
30164WAT     H290735   1.639   9.167   4.496
30165WAT      O90736   4.021   8.102   2.740
30165WAT     H190737   4.081   8.044   2.794
30165WAT     H290738   3.932   8.057   2.729
30166WAT      O90739   2.099   9.784   8.819
30166WAT     H190740   2.084   9.685   8.810
30166WAT     H290741   2.043   9.832   8.752
30167WAT      O90742   3.930   4.838   1.686
30167WAT     H190743   4.018   4.864   1.647
30167WAT     H290744   3.939   4.752   1.736
30168WAT      O90745   4.479   5.060   8.096
30168WAT     H190746   4.506   5.154   8.072
30168WAT     H290747   4.496   5.044   8.193
30169WAT      O90748   1.770   3.543   7.073
30169WAT     H190749   1.824   3.464   7.042
30169WAT     H290750   1.674   3.518   7.078
30170WAT      O90751   8.585   8.227   0.538
30170WAT     H190752   8.624   8.317   0.558
30170WAT     H290753   8.658   8.160   0.532
30171WAT      O90754   4.712   8.688   1.028
30171WAT     H190755   4.649   8.763   1.009
30171WAT     H290756   4.663   8.601   1.018
30172WAT      O90757   8.855   0.857   1.266
30172WAT     H190758   8.805   0.869   1.181
30172WAT     H290759   8.858   0.760   1.290
30173WAT      O90760   3.935   4.428   0.287
30173WAT     H190761   3.987   4.499   0.240
30173WAT     H290762   3.845   4.464   0.313
30174WAT      O90763   4.882   2.535   4.653
30174WAT     H190764   4.926   2.447   4.637
30174WAT     H290765   4.930   2.606   4.601
30175WAT      O90766   7.972   1.780   7.187
30175WAT     H190767   7.946   1.870   7.152
30175WAT     H290768   8.054   1.788   7.244
30176WAT      O90769   9.301   1.903   4.727
30176WAT     H190770   9.277   1.885   4.822
30176WAT     H290771   9.257   1.835   4.668
30177WAT      O90772   2.613   3.740   8.984
30177WAT     H190773   2.700   3.723   9.032
30177WAT     H290774   2.584   3.834   9.001
30178WAT      O90775   3.158   9.489   7.963
30178WAT     H190776   3.205   9.415   8.012
30178WAT     H290777   3.130   9.457   7.873
30179WAT      O90778   3.359   8.939   5.575
30179WAT     H190779   3.330   8.982   5.489
30179WAT     H290780   3.457   8.918   5.571
30180WAT      O90781   1.626   5.201   1.684
30180WAT     H190782   1.672   5.286   1.661
30180WAT     H290783   1.554   5.182   1.617
30181WAT      O90784   7.210   2.710   9.187
30181WAT     H190785   7.217   2.770   9.108
30181WAT     H290786   7.175   2.761   9.265
30182WAT      O90787   6.287   1.239   5.204
30182WAT     H190788   6.303   1.146   5.235
30182WAT     H290789   6.205   1.276   5.250
30183WAT      O90790   6.787   4.721   1.067
30183WAT     H190791   6.696   4.685   1.089
30183WAT     H290792   6.799   4.722   0.968
30184WAT      O90793   7.140   9.302   4.403
30184WAT     H190794   7.203   9.288   4.326
30184WAT     H290795   7.102   9.395   4.399
30185WAT      O90796   6.503   1.427   6.703
30185WAT     H190797   6.458   1.424   6.614
30185WAT     H290798   6.448   1.482   6.767
30186WAT      O90799   8.619   9.285   6.715
30186WAT     H190800   8.649   9.330   6.799
30186WAT     H290801   8.638   9.345   6.637
30187WAT      O90802   6.035   5.685   5.916
30187WAT     H190803   6.134   5.688   5.899
30187WAT     H290804   5.989   5.648   5.835
30188WAT      O90805   7.633   0.990   9.505
30188WAT     H190806   7.603   0.921   9.570
30188WAT     H290807   7.648   1.077   9.552
30189WAT      O90808   0.803   8.260   0.676
30189WAT     H190809   0.807   8.360   0.686
30189WAT     H290810   0.886   8.228   0.630
30190WAT      O90811   3.099   4.807   1.233
30190WAT     H190812   3.147   4.867   1.297
30190WAT     H290813   3.003   4.798   1.260
30191WAT      O90814   0.969   2.374   7.497
30191WAT     H190815   0.946   2.320   7.578
30191WAT     H290816   0.912   2.344   7.420
30192WAT      O90817   2.728   7.830   1.964
30192WAT     H190818   2.646   7.777   1.943
30192WAT     H290819   2.809   7.780   1.932
30193WAT      O90820   9.228   8.383   3.221
30193WAT     H190821   9.310   8.325   3.224
30193WAT     H290822   9.227   8.434   3.135
30194WAT      O90823   1.908   9.189   1.811
30194WAT     H190824   1.829   9.246   1.833
30194WAT     H290825   1.891   9.138   1.727
30195WAT      O90826   6.230   9.436   3.104
30195WAT     H190827   6.258   9.523   3.064
30195WAT     H290828   6.301   9.367   3.089
30196WAT      O90829   2.620   0.697   1.418
30196WAT     H190830   2.533   0.667   1.378
30196WAT     H290831   2.682   0.726   1.345
30197WAT      O90832   3.361   7.505   7.686
30197WAT     H190833   3.456   7.477   7.683
30197WAT     H290834   3.342   7.549   7.774
30198WAT      O90835   8.007   2.130   0.821
30198WAT     H190836   7.932   2.079   0.864
30198WAT     H290837   7.969   2.195   0.756
30199WAT      O90838   0.658   1.761   2.675
30199WAT     H190839   0.696   1.826   2.740
30199WAT     H290840   0.675   1.668   2.706
30200WAT      O90841   8.020   7.372   6.571
30200WAT     H190842   8.063   7.285   6.551
30200WAT     H290843   8.029   7.433   6.492
30201WAT      O90844   9.217   7.502   4.135
30201WAT     H190845   9.121   7.473   4.131
30201WAT     H290846   9.271   7.448   4.070
30202WAT      O90847   7.248   0.714   2.854
30202WAT     H190848   7.329   0.702   2.798
30202WAT     H290849   7.218   0.809   2.850
30203WAT      O90850   1.315   2.217   2.815
30203WAT     H190851   1.215   2.213   2.813
30203WAT     H290852   1.345   2.309   2.791
30204WAT      O90853   6.782   8.155   8.094
30204WAT     H190854   6.737   8.204   8.019
30204WAT     H290855   6.735   8.068   8.110
30205WAT      O90856   1.021   6.422   9.752
30205WAT     H190857   1.079   6.473   9.816
30205WAT     H290858   1.074   6.349   9.709
30206WAT      O90859   6.804   4.326   9.233
30206WAT     H190860   6.827   4.272   9.152
30206WAT     H290861   6.872   4.310   9.304
30207WAT      O90862   8.955   7.050   8.058
30207WAT     H190863   8.916   7.054   7.966
30207WAT     H290864   9.019   6.973   8.064
30208WAT      O90865   0.433   4.368   5.941
30208WAT     H190866   0.475   4.287   5.899
30208WAT     H290867   0.444   4.446   5.879
30209WAT      O90868   9.510   0.528   7.362
30209WAT     H190869   9.578   0.493   7.427
30209WAT     H290870   9.452   0.596   7.409
30210WAT      O90871   2.876   0.285   0.930
30210WAT     H190872   2.800   0.304   0.867
30210WAT     H290873   2.940   0.361   0.928
30211WAT      O90874   8.370   4.238   4.780
30211WAT     H190875   8.275   4.244   4.811
30211WAT     H290876   8.403   4.144   4.793
30212WAT      O90877   3.861   7.207   3.634
30212WAT     H190878   3.837   7.295   3.676
30212WAT     H290879   3.923   7.158   3.694
30213WAT      O90880   6.951   2.058   5.871
30213WAT     H190881   6.862   2.096   5.844
30213WAT     H290882   6.971   1.977   5.815
30214WAT      O90883   5.538   5.318   1.932
30214WAT     H190884   5.454   5.368   1.911
30214WAT     H290885   5.518   5.221   1.941
30215WAT      O90886   3.703   7.813   8.436
30215WAT     H190887   3.605   7.828   8.448
30215WAT     H290888   3.729   7.835   8.342
30216WAT      O90889   8.631   9.098   9.651
30216WAT     H190890   8.561   9.161   9.685
30216WAT     H290891   8.717   9.112   9.700
30217WAT      O90892   9.371   4.117   5.793
30217WAT     H190893   9.464   4.143   5.819
30217WAT     H290894   9.359   4.128   5.694
30218WAT      O90895   5.687   0.172   2.975
30218WAT     H190896   5.704   0.271   2.975
30218WAT     H290897   5.590   0.156   2.955
30219WAT      O90898   0.583   5.606   0.984
30219WAT     H190899   0.650   5.577   0.916
30219WAT     H290900   0.501   5.549   0.975
30220WAT      O90901   2.428   0.108   6.329
30220WAT     H190902   2.474   0.023   6.355
30220WAT     H290903   2.454   0.134   6.236
30221WAT      O90904   8.774   8.599   1.910
30221WAT     H190905   8.825   8.528   1.959
30221WAT     H290906   8.693   8.625   1.964
30222WAT      O90907   7.848   5.959   8.165
30222WAT     H190908   7.822   5.909   8.082
30222WAT     H290909   7.770   5.961   8.228
30223WAT      O90910   3.968   4.642   8.422
30223WAT     H190911   3.987   4.554   8.467
30223WAT     H290912   3.870   4.650   8.406
30224WAT      O90913   8.627   4.518   5.849
30224WAT     H190914   8.599   4.607   5.884
30224WAT     H290915   8.690   4.475   5.913
30225WAT      O90916   6.016   3.818   2.719
30225WAT     H190917   6.075   3.770   2.783
30225WAT     H290918   6.057   3.906   2.695
30226WAT      O90919   8.674   9.652   8.434
30226WAT     H190920   8.744   9.664   8.504
30226WAT     H290921   8.587   9.628   8.477
30227WAT      O90922   2.908   3.798   7.018
30227WAT     H190923   2.879   3.705   7.040
30227WAT     H290924   2.862   3.829   6.935
30228WAT      O90925   2.612   5.238   3.092
30228WAT     H190926   2.633   5.267   2.999
30228WAT     H290927   2.587   5.318   3.147
30229WAT      O90928   9.658   5.544   6.051
30229WAT     H190929   9.740   5.571   6.001
30229WAT     H290930   9.598   5.493   5.990
30230WAT      O90931   7.024   1.115   1.311
30230WAT     H190932   7.020   1.107   1.211
30230WAT     H290933   7.120   1.119   1.340
30231WAT      O90934   2.675   3.645   1.345
30231WAT     H190935   2.580   3.662   1.372
30231WAT     H290936   2.736   3.694   1.406
30232WAT      O90937   6.110   4.331   8.344
30232WAT     H190938   6.063   4.346   8.430
30232WAT     H290939   6.060   4.264   8.289
30233WAT      O90940   8.470   9.018   2.343
30233WAT     H190941   8.538   8.945   2.331
30233WAT     H290942   8.511   9.093   2.395
30234WAT      O90943   4.398   3.723   1.627
30234WAT     H190944   4.373   3.820   1.628
30234WAT     H290945   4.338   3.674   1.564
30235WAT      O90946   6.523   9.514   0.368
30235WAT     H190947   6.579   9.489   0.446
30235WAT     H290948   6.582   9.543   0.292
30236WAT      O90949   4.384   1.106   9.777
30236WAT     H190950   4.354   1.179   9.716
30236WAT     H290951   4.435   1.145   9.854
30237WAT      O90952   6.205   2.349   6.344
30237WAT     H190953   6.131   2.410   6.317
30237WAT     H290954   6.177   2.299   6.426
30238WAT      O90955   1.204   9.648   9.797
30238WAT     H190956   1.221   9.741   9.830
30238WAT     H290957   1.168   9.592   9.872
30239WAT      O90958   8.193   4.094   0.625
30239WAT     H190959   8.234   4.012   0.586
30239WAT     H290960   8.203   4.171   0.561
30240WAT      O90961   5.443   6.987   3.570
30240WAT     H190962   5.541   6.967   3.562
30240WAT     H290963   5.430   7.086   3.575
30241WAT      O90964   2.605   8.334   9.272
30241WAT     H190965   2.571   8.426   9.293
30241WAT     H290966   2.549   8.266   9.320
30242WAT      O90967   8.042   5.567   7.494
30242WAT     H190968   7.980   5.543   7.569
30242WAT     H290969   8.110   5.495   7.482
30243WAT      O90970   4.956   3.359   2.778
30243WAT     H190971   4.948   3.265   2.810
30243WAT     H290972   5.051   3.377   2.750
30244WAT      O90973   9.738   1.213   1.283
30244WAT     H190974   9.667   1.158   1.327
30244WAT     H290975   9.809   1.236   1.350
30245WAT      O90976   9.798   6.137   2.485
30245WAT     H190977   9.784   6.040   2.464
30245WAT     H290978   9.764   6.192   2.408
30246WAT      O90979   6.451   9.468   3.483
30246WAT     H190980   6.538   9.516   3.495
30246WAT     H290981   6.448   9.388   3.543
30247WAT      O90982   8.149   0.641   5.776
30247WAT     H190983   8.233   0.645   5.830
30247WAT     H290984   8.071   0.663   5.834
30248WAT      O90985   7.515   3.349   6.214
30248WAT     H190986   7.577   3.276   6.243
30248WAT     H290987   7.432   3.345   6.270
30249WAT      O90988   2.038   6.475   9.382
30249WAT     H190989   2.093   6.396   9.406
30249WAT     H290990   1.946   6.466   9.421
30250WAT      O90991   0.903   9.583   3.174
30250WAT     H190992   0.998   9.553   3.179
30250WAT     H290993   0.842   9.504   3.182
30251WAT      O90994   1.449   4.412   6.777
30251WAT     H190995   1.439   4.313   6.767
30251WAT     H290996   1.358   4.454   6.779
30252WAT      O90997   3.678   2.617   2.153
30252WAT     H190998   3.699   2.714   2.148
30252WAT     H290999   3.762   2.564   2.147
30253WAT      O91000   7.937   1.405   0.074
30253WAT     H191001   7.918   1.397   0.172
30253WAT     H291002   8.023   1.358   0.053
30254WAT      O91003   7.684   7.601   5.187
30254WAT     H191004   7.688   7.517   5.134
30254WAT     H291005   7.721   7.586   5.279
30255WAT      O91006   5.223   6.287   3.895
30255WAT     H191007   5.277   6.308   3.813
30255WAT     H291008   5.276   6.230   3.957
30256WAT      O91009   6.642   0.535   6.191
30256WAT     H191010   6.584   0.463   6.229
30256WAT     H291011   6.730   0.496   6.165
30257WAT      O91012   7.613   9.432   3.359
30257WAT     H191013   7.523   9.454   3.322
30257WAT     H291014   7.678   9.505   3.334
30258WAT      O91015   4.473   9.549   7.187
30258WAT     H191016   4.389   9.594   7.156
30258WAT     H291017   4.545   9.617   7.199
30259WAT      O91018   0.131   1.645   8.617
30259WAT     H191019   0.096   1.737   8.598
30259WAT     H291020   0.223   1.636   8.578
30260WAT      O91021   2.539   3.347   9.251
30260WAT     H191022   2.498   3.262   9.218
30260WAT     H291023   2.623   3.366   9.200
30261WAT      O91024   2.514   1.209   5.398
30261WAT     H191025   2.547   1.119   5.371
30261WAT     H291026   2.530   1.224   5.495
30262WAT      O91027   8.544   8.053   1.691
30262WAT     H191028   8.498   8.030   1.777
30262WAT     H291029   8.477   8.079   1.623
30263WAT      O91030   8.810   0.766   2.752
30263WAT     H191031   8.770   0.857   2.753
30263WAT     H291032   8.796   0.724   2.663
30264WAT      O91033   9.578   4.200   6.941
30264WAT     H191034   9.490   4.155   6.959
30264WAT     H291035   9.640   4.134   6.898
30265WAT      O91036   5.635   3.116   6.516
30265WAT     H191037   5.688   3.037   6.546
30265WAT     H291038   5.636   3.121   6.416
30266WAT      O91039   0.386   9.467   2.434
30266WAT     H191040   0.335   9.510   2.360
30266WAT     H291041   0.333   9.391   2.473
30267WAT      O91042   8.650   3.491   3.170
30267WAT     H191043   8.695   3.570   3.127
30267WAT     H291044   8.672   3.489   3.267
30268WAT      O91045   2.542   9.818   2.873
30268WAT     H191046   2.458   9.766   2.890
30268WAT     H291047   2.622   9.759   2.885
30269WAT      O91048   3.622   6.444   2.488
30269WAT     H191049   3.708   6.423   2.443
30269WAT     H291050   3.603   6.375   2.558
30270WAT      O91051   3.965   4.712   0.587
30270WAT     H191052   3.881   4.703   0.640
30270WAT     H291053   4.014   4.624   0.586
30271WAT      O91054   0.275   1.355   3.874
30271WAT     H191055   0.185   1.322   3.901
30271WAT     H291056   0.338   1.344   3.951
30272WAT      O91057   5.961   7.706   8.237
30272WAT     H191058   5.889   7.755   8.286
30272WAT     H291059   5.922   7.625   8.194
30273WAT      O91060   7.942   8.653   8.725
30273WAT     H191061   7.867   8.713   8.696
30273WAT     H291062   7.995   8.626   8.645
30274WAT      O91063   5.848   1.191   3.709
30274WAT     H191064   5.932   1.166   3.756
30274WAT     H291065   5.775   1.129   3.736
30275WAT      O91066   8.986   4.010   8.079
30275WAT     H191067   8.931   3.934   8.112
30275WAT     H291068   8.928   4.071   8.024
30276WAT      O91069   0.258   0.687   1.759
30276WAT     H191070   0.317   0.665   1.837
30276WAT     H291071   0.214   0.604   1.726
30277WAT      O91072   3.710   6.134   0.547
30277WAT     H191073   3.775   6.175   0.611
30277WAT     H291074   3.699   6.194   0.467
30278WAT      O91075   6.776   2.150   3.416
30278WAT     H191076   6.807   2.153   3.511
30278WAT     H291077   6.744   2.058   3.394
30279WAT      O91078   6.545   4.799   1.412
30279WAT     H191079   6.559   4.897   1.398
30279WAT     H291080   6.602   4.768   1.488
30280WAT      O91081   9.226   8.050   4.705
30280WAT     H191082   9.251   8.123   4.768
30280WAT     H291083   9.142   8.006   4.735
30281WAT      O91084   3.015   8.085   4.178
30281WAT     H191085   2.931   8.034   4.194
30281WAT     H291086   3.078   8.029   4.123
30282WAT      O91087   6.750   5.209   8.428
30282WAT     H191088   6.846   5.218   8.402
30282WAT     H291089   6.743   5.174   8.521
30283WAT      O91090   1.653   5.089   8.408
30283WAT     H191091   1.617   5.130   8.492
30283WAT     H291092   1.596   5.118   8.330
30284WAT      O91093   4.144   5.924   2.351
30284WAT     H191094   4.184   5.839   2.385
30284WAT     H291095   4.104   5.909   2.261
30285WAT      O91096   7.574   3.209   7.111
30285WAT     H191097   7.521   3.124   7.118
30285WAT     H291098   7.549   3.256   7.026
30286WAT      O91099   3.985   7.568   7.502
30286WAT     H191100   3.916   7.640   7.488
30286WAT     H291101   4.076   7.608   7.499
30287WAT      O91102   1.595   1.459   2.517
30287WAT     H191103   1.681   1.411   2.498
30287WAT     H291104   1.583   1.533   2.450
30288WAT      O91105   3.521   1.774   5.113
30288WAT     H191106   3.450   1.766   5.183
30288WAT     H291107   3.593   1.706   5.131
30289WAT      O91108   7.691   8.030   1.485
30289WAT     H191109   7.718   8.107   1.428
30289WAT     H291110   7.604   7.993   1.453
30290WAT      O91111   1.709   6.750   4.500
30290WAT     H191112   1.721   6.832   4.443
30290WAT     H291113   1.784   6.745   4.566
30291WAT      O91114   1.965   8.658   1.623
30291WAT     H191115   1.955   8.654   1.722
30291WAT     H291116   1.890   8.607   1.580
30292WAT      O91117   1.707   4.209   7.990
30292WAT     H191118   1.754   4.124   7.966
30292WAT     H291119   1.633   4.190   8.054
30293WAT      O91120   7.348   6.502   5.704
30293WAT     H191121   7.310   6.411   5.723
30293WAT     H291122   7.413   6.527   5.776
30294WAT      O91123   5.544   6.087   1.855
30294WAT     H191124   5.448   6.064   1.872
30294WAT     H291125   5.551   6.140   1.771
30295WAT      O91126   0.770   1.920   7.352
30295WAT     H191127   0.856   1.959   7.384
30295WAT     H291128   0.756   1.831   7.394
30296WAT      O91129   6.414   5.047   0.483
30296WAT     H191130   6.450   5.036   0.575
30296WAT     H291131   6.389   4.957   0.446
30297WAT      O91132   1.062   7.680   3.865
30297WAT     H191133   1.070   7.589   3.825
30297WAT     H291134   1.122   7.687   3.944
30298WAT      O91135   6.984   4.015   1.218
30298WAT     H191136   6.893   4.056   1.215
30298WAT     H291137   7.014   4.008   1.313
30299WAT      O91138   1.094   6.499   2.630
30299WAT     H191139   1.009   6.515   2.579
30299WAT     H291140   1.095   6.406   2.666
30300WAT      O91141   9.863   9.617   5.349
30300WAT     H191142   9.819   9.595   5.262
30300WAT     H291143   9.945   9.672   5.332
30301WAT      O91144   5.752   3.693   9.350
30301WAT     H191145   5.682   3.648   9.294
30301WAT     H291146   5.759   3.789   9.323
30302WAT      O91147   9.505   2.455   7.776
30302WAT     H191148   9.483   2.369   7.729
30302WAT     H291149   9.603   2.472   7.771
30303WAT      O91150   4.556   5.167   4.503
30303WAT     H191151   4.565   5.237   4.432
30303WAT     H291152   4.542   5.078   4.460
30304WAT      O91153   1.624   1.728   3.536
30304WAT     H191154   1.616   1.679   3.450
30304WAT     H291155   1.720   1.745   3.557
30305WAT      O91156   1.537   6.523   0.807
30305WAT     H191157   1.522   6.601   0.867
30305WAT     H291158   1.460   6.514   0.743
30306WAT      O91159   4.561   1.863   2.240
30306WAT     H191160   4.550   1.961   2.255
30306WAT     H291161   4.511   1.835   2.158
30307WAT      O91162   7.962   1.915   5.696
30307WAT     H191163   8.043   1.888   5.645
30307WAT     H291164   7.901   1.836   5.707
30308WAT      O91165   6.470   8.176   0.157
30308WAT     H191166   6.422   8.092   0.135
30308WAT     H291167   6.479   8.232   0.075
30309WAT      O91168   6.822   0.487   2.048
30309WAT     H191169   6.722   0.487   2.058
30309WAT     H291170   6.858   0.574   2.082
30310WAT      O91171   6.672   3.548   6.565
30310WAT     H191172   6.598   3.516   6.624
30310WAT     H291173   6.675   3.648   6.565
30311WAT      O91174   8.916   0.977   3.718
30311WAT     H191175   8.981   0.996   3.792
30311WAT     H291176   8.823   0.979   3.754
30312WAT      O91177   4.764   4.500   2.218
30312WAT     H191178   4.723   4.528   2.304
30312WAT     H291179   4.707   4.531   2.142
30313WAT      O91180   9.001   0.136   4.198
30313WAT     H191181   9.045   0.151   4.110
30313WAT     H291182   8.922   0.076   4.186
30314WAT      O91183   2.594   9.514   8.274
30314WAT     H191184   2.549   9.541   8.360
30314WAT     H291185   2.622   9.419   8.279
30315WAT      O91186   6.905   3.627   7.027
30315WAT     H191187   6.876   3.533   7.009
30315WAT     H291188   6.900   3.645   7.125
30316WAT      O91189   2.859   5.372   7.760
30316WAT     H191190   2.905   5.290   7.795
30316WAT     H291191   2.816   5.351   7.672
30317WAT      O91192   0.493   7.752   1.098
30317WAT     H191193   0.454   7.844   1.091
30317WAT     H291194   0.565   7.752   1.167
30318WAT      O91195   9.627   2.203   5.850
30318WAT     H191196   9.611   2.234   5.756
30318WAT     H291197   9.721   2.171   5.859
30319WAT      O91198   8.324   0.470   1.129
30319WAT     H191199   8.421   0.456   1.110
30319WAT     H291200   8.301   0.567   1.117
30320WAT      O91201   0.057   2.933   4.012
30320WAT     H191202   0.053   3.022   3.965
30320WAT     H291203   0.087   2.863   3.947
30321WAT      O91204   0.439   1.812   3.305
30321WAT     H191205   0.429   1.911   3.293
30321WAT     H291206   0.369   1.778   3.368
30322WAT      O91207   9.412   8.268   0.208
30322WAT     H191208   9.357   8.309   0.136
30322WAT     H291209   9.458   8.340   0.260
30323WAT      O91210   7.830   2.010   6.717
30323WAT     H191211   7.793   1.987   6.627
30323WAT     H291212   7.766   1.980   6.788
30324WAT      O91213   6.347   4.304   2.342
30324WAT     H191214   6.292   4.388   2.340
30324WAT     H291215   6.444   4.327   2.337
30325WAT      O91216   5.514   0.655   4.988
30325WAT     H191217   5.438   0.684   5.047
30325WAT     H291218   5.571   0.734   4.965
30326WAT      O91219   1.323   2.595   6.212
30326WAT     H191220   1.392   2.526   6.193
30326WAT     H291221   1.260   2.601   6.134
30327WAT      O91222   3.410   1.184   2.035
30327WAT     H191223   3.466   1.108   2.068
30327WAT     H291224   3.316   1.152   2.021
30328WAT      O91225   7.305   2.165   8.013
30328WAT     H191226   7.206   2.166   8.002
30328WAT     H291227   7.345   2.245   7.968
30329WAT      O91228   5.380   8.275   9.460
30329WAT     H191229   5.393   8.325   9.545
30329WAT     H291230   5.430   8.188   9.464
30330WAT      O91231   4.443   5.721   0.437
30330WAT     H191232   4.421   5.652   0.368
30330WAT     H291233   4.526   5.695   0.486
30331WAT      O91234   7.155   2.795   8.410
30331WAT     H191235   7.162   2.777   8.312
30331WAT     H291236   7.145   2.893   8.425
30332WAT      O91237   8.164   3.164   6.768
30332WAT     H191238   8.201   3.212   6.847
30332WAT     H291239   8.099   3.223   6.720
30333WAT      O91240   8.056   3.804   8.860
30333WAT     H191241   8.011   3.737   8.802
30333WAT     H291242   8.098   3.757   8.938
30334WAT      O91243   5.665   4.444   7.107
30334WAT     H191244   5.578   4.478   7.140
30334WAT     H291245   5.661   4.344   7.097
30335WAT      O91246   6.116   0.121   6.016
30335WAT     H191247   6.168   0.092   6.097
30335WAT     H291248   6.088   0.216   6.027
30336WAT      O91249   2.383   0.400   6.868
30336WAT     H191250   2.455   0.331   6.867
30336WAT     H291251   2.368   0.434   6.775
30337WAT      O91252   6.343   5.454   7.260
30337WAT     H191253   6.278   5.499   7.199
30337WAT     H291254   6.431   5.443   7.214
30338WAT      O91255   5.873   7.375   9.211
30338WAT     H191256   5.959   7.362   9.262
30338WAT     H291257   5.874   7.464   9.167
30339WAT      O91258   9.683   2.650   5.534
30339WAT     H191259   9.712   2.555   5.546
30339WAT     H291260   9.751   2.710   5.575
30340WAT      O91261   4.041   8.947   4.265
30340WAT     H191262   4.121   8.888   4.250
30340WAT     H291263   4.071   9.041   4.279
30341WAT      O91264   3.114   7.126   3.901
30341WAT     H191265   3.018   7.154   3.908
30341WAT     H291266   3.169   7.180   3.964
30342WAT      O91267   5.368   4.435   7.098
30342WAT     H191268   5.404   4.448   7.006
30342WAT     H291269   5.346   4.338   7.112
30343WAT      O91270   3.265   6.033   2.178
30343WAT     H191271   3.291   6.055   2.272
30343WAT     H291272   3.265   6.117   2.123
30344WAT      O91273   6.895   5.611   3.871
30344WAT     H191274   6.986   5.608   3.829
30344WAT     H291275   6.834   5.667   3.815
30345WAT      O91276   3.265   4.413   1.856
30345WAT     H191277   3.256   4.494   1.798
30345WAT     H291278   3.304   4.440   1.945
30346WAT      O91279   1.282   3.131   1.641
30346WAT     H191280   1.219   3.206   1.659
30346WAT     H291281   1.372   3.167   1.616
30347WAT      O91282   8.521   6.388   0.162
30347WAT     H191283   8.572   6.464   0.122
30347WAT     H291284   8.453   6.423   0.226
30348WAT      O91285   3.111   0.505   2.594
30348WAT     H191286   3.042   0.470   2.658
30348WAT     H291287   3.073   0.506   2.502
30349WAT      O91288   7.912   5.424   0.966
30349WAT     H191289   7.878   5.335   0.996
30349WAT     H291290   7.946   5.475   1.046
30350WAT      O91291   5.664   4.843   9.568
30350WAT     H191292   5.711   4.878   9.487
30350WAT     H291293   5.645   4.919   9.630
30351WAT      O91294   5.793   6.026   7.239
30351WAT     H191295   5.796   6.092   7.164
30351WAT     H291296   5.739   6.065   7.315
30352WAT      O91297   6.843   5.846   8.340
30352WAT     H191298   6.862   5.759   8.386
30352WAT     H291299   6.855   5.921   8.406
30353WAT      O91300   1.478   4.574   9.537
30353WAT     H191301   1.528   4.638   9.597
30353WAT     H291302   1.398   4.539   9.586
30354WAT      O91303   1.405   1.481   8.172
30354WAT     H191304   1.475   1.551   8.188
30354WAT     H291305   1.445   1.390   8.181
30355WAT      O91306   4.803   4.958   2.414
30355WAT     H191307   4.735   4.994   2.478
30355WAT     H291308   4.838   5.034   2.358
30356WAT      O91309   5.871   6.629   2.196
30356WAT     H191310   5.803   6.572   2.150
30356WAT     H291311   5.947   6.647   2.134
30357WAT      O91312   7.355   0.945   7.034
30357WAT     H191313   7.315   1.028   6.994
30357WAT     H291314   7.429   0.912   6.976
30358WAT      O91315   1.133   0.410   1.315
30358WAT     H191316   1.048   0.357   1.323
30358WAT     H291317   1.199   0.358   1.260
30359WAT      O91318   7.220   8.558   4.512
30359WAT     H191319   7.178   8.499   4.580
30359WAT     H291320   7.299   8.605   4.552
30360WAT      O91321   6.514   3.325   3.543
30360WAT     H191322   6.436   3.305   3.602
30360WAT     H291323   6.540   3.243   3.491
30361WAT      O91324   9.675   2.494   6.463
30361WAT     H191325   9.701   2.514   6.558
30361WAT     H291326   9.591   2.543   6.441
30362WAT      O91327   6.706   3.046   6.864
30362WAT     H191328   6.671   3.126   6.912
30362WAT     H291329   6.630   2.994   6.826
30363WAT      O91330   6.724   7.829   8.913
30363WAT     H191331   6.760   7.880   8.992
30363WAT     H291332   6.776   7.745   8.902
30364WAT      O91333   8.174   5.555   3.938
30364WAT     H191334   8.123   5.538   4.022
30364WAT     H291335   8.269   5.524   3.950
30365WAT      O91336   8.311   4.429   3.931
30365WAT     H191337   8.383   4.465   3.871
30365WAT     H291338   8.270   4.348   3.890
30366WAT      O91339   0.230   6.814   0.950
30366WAT     H191340   0.149   6.856   0.990
30366WAT     H291341   0.227   6.824   0.850
30367WAT      O91342   9.788   8.577   3.100
30367WAT     H191343   9.820   8.661   3.056
30367WAT     H291344   9.822   8.498   3.049
30368WAT      O91345   7.131   8.601   2.200
30368WAT     H191346   7.081   8.548   2.269
30368WAT     H291347   7.228   8.603   2.225
30369WAT      O91348   8.898   5.688   6.789
30369WAT     H191349   8.958   5.681   6.710
30369WAT     H291350   8.812   5.640   6.771
30370WAT      O91351   4.593   0.987   4.445
30370WAT     H191352   4.534   1.060   4.409
30370WAT     H291353   4.681   0.989   4.399
30371WAT      O91354   8.662   9.622   3.848
30371WAT     H191355   8.576   9.583   3.879
30371WAT     H291356   8.695   9.570   3.769
30372WAT      O91357   3.064   5.123   5.184
30372WAT     H191358   3.133   5.130   5.256
30372WAT     H291359   3.008   5.206   5.184
30373WAT      O91360   4.891   8.507   4.248
30373WAT     H191361   4.821   8.489   4.179
30373WAT     H291362   4.913   8.423   4.297
30374WAT      O91363   5.119   9.241   0.189
30374WAT     H191364   5.042   9.287   0.144
30374WAT     H291365   5.203   9.293   0.174
30375WAT      O91366   7.968   7.015   0.621
30375WAT     H191367   7.981   6.977   0.712
30375WAT     H291368   7.927   6.946   0.562
30376WAT      O91369   0.669   6.049   9.727
30376WAT     H191370   0.692   6.146   9.735
30376WAT     H291371   0.632   6.032   9.635
30377WAT      O91372   2.348   1.835   1.482
30377WAT     H191373   2.352   1.924   1.528
30377WAT     H291374   2.427   1.780   1.508
30378WAT      O91375   9.653   3.537   7.704
30378WAT     H191376   9.719   3.465   7.681
30378WAT     H291377   9.565   3.517   7.662
30379WAT      O91378   1.739   2.368   8.104
30379WAT     H191379   1.735   2.271   8.079
30379WAT     H291380   1.688   2.421   8.036
30380WAT      O91381   1.814   4.018   4.903
30380WAT     H191382   1.764   4.092   4.949
30380WAT     H291383   1.899   4.000   4.952
30381WAT      O91384   1.081   7.706   4.426
30381WAT     H191385   0.991   7.697   4.469
30381WAT     H291386   1.153   7.691   4.494
30382WAT      O91387   8.833   2.493   8.799
30382WAT     H191388   8.836   2.583   8.755
30382WAT     H291389   8.919   2.445   8.783
30383WAT      O91390   7.856   0.722   5.300
30383WAT     H191391   7.866   0.693   5.395
30383WAT     H291392   7.759   0.724   5.276
30384WAT      O91393   7.074   2.165   0.982
30384WAT     H191394   7.066   2.234   1.054
30384WAT     H291395   7.012   2.187   0.908
30385WAT      O91396   4.446   0.677   8.918
30385WAT     H191397   4.348   0.665   8.900
30385WAT     H291398   4.459   0.718   9.008
30386WAT      O91399   6.289   5.709   5.891
30386WAT     H191400   6.363   5.775   5.875
30386WAT     H291401   6.328   5.619   5.910
30387WAT      O91402   5.747   3.877   5.293
30387WAT     H191403   5.720   3.853   5.387
30387WAT     H291404   5.831   3.931   5.296
30388WAT      O91405   4.726   1.190   2.309
30388WAT     H191406   4.720   1.138   2.223
30388WAT     H291407   4.680   1.278   2.297
30389WAT      O91408   3.409   5.045   0.116
30389WAT     H191409   3.418   5.087   0.026
30389WAT     H291410   3.497   5.006   0.144
30390WAT      O91411   0.429   4.047   7.850
30390WAT     H191412   0.390   4.115   7.912
30390WAT     H291413   0.363   4.026   7.778
30391WAT      O91414   7.076   7.578   0.025
30391WAT     H191415   7.110   7.567  -0.068
30391WAT     H291416   7.047   7.672   0.039
30392WAT      O91417   9.568   7.910   9.807
30392WAT     H191418   9.610   7.946   9.891
30392WAT     H291419   9.490   7.967   9.781
30393WAT      O91420   2.094   1.319   2.466
30393WAT     H191421   2.133   1.401   2.507
30393WAT     H291422   2.076   1.251   2.538
30394WAT      O91423   3.899   6.215   3.357
30394WAT     H191424   3.824   6.149   3.357
30394WAT     H291425   3.980   6.173   3.399
30395WAT      O91426   1.127   0.172   4.413
30395WAT     H191427   1.118   0.229   4.331
30395WAT     H291428   1.222   0.174   4.444
30396WAT      O91429   0.569   9.823   0.726
30396WAT     H191430   0.536   9.917   0.730
30396WAT     H291431   0.492   9.761   0.715
30397WAT      O91432   5.235   2.911   9.102
30397WAT     H191433   5.283   2.930   9.189
30397WAT     H291434   5.144   2.876   9.122
30398WAT      O91435   4.982   4.148   9.048
30398WAT     H191436   4.905   4.205   9.077
30398WAT     H291437   5.041   4.201   8.987
30399WAT      O91438   3.685   0.262   1.291
30399WAT     H191439   3.667   0.351   1.334
30399WAT     H291440   3.757   0.272   1.223
30400WAT      O91441   3.253   7.233   8.307
30400WAT     H191442   3.260   7.196   8.214
30400WAT     H291443   3.344   7.263   8.337
30401WAT      O91444   3.760   9.435   2.716
30401WAT     H191445   3.842   9.391   2.681
30401WAT     H291446   3.782   9.527   2.749
30402WAT      O91447   0.084   4.416   0.539
30402WAT     H191448   0.101   4.479   0.615
30402WAT     H291449   0.169   4.399   0.489
30403WAT      O91450   2.518   6.338   7.983
30403WAT     H191451   2.564   6.408   8.039
30403WAT     H291452   2.514   6.252   8.034
30404WAT      O91453   2.780   2.617   4.284
30404WAT     H191454   2.827   2.571   4.208
30404WAT     H291455   2.848   2.653   4.348
30405WAT      O91456   7.662   8.930   5.848
30405WAT     H191457   7.587   8.867   5.870
30405WAT     H291458   7.647   9.017   5.896
30406WAT      O91459   8.783   8.562   3.296
30406WAT     H191460   8.811   8.567   3.200
30406WAT     H291461   8.857   8.597   3.354
30407WAT      O91462   3.022   2.209   9.539
30407WAT     H191463   2.934   2.255   9.551
30407WAT     H291464   3.035   2.142   9.612
30408WAT      O91465   3.681   8.723   4.662
30408WAT     H191466   3.737   8.672   4.597
30408WAT     H291467   3.633   8.796   4.615
30409WAT      O91468   9.026   9.751   0.420
30409WAT     H191469   9.106   9.694   0.436
30409WAT     H291470   8.960   9.738   0.495
30410WAT      O91471   6.243   5.234   1.468
30410WAT     H191472   6.207   5.281   1.549
30410WAT     H291473   6.342   5.219   1.480
30411WAT      O91474   6.870   6.398   5.323
30411WAT     H191475   6.862   6.332   5.398
30411WAT     H291476   6.930   6.360   5.252
30412WAT      O91477   9.140   2.330   8.260
30412WAT     H191478   9.137   2.415   8.208
30412WAT     H291479   9.083   2.261   8.215
30413WAT      O91480   6.496   4.037   7.405
30413WAT     H191481   6.519   4.129   7.435
30413WAT     H291482   6.408   4.038   7.358
30414WAT      O91483   0.985   9.653   8.742
30414WAT     H191484   1.055   9.659   8.814
30414WAT     H291485   0.966   9.557   8.722
30415WAT      O91486   3.651   9.341   2.335
30415WAT     H191487   3.750   9.332   2.349
30415WAT     H291488   3.628   9.438   2.328
30416WAT      O91489   4.414   0.035   8.727
30416WAT     H191490   4.447   0.128   8.744
30416WAT     H291491   4.402   0.022   8.628
30417WAT      O91492   5.709   9.370   0.332
30417WAT     H191493   5.709   9.461   0.291
30417WAT     H291494   5.791   9.320   0.302
30418WAT      O91495   6.876   4.006   0.207
30418WAT     H191496   6.924   3.919   0.214
30418WAT     H291497   6.819   4.019   0.288
30419WAT      O91498   0.281   6.126   3.881
30419WAT     H191499   0.344   6.203   3.873
30419WAT     H291500   0.188   6.160   3.894
30420WAT      O91501   6.270   7.971   2.028
30420WAT     H191502   6.267   7.888   2.085
30420WAT     H291503   6.245   7.948   1.934
30421WAT      O91504   9.116   8.618   5.812
30421WAT     H191505   9.026   8.661   5.805
30421WAT     H291506   9.175   8.675   5.869
30422WAT      O91507   4.117   1.627   8.814
30422WAT     H191508   4.116   1.580   8.725
30422WAT     H291509   4.196   1.689   8.818
30423WAT      O91510   8.509   4.889   6.197
30423WAT     H191511   8.555   4.968   6.238
30423WAT     H291512   8.413   4.888   6.225
30424WAT      O91513   5.035   4.993   0.304
30424WAT     H191514   5.097   4.968   0.379
30424WAT     H291515   4.947   4.947   0.317
30425WAT      O91516   7.524   5.053   8.622
30425WAT     H191517   7.589   4.995   8.573
30425WAT     H291518   7.551   5.058   8.718
30426WAT      O91519   7.062   8.476   3.652
30426WAT     H191520   7.157   8.506   3.661
30426WAT     H291521   7.023   8.461   3.743
30427WAT      O91522   2.023   4.874   4.395
30427WAT     H191523   2.115   4.882   4.357
30427WAT     H291524   2.030   4.860   4.494
30428WAT      O91525   6.725   6.179   2.244
30428WAT     H191526   6.720   6.098   2.303
30428WAT     H291527   6.720   6.262   2.300
30429WAT      O91528   2.662   6.764   5.831
30429WAT     H191529   2.639   6.860   5.846
30429WAT     H291530   2.592   6.721   5.774
30430WAT      O91531   6.258   2.769   3.572
30430WAT     H191532   6.171   2.803   3.539
30430WAT     H291533   6.324   2.765   3.497
30431WAT      O91534   5.463   1.214   7.990
30431WAT     H191535   5.514   1.300   7.990
30431WAT     H291536   5.440   1.188   7.896
30432WAT      O91537   7.368   9.397   9.306
30432WAT     H191538   7.435   9.469   9.323
30432WAT     H291539   7.296   9.434   9.247
30433WAT      O91540   2.293   6.670   0.847
30433WAT     H191541   2.363   6.660   0.918
30433WAT     H291542   2.272   6.766   0.833
30434WAT      O91543   0.455   8.396   1.794
30434WAT     H191544   0.553   8.413   1.807
30434WAT     H291545   0.408   8.482   1.778
30435WAT      O91546   9.783   5.652   7.568
30435WAT     H191547   9.752   5.633   7.475
30435WAT     H291548   9.852   5.584   7.594
30436WAT      O91549   3.492   3.068   7.915
30436WAT     H191550   3.419   3.068   7.847
30436WAT     H291551   3.453   3.064   8.007
30437WAT      O91552   8.715   4.146   2.017
30437WAT     H191553   8.712   4.159   1.918
30437WAT     H291554   8.650   4.074   2.043
30438WAT      O91555   2.798   3.199   6.544
30438WAT     H191556   2.791   3.113   6.595
30438WAT     H291557   2.761   3.273   6.600
30439WAT      O91558   2.402   7.070   9.778
30439WAT     H191559   2.384   7.127   9.698
30439WAT     H291560   2.336   7.091   9.850
30440WAT      O91561   5.490   0.482   1.136
30440WAT     H191562   5.552   0.433   1.075
30440WAT     H291563   5.400   0.438   1.134
30441WAT      O91564   4.942   4.175   5.156
30441WAT     H191565   4.870   4.245   5.150
30441WAT     H291566   4.931   4.123   5.241
30442WAT      O91567   0.668   4.820   1.624
30442WAT     H191568   0.703   4.886   1.558
30442WAT     H291569   0.577   4.790   1.597
30443WAT      O91570   8.962   0.375   5.197
30443WAT     H191571   8.977   0.325   5.283
30443WAT     H291572   9.021   0.337   5.126
30444WAT      O91573   2.344   0.477   6.584
30444WAT     H191574   2.325   0.434   6.496
30444WAT     H291575   2.272   0.543   6.606
30445WAT      O91576   1.217   4.022   4.037
30445WAT     H191577   1.315   4.021   4.018
30445WAT     H291578   1.199   3.973   4.123
30446WAT      O91579   2.959   6.890   5.396
30446WAT     H191580   2.967   6.832   5.315
30446WAT     H291581   3.009   6.848   5.472
30447WAT      O91582   1.884   0.549   9.238
30447WAT     H191583   1.879   0.647   9.221
30447WAT     H291584   1.964   0.530   9.296
30448WAT      O91585   3.827   7.630   2.514
30448WAT     H191586   3.743   7.680   2.533
30448WAT     H291587   3.842   7.561   2.585
30449WAT      O91588   1.249   8.470   0.138
30449WAT     H191589   1.276   8.376   0.162
30449WAT     H291590   1.153   8.484   0.159
30450WAT      O91591   6.313   5.506   8.025
30450WAT     H191592   6.229   5.513   7.970
30450WAT     H291593   6.334   5.410   8.043
30451WAT      O91594   0.627   2.899   3.517
30451WAT     H191595   0.539   2.852   3.514
30451WAT     H291596   0.640   2.941   3.607
30452WAT      O91597   1.668   9.121   6.207
30452WAT     H191598   1.686   9.025   6.226
30452WAT     H291599   1.619   9.128   6.120
30453WAT      O91600   1.397   5.869   4.950
30453WAT     H191601   1.340   5.793   4.917
30453WAT     H291602   1.341   5.952   4.957
30454WAT      O91603   0.377   5.415   1.456
30454WAT     H191604   0.418   5.333   1.496
30454WAT     H291605   0.450   5.479   1.430
30455WAT      O91606   1.609   8.482   1.795
30455WAT     H191607   1.642   8.551   1.731
30455WAT     H291608   1.615   8.518   1.888
30456WAT      O91609   7.351   1.734   8.119
30456WAT     H191610   7.403   1.654   8.088
30456WAT     H291611   7.275   1.752   8.056
30457WAT      O91612   9.048   5.585   6.553
30457WAT     H191613   9.007   5.507   6.506
30457WAT     H291614   9.083   5.650   6.485
30458WAT      O91615   3.319   3.793   4.459
30458WAT     H191616   3.393   3.757   4.402
30458WAT     H291617   3.261   3.853   4.403
30459WAT      O91618   3.355   3.517   5.736
30459WAT     H191619   3.305   3.436   5.767
30459WAT     H291620   3.359   3.584   5.811
30460WAT      O91621   8.118   9.144   8.086
30460WAT     H191622   8.121   9.231   8.037
30460WAT     H291623   8.045   9.086   8.049
30461WAT      O91624   9.004   9.501   8.350
30461WAT     H191625   9.037   9.471   8.261
30461WAT     H291626   8.986   9.421   8.408
30462WAT      O91627   9.247   1.300   6.582
30462WAT     H191628   9.190   1.301   6.664
30462WAT     H291629   9.253   1.392   6.544
30463WAT      O91630   3.949   3.730   3.041
30463WAT     H191631   3.956   3.631   3.046
30463WAT     H291632   4.012   3.772   3.106
30464WAT      O91633   0.399   1.848   2.917
30464WAT     H191634   0.388   1.829   2.820
30464WAT     H291635   0.452   1.775   2.960
30465WAT      O91636   2.551   3.226   4.345
30465WAT     H191637   2.493   3.241   4.265
30465WAT     H291638   2.493   3.210   4.426
30466WAT      O91639   3.644   0.168   9.145
30466WAT     H191640   3.550   0.155   9.114
30466WAT     H291641   3.644   0.218   9.232
30467WAT      O91642   0.781   2.578   3.638
30467WAT     H191643   0.774   2.479   3.628
30467WAT     H291644   0.732   2.608   3.719
30468WAT      O91645   6.259   3.617   6.885
30468WAT     H191646   6.286   3.657   6.972
30468WAT     H291647   6.160   3.607   6.882
30469WAT      O91648   1.095   0.350   9.204
30469WAT     H191649   1.092   0.344   9.104
30469WAT     H291650   1.157   0.424   9.230
30470WAT      O91651   1.443   6.943   4.765
30470WAT     H191652   1.463   6.962   4.861
30470WAT     H291653   1.485   6.855   4.740
30471WAT      O91654   4.122   9.807   0.614
30471WAT     H191655   4.027   9.787   0.590
30471WAT     H291656   4.162   9.867   0.545
30472WAT      O91657   5.561   2.740   9.787
30472WAT     H191658   5.645   2.746   9.840
30472WAT     H291659   5.580   2.761   9.691
30473WAT      O91660   0.576   7.828   7.402
30473WAT     H191661   0.489   7.874   7.384
30473WAT     H291662   0.577   7.796   7.497
30474WAT      O91663   4.552   6.910   9.410
30474WAT     H191664   4.500   6.866   9.483
30474WAT     H291665   4.502   6.990   9.377
30475WAT      O91666   2.421   1.600   3.039
30475WAT     H191667   2.380   1.603   3.130
30475WAT     H291668   2.510   1.644   3.040
30476WAT      O91669   3.905   4.947   4.972
30476WAT     H191670   3.873   4.959   4.878
30476WAT     H291671   4.005   4.936   4.971
30477WAT      O91672   7.776   3.402   4.019
30477WAT     H191673   7.796   3.448   4.106
30477WAT     H291674   7.717   3.324   4.035
30478WAT      O91675   3.956   8.530   3.044
30478WAT     H191676   4.044   8.576   3.048
30478WAT     H291677   3.886   8.589   3.084
30479WAT      O91678   1.474   7.216   8.280
30479WAT     H191679   1.459   7.307   8.321
30479WAT     H291680   1.388   7.183   8.241
30480WAT      O91681   7.062   7.164   1.162
30480WAT     H191682   7.032   7.069   1.151
30480WAT     H291683   7.026   7.220   1.087
30481WAT      O91684   7.336   4.482   2.562
30481WAT     H191685   7.282   4.491   2.645
30481WAT     H291686   7.296   4.538   2.489
30482WAT      O91687   9.441   6.999   4.687
30482WAT     H191688   9.530   6.970   4.653
30482WAT     H291689   9.416   7.086   4.644
30483WAT      O91690   2.548   8.231   2.017
30483WAT     H191691   2.568   8.322   1.981
30483WAT     H291692   2.531   8.168   1.941
30484WAT      O91693   1.669   9.755   1.327
30484WAT     H191694   1.677   9.842   1.277
30484WAT     H291695   1.738   9.691   1.293
30485WAT      O91696   7.282   3.949   1.972
30485WAT     H191697   7.204   3.887   1.978
30485WAT     H291698   7.252   4.038   1.936
30486WAT      O91699   5.084   2.650   6.955
30486WAT     H191700   5.033   2.695   7.028
30486WAT     H291701   5.128   2.568   6.992
30487WAT      O91702   0.988   8.276   5.184
30487WAT     H191703   1.032   8.364   5.168
30487WAT     H291704   0.906   8.269   5.128
30488WAT      O91705   4.191   0.947   7.633
30488WAT     H191706   4.136   0.958   7.550
30488WAT     H291707   4.233   0.856   7.633
30489WAT      O91708   6.211   0.338   5.406
30489WAT     H191709   6.112   0.345   5.400
30489WAT     H291710   6.248   0.308   5.318
30490WAT      O91711   8.371   7.524   1.493
30490WAT     H191712   8.374   7.425   1.508
30490WAT     H291713   8.303   7.546   1.424
30491WAT      O91714   5.980   0.295   8.886
30491WAT     H191715   5.884   0.293   8.855
30491WAT     H291716   5.998   0.215   8.943
30492WAT      O91717   1.662   0.433   7.481
30492WAT     H191718   1.673   0.409   7.384
30492WAT     H291719   1.593   0.374   7.523
30493WAT      O91720   1.700   9.687   0.325
30493WAT     H191721   1.682   9.598   0.284
30493WAT     H291722   1.664   9.690   0.418
30494WAT      O91723   9.162   8.189   8.097
30494WAT     H191724   9.170   8.224   8.190
30494WAT     H291725   9.065   8.185   8.072
30495WAT      O91726   1.256   6.472   2.350
30495WAT     H191727   1.185   6.529   2.390
30495WAT     H291728   1.343   6.522   2.349
30496WAT      O91729   8.707   3.991   9.628
30496WAT     H191730   8.764   3.992   9.710
30496WAT     H291731   8.740   4.061   9.564
30497WAT      O91732   4.291   0.538   6.637
30497WAT     H191733   4.310   0.594   6.557
30497WAT     H291734   4.271   0.444   6.609
30498WAT      O91735   5.507   2.164   6.074
30498WAT     H191736   5.534   2.258   6.096
30498WAT     H291737   5.408   2.159   6.066
30499WAT      O91738   3.616   2.738   0.861
30499WAT     H191739   3.630   2.769   0.955
30499WAT     H291740   3.675   2.791   0.800
30500WAT      O91741   5.457   1.722   7.471
30500WAT     H191742   5.414   1.787   7.408
30500WAT     H291743   5.477   1.637   7.422
30501WAT      O91744   2.445   1.222   8.961
30501WAT     H191745   2.454   1.274   8.876
30501WAT     H291746   2.454   1.284   9.040
30502WAT      O91747   4.961   3.287   6.024
30502WAT     H191748   4.928   3.378   6.002
30502WAT     H291749   4.899   3.243   6.089
30503WAT      O91750   1.432   2.189   3.679
30503WAT     H191751   1.489   2.271   3.685
30503WAT     H291752   1.480   2.119   3.625
30504WAT      O91753   0.422   6.033   6.047
30504WAT     H191754   0.336   6.010   6.002
30504WAT     H291755   0.499   6.000   5.992
30505WAT      O91756   5.240   8.552   2.644
30505WAT     H191757   5.192   8.618   2.587
30505WAT     H291758   5.175   8.492   2.689
30506WAT      O91759   1.547   7.255   2.427
30506WAT     H191760   1.623   7.210   2.473
30506WAT     H291761   1.526   7.341   2.473
30507WAT      O91762   3.319   7.809   0.295
30507WAT     H191763   3.361   7.719   0.283
30507WAT     H291764   3.338   7.842   0.388
30508WAT      O91765   6.529   0.284   2.859
30508WAT     H191766   6.573   0.194   2.859
30508WAT     H291767   6.599   0.355   2.858
30509WAT      O91768   4.818   6.080   8.306
30509WAT     H191769   4.868   6.162   8.333
30509WAT     H291770   4.804   6.022   8.386
30510WAT      O91771   6.465   6.987   0.527
30510WAT     H191772   6.431   6.979   0.433
30510WAT     H291773   6.505   7.077   0.540
30511WAT      O91774   8.714   0.618   3.655
30511WAT     H191775   8.753   0.690   3.713
30511WAT     H291776   8.779   0.594   3.584
30512WAT      O91777   6.152   7.786   1.778
30512WAT     H191778   6.200   7.716   1.831
30512WAT     H291779   6.088   7.835   1.838
30513WAT      O91780   1.292   5.168   6.156
30513WAT     H191781   1.307   5.203   6.064
30513WAT     H291782   1.194   5.158   6.173
30514WAT      O91783   8.252   6.853   4.069
30514WAT     H191784   8.270   6.922   4.139
30514WAT     H291785   8.231   6.897   3.982
30515WAT      O91786   5.470   4.114   5.058
30515WAT     H191787   5.535   4.179   5.098
30515WAT     H291788   5.447   4.043   5.125
30516WAT      O91789   6.110   8.661   7.371
30516WAT     H191790   6.035   8.726   7.385
30516WAT     H291791   6.072   8.573   7.340
30517WAT      O91792   1.702   7.909   6.131
30517WAT     H191793   1.622   7.969   6.131
30517WAT     H291794   1.672   7.815   6.114
30518WAT      O91795   0.161   7.653   6.017
30518WAT     H191796   0.079   7.616   6.061
30518WAT     H291797   0.141   7.675   5.922
30519WAT      O91798   8.523   2.410   7.341
30519WAT     H191799   8.523   2.434   7.244
30519WAT     H291800   8.612   2.434   7.381
30520WAT      O91801   6.595   0.336   0.009
30520WAT     H191802   6.507   0.317  -0.035
30520WAT     H291803   6.601   0.434   0.028
30521WAT      O91804   6.861   5.496   8.085
30521WAT     H191805   6.913   5.497   8.000
30521WAT     H291806   6.771   5.456   8.069
30522WAT      O91807   6.005   0.130   5.048
30522WAT     H191808   6.066   0.204   5.077
30522WAT     H291809   6.025   0.048   5.102
30523WAT      O91810   2.668   7.193   2.573
30523WAT     H191811   2.632   7.286   2.570
30523WAT     H291812   2.750   7.191   2.631
30524WAT      O91813   0.213   3.637   2.716
30524WAT     H191814   0.204   3.538   2.730
30524WAT     H291815   0.232   3.655   2.620
30525WAT      O91816   5.384   5.742   9.756
30525WAT     H191817   5.405   5.777   9.665
30525WAT     H291818   5.317   5.669   9.750
30526WAT      O91819   6.499   6.836   3.440
30526WAT     H191820   6.484   6.761   3.376
30526WAT     H291821   6.564   6.807   3.510
30527WAT      O91822   5.095   4.983   6.078
30527WAT     H191823   5.161   4.966   6.005
30527WAT     H291824   5.132   5.050   6.142
30528WAT      O91825   3.331   9.647   9.822
30528WAT     H191826   3.408   9.587   9.800
30528WAT     H291827   3.251   9.620   9.768
30529WAT      O91828   1.173   9.568   7.673
30529WAT     H191829   1.174   9.542   7.770
30529WAT     H291830   1.242   9.639   7.657
30530WAT      O91831   5.804   2.617   1.046
30530WAT     H191832   5.894   2.659   1.038
30530WAT     H291833   5.793   2.546   0.976
30531WAT      O91834   2.977   3.962   9.469
30531WAT     H191835   2.948   3.974   9.375
30531WAT     H291836   2.963   4.048   9.519
30532WAT      O91837   6.142   0.279   4.518
30532WAT     H191838   6.091   0.206   4.565
30532WAT     H291839   6.184   0.339   4.585
30533WAT      O91840   2.928   0.101   1.813
30533WAT     H191841   2.837   0.141   1.819
30533WAT     H291842   2.921   0.010   1.770
30534WAT      O91843   3.954   4.508   1.152
30534WAT     H191844   4.023   4.565   1.107
30534WAT     H291845   3.882   4.567   1.189
30535WAT      O91846   1.088   9.631   8.297
30535WAT     H191847   1.084   9.683   8.383
30535WAT     H291848   1.171   9.575   8.297
30536WAT      O91849   0.874   1.297   4.981
30536WAT     H191850   0.827   1.379   4.948
30536WAT     H291851   0.942   1.268   4.914
30537WAT      O91852   5.661   4.617   6.530
30537WAT     H191853   5.568   4.596   6.560
30537WAT     H291854   5.708   4.668   6.601
30538WAT      O91855   7.857   1.366   0.343
30538WAT     H191856   7.767   1.358   0.387
30538WAT     H291857   7.902   1.450   0.375
30539WAT      O91858   2.089   8.142   8.117
30539WAT     H191859   2.095   8.241   8.125
30539WAT     H291860   2.173   8.100   8.151
30540WAT      O91861   6.893   5.480   7.621
30540WAT     H191862   6.914   5.383   7.606
30540WAT     H291863   6.832   5.513   7.548
30541WAT      O91864   1.244   5.383   8.970
30541WAT     H191865   1.309   5.308   8.963
30541WAT     H291866   1.178   5.378   8.895
30542WAT      O91867   1.645   5.944   2.284
30542WAT     H191868   1.698   6.002   2.222
30542WAT     H291869   1.547   5.958   2.267
30543WAT      O91870   8.981   9.743   7.583
30543WAT     H191871   8.972   9.723   7.680
30543WAT     H291872   9.010   9.660   7.534
30544WAT      O91873   6.487   7.250   6.913
30544WAT     H191874   6.575   7.243   6.865
30544WAT     H291875   6.432   7.168   6.894
30545WAT      O91876   3.266   9.056   7.704
30545WAT     H191877   3.202   9.051   7.780
30545WAT     H291878   3.216   9.060   7.618
30546WAT      O91879   0.870   8.600   9.817
30546WAT     H191880   0.862   8.653   9.733
30546WAT     H291881   0.901   8.508   9.796
30547WAT      O91882   9.269   1.455   3.367
30547WAT     H191883   9.209   1.520   3.414
30547WAT     H291884   9.358   1.453   3.413
30548WAT      O91885   0.744   3.787   8.386
30548WAT     H191886   0.717   3.809   8.480
30548WAT     H291887   0.665   3.795   8.325
30549WAT      O91888   3.294   6.668   1.490
30549WAT     H191889   3.211   6.719   1.512
30549WAT     H291890   3.306   6.594   1.556
30550WAT      O91891   5.527   2.203   4.568
30550WAT     H191892   5.445   2.156   4.600
30550WAT     H291893   5.543   2.180   4.472
30551WAT      O91894   3.102   0.170   5.877
30551WAT     H191895   3.022   0.160   5.818
30551WAT     H291896   3.081   0.234   5.951
30552WAT      O91897   9.720   7.032   3.016
30552WAT     H191898   9.712   7.044   3.115
30552WAT     H291899   9.728   7.122   2.973
30553WAT      O91900   6.995   2.376   2.795
30553WAT     H191901   6.989   2.472   2.821
30553WAT     H291902   7.091   2.350   2.785
30554WAT      O91903   6.470   6.968   6.526
30554WAT     H191904   6.547   6.971   6.463
30554WAT     H291905   6.399   6.908   6.489
30555WAT      O91906   1.348   6.790   6.405
30555WAT     H191907   1.272   6.781   6.470
30555WAT     H291908   1.410   6.712   6.416
30556WAT      O91909   0.389   9.381   1.102
30556WAT     H191910   0.460   9.443   1.067
30556WAT     H291911   0.390   9.383   1.202
30557WAT      O91912   6.406   3.787   4.878
30557WAT     H191913   6.441   3.731   4.953
30557WAT     H291914   6.481   3.843   4.841
30558WAT      O91915   7.365   9.406   7.967
30558WAT     H191916   7.353   9.331   7.903
30558WAT     H291917   7.461   9.411   7.995
30559WAT      O91918   6.560   6.083   7.759
30559WAT     H191919   6.525   5.993   7.734
30559WAT     H291920   6.530   6.107   7.851
30560WAT      O91921   3.152   1.161   3.783
30560WAT     H191922   3.154   1.099   3.862
30560WAT     H291923   3.224   1.135   3.719
30561WAT      O91924   2.657   7.310   8.620
30561WAT     H191925   2.678   7.236   8.684
30561WAT     H291926   2.562   7.339   8.633
30562WAT      O91927   6.825   3.139   4.406
30562WAT     H191928   6.919   3.106   4.398
30562WAT     H291929   6.791   3.163   4.315
30563WAT      O91930   3.717   5.778   9.373
30563WAT     H191931   3.692   5.694   9.326
30563WAT     H291932   3.721   5.761   9.472
30564WAT      O91933   6.220   2.141   4.587
30564WAT     H191934   6.122   2.161   4.575
30564WAT     H291935   6.272   2.226   4.583
30565WAT      O91936   3.714   2.497   0.858
30565WAT     H191937   3.670   2.585   0.841
30565WAT     H291938   3.810   2.511   0.882
30566WAT      O91939   2.378   6.483   9.570
30566WAT     H191940   2.455   6.422   9.548
30566WAT     H291941   2.401   6.535   9.652
30567WAT      O91942   6.281   6.864   6.331
30567WAT     H191943   6.258   6.802   6.257
30567WAT     H291944   6.237   6.953   6.315
30568WAT      O91945   1.046   2.727   2.717
30568WAT     H191946   1.115   2.683   2.775
30568WAT     H291947   1.047   2.825   2.733
30569WAT      O91948   4.990   4.405   3.117
30569WAT     H191949   5.074   4.458   3.126
30569WAT     H291950   4.932   4.446   3.046
30570WAT      O91951   0.629   4.529   2.807
30570WAT     H191952   0.717   4.482   2.806
30570WAT     H291953   0.637   4.615   2.857
30571WAT      O91954   6.683   5.200   0.986
30571WAT     H191955   6.621   5.255   1.042
30571WAT     H291956   6.685   5.106   1.019
30572WAT      O91957   9.770   7.038   9.596
30572WAT     H191958   9.798   7.010   9.504
30572WAT     H291959   9.839   7.011   9.662
30573WAT      O91960   1.731   1.464   6.854
30573WAT     H191961   1.687   1.540   6.806
30573WAT     H291962   1.823   1.491   6.881
30574WAT      O91963   3.860   7.512   6.431
30574WAT     H191964   3.849   7.552   6.522
30574WAT     H291965   3.805   7.429   6.423
30575WAT      O91966   5.475   5.245   7.712
30575WAT     H191967   5.419   5.197   7.644
30575WAT     H291968   5.560   5.195   7.727
30576WAT      O91969   6.114   0.465   7.794
30576WAT     H191970   6.056   0.546   7.793
30576WAT     H291971   6.199   0.485   7.844
30577WAT      O91972   0.104   5.507   9.416
30577WAT     H191973   0.051   5.492   9.332
30577WAT     H291974   0.169   5.432   9.428
30578WAT      O91975   7.926   7.914   1.570
30578WAT     H191976   7.996   7.938   1.503
30578WAT     H291977   7.838   7.951   1.541
30579WAT      O91978   1.568   6.834   7.876
30579WAT     H191979   1.488   6.848   7.817
30579WAT     H291980   1.646   6.805   7.820
30580WAT      O91981   0.713   1.128   1.037
30580WAT     H191982   0.701   1.228   1.037
30580WAT     H291983   0.750   1.100   1.125
30581WAT      O91984   7.369   6.682   8.370
30581WAT     H191985   7.448   6.648   8.318
30581WAT     H291986   7.330   6.608   8.424
30582WAT      O91987   9.504   6.185   8.666
30582WAT     H191988   9.565   6.139   8.601
30582WAT     H291989   9.415   6.139   8.665
30583WAT      O91990   0.435   0.765   8.344
30583WAT     H191991   0.528   0.791   8.372
30583WAT     H291992   0.424   0.666   8.353
30584WAT      O91993   3.192   5.556   0.957
30584WAT     H191994   3.180   5.653   0.939
30584WAT     H291995   3.279   5.525   0.920
30585WAT      O91996   5.980   9.615   8.592
30585WAT     H191997   5.960   9.710   8.569
30585WAT     H291998   6.079   9.602   8.600
30586WAT      O91999   9.375   8.276   7.308
30586WAT     H192000   9.372   8.253   7.211
30586WAT     H292001   9.282   8.270   7.346
30587WAT      O92002   6.474   8.150   0.969
30587WAT     H192003   6.450   8.229   1.026
30587WAT     H292004   6.568   8.159   0.938
30588WAT      O92005   4.104   3.169   0.567
30588WAT     H192006   4.142   3.078   0.551
30588WAT     H292007   4.027   3.163   0.630
30589WAT      O92008   4.769   2.051   7.786
30589WAT     H192009   4.763   2.121   7.857
30589WAT     H292010   4.705   2.074   7.712
30590WAT      O92011   7.359   9.489   5.942
30590WAT     H192012   7.284   9.477   5.879
30590WAT     H292013   7.347   9.575   5.993
30591WAT      O92014   4.562   6.179   0.647
30591WAT     H192015   4.485   6.197   0.587
30591WAT     H292016   4.536   6.111   0.716
30592WAT      O92017   8.006   1.338   1.612
30592WAT     H192018   7.921   1.381   1.585
30592WAT     H292019   7.996   1.239   1.610
30593WAT      O92020   6.958   4.240   2.361
30593WAT     H192021   7.050   4.247   2.322
30593WAT     H292022   6.964   4.217   2.458
30594WAT      O92023   6.841   9.015   1.424
30594WAT     H192024   6.907   9.084   1.455
30594WAT     H292025   6.752   9.033   1.466
30595WAT      O92026   4.506   8.406   3.626
30595WAT     H192027   4.594   8.393   3.673
30595WAT     H292028   4.510   8.363   3.536
30596WAT      O92029   0.807   6.097   7.476
30596WAT     H192030   0.830   6.113   7.380
30596WAT     H292031   0.882   6.045   7.519
30597WAT      O92032   7.625   8.211   4.764
30597WAT     H192033   7.627   8.204   4.864
30597WAT     H292034   7.548   8.268   4.737
30598WAT      O92035   8.899   9.688   9.750
30598WAT     H192036   8.841   9.645   9.681
30598WAT     H292037   8.864   9.779   9.772
30599WAT      O92038   1.899   5.657   3.993
30599WAT     H192039   1.942   5.572   4.022
30599WAT     H292040   1.832   5.638   3.921
30600WAT      O92041   3.641   5.028   4.011
30600WAT     H192042   3.674   4.936   3.987
30600WAT     H292043   3.571   5.056   3.947
30601WAT      O92044   2.228   5.291   3.423
30601WAT     H192045   2.159   5.223   3.399
30601WAT     H292046   2.194   5.382   3.403
30602WAT      O92047   9.414   1.221   4.855
30602WAT     H192048   9.361   1.138   4.840
30602WAT     H292049   9.512   1.200   4.847
30603WAT      O92050   0.383   0.831   6.748
30603WAT     H192051   0.343   0.835   6.839
30603WAT     H292052   0.366   0.917   6.700
30604WAT      O92053   6.965   1.929   1.430
30604WAT     H192054   7.022   1.910   1.351
30604WAT     H292055   6.869   1.915   1.406
30605WAT      O92056   3.379   8.306   6.966
30605WAT     H192057   3.440   8.360   6.907
30605WAT     H292058   3.401   8.324   7.062
30606WAT      O92059   3.299   8.972   4.493
30606WAT     H192060   3.277   9.045   4.429
30606WAT     H292061   3.228   8.901   4.489
30607WAT      O92062   3.617   4.966   0.412
30607WAT     H192063   3.628   4.912   0.329
30607WAT     H292064   3.647   5.060   0.394
30608WAT      O92065   4.998   4.717   8.083
30608WAT     H192066   4.900   4.734   8.075
30608WAT     H292067   5.041   4.795   8.129
30609WAT      O92068   2.556   6.157   0.208
30609WAT     H192069   2.539   6.066   0.169
30609WAT     H292070   2.493   6.172   0.285
30610WAT      O92071   9.739   2.491   8.693
30610WAT     H192072   9.651   2.494   8.740
30610WAT     H292073   9.805   2.549   8.741
30611WAT      O92074   3.813   7.461   8.909
30611WAT     H192075   3.796   7.372   8.866
30611WAT     H292076   3.779   7.534   8.849
30612WAT      O92077   7.430   6.152   0.916
30612WAT     H192078   7.366   6.089   0.960
30612WAT     H292079   7.521   6.141   0.956
30613WAT      O92080   8.046   4.607   2.302
30613WAT     H192081   7.997   4.541   2.245
30613WAT     H292082   8.099   4.669   2.244
30614WAT      O92083   0.062   0.113   7.134
30614WAT     H192084   0.046   0.019   7.164
30614WAT     H292085   0.102   0.112   7.042
30615WAT      O92086   1.494   5.925   9.438
30615WAT     H192087   1.462   5.846   9.385
30615WAT     H292088   1.593   5.922   9.445
30616WAT      O92089   9.143   4.541   0.689
30616WAT     H192090   9.201   4.510   0.764
30616WAT     H292091   9.183   4.622   0.646
30617WAT      O92092   2.224   7.063   7.679
30617WAT     H192093   2.238   7.158   7.649
30617WAT     H292094   2.285   7.043   7.755
30618WAT      O92095   6.130   7.531   8.468
30618WAT     H192096   6.158   7.626   8.483
30618WAT     H292097   6.037   7.529   8.432
30619WAT      O92098   7.417   3.620   7.593
30619WAT     H192099   7.406   3.555   7.669
30619WAT     H292100   7.441   3.570   7.510
30620WAT      O92101   1.735   8.573   3.698
30620WAT     H192102   1.768   8.487   3.737
30620WAT     H292103   1.701   8.557   3.606
30621WAT      O92104   1.785   2.136   1.923
30621WAT     H192105   1.873   2.122   1.968
30621WAT     H292106   1.799   2.165   1.829
30622WAT      O92107   9.088   9.615   8.857
30622WAT     H192108   9.185   9.618   8.880
30622WAT     H292109   9.072   9.546   8.787
30623WAT      O92110   5.403   7.222   2.029
30623WAT     H192111   5.337   7.196   2.099
30623WAT     H292112   5.356   7.271   1.956
30624WAT      O92113   4.079   7.157   8.439
30624WAT     H192114   4.087   7.083   8.373
30624WAT     H292115   4.015   7.130   8.511
30625WAT      O92116   1.215   5.175   8.310
30625WAT     H192117   1.154   5.097   8.320
30625WAT     H292118   1.302   5.144   8.272
30626WAT      O92119   3.534   6.931   5.582
30626WAT     H192120   3.542   7.029   5.564
30626WAT     H292121   3.443   6.911   5.619
30627WAT      O92122   2.710   7.910   2.399
30627WAT     H192123   2.749   7.994   2.361
30627WAT     H292124   2.664   7.930   2.485
30628WAT      O92125   1.203   4.161   7.845
30628WAT     H192126   1.250   4.194   7.926
30628WAT     H292127   1.157   4.075   7.865
30629WAT      O92128   1.322   4.639   1.122
30629WAT     H192129   1.237   4.591   1.099
30629WAT     H292130   1.388   4.574   1.159
30630WAT      O92131   4.374   6.532   6.558
30630WAT     H192132   4.342   6.615   6.604
30630WAT     H292133   4.309   6.457   6.576
30631WAT      O92134   6.950   4.772   0.022
30631WAT     H192135   6.969   4.675   0.007
30631WAT     H292136   6.851   4.786   0.027
30632WAT      O92137   3.730   8.440   3.521
30632WAT     H192138   3.701   8.506   3.590
30632WAT     H292139   3.655   8.375   3.503
30633WAT      O92140   7.085   6.769   4.857
30633WAT     H192141   7.176   6.782   4.819
30633WAT     H292142   7.093   6.734   4.951
30634WAT      O92143   1.087   3.913   7.904
30634WAT     H192144   1.102   3.902   8.002
30634WAT     H292145   0.989   3.901   7.883
30635WAT      O92146   8.470   8.600   8.909
30635WAT     H192147   8.512   8.518   8.872
30635WAT     H292148   8.411   8.576   8.987
30636WAT      O92149   9.151   8.794   1.042
30636WAT     H192150   9.228   8.856   1.059
30636WAT     H292151   9.077   8.815   1.106
30637WAT      O92152   9.840   1.036   4.445
30637WAT     H192153   9.913   0.986   4.397
30637WAT     H292154   9.881   1.097   4.512
30638WAT      O92155   6.870   5.788   9.807
30638WAT     H192156   6.774   5.759   9.812
30638WAT     H292157   6.922   5.721   9.754
30639WAT      O92158   6.155   6.826   4.227
30639WAT     H192159   6.179   6.910   4.179
30639WAT     H292160   6.237   6.786   4.268
30640WAT      O92161   1.483   8.157   1.535
30640WAT     H192162   1.469   8.173   1.437
30640WAT     H292163   1.467   8.060   1.555
30641WAT      O92164   6.701   8.626   0.361
30641WAT     H192165   6.657   8.538   0.382
30641WAT     H292166   6.794   8.609   0.328
30642WAT      O92167   0.159   8.496   7.360
30642WAT     H192168   0.074   8.449   7.384
30642WAT     H292169   0.203   8.529   7.443
30643WAT      O92170   6.193   5.286   1.983
30643WAT     H192171   6.248   5.233   1.919
30643WAT     H292172   6.096   5.279   1.958
30644WAT      O92173   0.327   6.890   9.647
30644WAT     H192174   0.313   6.903   9.549
30644WAT     H292175   0.242   6.858   9.689
30645WAT      O92176   1.056   6.965   4.950
30645WAT     H192177   1.089   6.931   4.862
30645WAT     H292178   1.118   6.935   5.022
30646WAT      O92179   6.494   0.994   6.661
30646WAT     H192180   6.530   0.965   6.572
30646WAT     H292181   6.394   0.994   6.658
30647WAT      O92182   5.103   3.023   3.075
30647WAT     H192183   5.128   2.942   3.129
30647WAT     H292184   5.175   3.041   3.007
30648WAT      O92185   2.996   9.176   0.343
30648WAT     H192186   3.040   9.265   0.344
30648WAT     H292187   3.050   9.112   0.288
30649WAT      O92188   2.066   0.841   4.369
30649WAT     H192189   2.151   0.891   4.354
30649WAT     H292190   1.993   0.905   4.391
30650WAT      O92191   6.630   0.633   8.983
30650WAT     H192192   6.589   0.590   8.902
30650WAT     H292193   6.636   0.566   9.057
30651WAT      O92194   2.396   6.964   6.473
30651WAT     H192195   2.492   6.991   6.463
30651WAT     H292196   2.366   6.983   6.566
30652WAT      O92197   0.833   2.654   4.294
30652WAT     H192198   0.873   2.563   4.308
30652WAT     H292199   0.903   2.724   4.312
30653WAT      O92200   7.859   2.904   7.057
30653WAT     H192201   7.940   2.938   7.105
30653WAT     H292202   7.865   2.929   6.960
30654WAT      O92203   0.141   6.222   8.927
30654WAT     H192204   0.233   6.207   8.889
30654WAT     H292205   0.140   6.308   8.978
30655WAT      O92206   7.213   6.741   1.020
30655WAT     H192207   7.250   6.777   1.105
30655WAT     H292208   7.229   6.642   1.015
30656WAT      O92209   7.131   2.397   6.478
30656WAT     H192210   7.203   2.432   6.538
30656WAT     H292211   7.146   2.299   6.462
30657WAT      O92212   5.273   7.128   5.473
30657WAT     H192213   5.271   7.220   5.436
30657WAT     H292214   5.343   7.074   5.425
30658WAT      O92215   5.158   7.012   6.868
30658WAT     H192216   5.080   7.055   6.822
30658WAT     H292217   5.130   6.979   6.958
30659WAT      O92218   0.837   0.015   2.101
30659WAT     H192219   0.766   0.046   2.165
30659WAT     H292220   0.795  -0.044   2.032
30660WAT      O92221   7.388   4.777   6.295
30660WAT     H192222   7.327   4.716   6.344
30660WAT     H292223   7.463   4.724   6.255
30661WAT      O92224   1.358   5.725   9.882
30661WAT     H192225   1.342   5.629   9.905
30661WAT     H292226   1.403   5.731   9.793
30662WAT      O92227   7.754   1.428   1.602
30662WAT     H192228   7.721   1.522   1.610
30662WAT     H292229   7.708   1.371   1.671
30663WAT      O92230   5.492   4.020   4.488
30663WAT     H192231   5.499   4.114   4.453
30663WAT     H292232   5.457   4.022   4.582
30664WAT      O92233   5.288   1.067   3.965
30664WAT     H192234   5.214   1.134   3.961
30664WAT     H292235   5.323   1.062   4.059
30665WAT      O92236   7.670   0.780   0.220
30665WAT     H192237   7.633   0.858   0.169
30665WAT     H292238   7.615   0.699   0.201
30666WAT      O92239   2.981   1.777   5.090
30666WAT     H192240   3.025   1.697   5.130
30666WAT     H292241   2.928   1.825   5.161
30667WAT      O92242   3.095   8.083   6.535
30667WAT     H192243   2.996   8.091   6.544
30667WAT     H292244   3.132   8.039   6.616
30668WAT      O92245   3.148   3.812   0.308
30668WAT     H192246   3.184   3.797   0.216
30668WAT     H292247   3.068   3.754   0.323
30669WAT      O92248   2.704   0.014   8.638
30669WAT     H192249   2.624  -0.046   8.640
30669WAT     H292250   2.785  -0.039   8.613
30670WAT      O92251   9.003   2.340   0.877
30670WAT     H192252   8.948   2.296   0.948
30670WAT     H292253   8.942   2.373   0.804
30671WAT      O92254   4.532   7.138   6.807
30671WAT     H192255   4.606   7.167   6.868
30671WAT     H292256   4.456   7.102   6.860
30672WAT      O92257   8.709   6.422   0.897
30672WAT     H192258   8.684   6.517   0.879
30672WAT     H292259   8.732   6.410   0.993
30673WAT      O92260   2.195   1.434   5.710
30673WAT     H192261   2.291   1.461   5.714
30673WAT     H292262   2.179   1.356   5.771
30674WAT      O92263   2.507   6.091   8.122
30674WAT     H192264   2.517   5.996   8.093
30674WAT     H292265   2.597   6.134   8.129
30675WAT      O92266   2.202   7.630   7.684
30675WAT     H192267   2.126   7.662   7.627
30675WAT     H292268   2.171   7.622   7.779
30676WAT      O92269   6.083   8.741   6.192
30676WAT     H192270   6.005   8.683   6.170
30676WAT     H292271   6.100   8.739   6.290
30677WAT      O92272   1.853   1.252   9.509
30677WAT     H192273   1.944   1.216   9.528
30677WAT     H292274   1.850   1.350   9.529
30678WAT      O92275   7.044   1.758   0.937
30678WAT     H192276   7.067   1.810   0.855
30678WAT     H292277   6.945   1.762   0.953
30679WAT      O92278   3.271   8.709   4.137
30679WAT     H192279   3.319   8.680   4.054
30679WAT     H292280   3.172   8.705   4.121
30680WAT      O92281   9.735   1.413   8.052
30680WAT     H192282   9.720   1.512   8.048
30680WAT     H292283   9.664   1.367   7.998
30681WAT      O92284   7.069   5.484   5.999
30681WAT     H192285   6.984   5.519   5.959
30681WAT     H292286   7.048   5.436   6.084
30682WAT      O92287   1.931   0.210   8.533
30682WAT     H192288   1.834   0.206   8.555
30682WAT     H292289   1.958   0.125   8.487
30683WAT      O92290   7.935   0.668   4.198
30683WAT     H192291   7.882   0.595   4.241
30683WAT     H292292   7.944   0.745   4.261
30684WAT      O92293   0.998   8.764   4.001
30684WAT     H192294   1.076   8.792   3.946
30684WAT     H292295   0.922   8.736   3.942
30685WAT      O92296   7.129   2.740   9.867
30685WAT     H192297   7.151   2.786   9.781
30685WAT     H292298   7.144   2.642   9.857
30686WAT      O92299   9.586   1.856   2.331
30686WAT     H192300   9.561   1.822   2.421
30686WAT     H292301   9.524   1.931   2.305
30687WAT      O92302   9.170   0.902   5.558
30687WAT     H192303   9.222   0.831   5.510
30687WAT     H292304   9.179   0.889   5.657
30688WAT      O92305   6.033   0.540   0.236
30688WAT     H192306   6.055   0.504   0.145
30688WAT     H292307   5.948   0.499   0.268
30689WAT      O92308   8.963   0.694   4.853
30689WAT     H192309   8.932   0.757   4.781
30689WAT     H292310   9.052   0.656   4.827
30690WAT      O92311   1.193   6.148   7.652
30690WAT     H192312   1.267   6.103   7.702
30690WAT     H292313   1.181   6.241   7.686
30691WAT      O92314   5.309   7.036   9.115
30691WAT     H192315   5.301   7.116   9.056
30691WAT     H292316   5.303   7.065   9.211
30692WAT      O92317   4.021   3.724   6.983
30692WAT     H192318   3.977   3.798   7.034
30692WAT     H292319   3.982   3.718   6.891
30693WAT      O92320   1.355   9.341   9.567
30693WAT     H192321   1.280   9.296   9.615
30693WAT     H292322   1.393   9.413   9.625
30694WAT      O92323   4.330   4.909   0.469
30694WAT     H192324   4.283   4.911   0.557
30694WAT     H292325   4.398   4.835   0.469
30695WAT      O92326   8.015   5.321   1.578
30695WAT     H192327   8.107   5.300   1.613
30695WAT     H292328   8.004   5.420   1.569
30696WAT      O92329   7.748   8.029   3.459
30696WAT     H192330   7.710   8.035   3.552
30696WAT     H292331   7.675   8.046   3.393
30697WAT      O92332   1.242   0.564   5.687
30697WAT     H192333   1.238   0.576   5.588
30697WAT     H292334   1.301   0.634   5.726
30698WAT      O92335   7.880   5.551   7.011
30698WAT     H192336   7.956   5.605   6.975
30698WAT     H292337   7.811   5.612   7.049
30699WAT      O92338   9.409   7.090   2.884
30699WAT     H192339   9.465   7.010   2.906
30699WAT     H292340   9.409   7.154   2.962
30700WAT      O92341   3.863   9.422   1.747
30700WAT     H192342   3.954   9.392   1.775
30700WAT     H292343   3.796   9.354   1.775
30701WAT      O92344   4.901   3.791   7.826
30701WAT     H192345   4.946   3.799   7.737
30701WAT     H292346   4.870   3.881   7.855
30702WAT      O92347   6.955   0.675   3.113
30702WAT     H192348   6.973   0.647   3.018
30702WAT     H292349   7.020   0.745   3.140
30703WAT      O92350   9.483   6.969   2.065
30703WAT     H192351   9.390   6.932   2.068
30703WAT     H292352   9.541   6.910   2.010
30704WAT      O92353   7.777   7.824   1.896
30704WAT     H192354   7.836   7.779   1.829
30704WAT     H292355   7.765   7.920   1.871
30705WAT      O92356   3.408   5.204   4.657
30705WAT     H192357   3.367   5.281   4.705
30705WAT     H292358   3.507   5.204   4.672
30706WAT      O92359   7.529   4.663   8.598
30706WAT     H192360   7.614   4.715   8.604
30706WAT     H292361   7.551   4.565   8.596
30707WAT      O92362   9.282   4.675   8.772
30707WAT     H192363   9.266   4.712   8.863
30707WAT     H292364   9.376   4.642   8.765
30708WAT      O92365   0.234   1.212   3.619
30708WAT     H192366   0.213   1.280   3.689
30708WAT     H292367   0.171   1.223   3.542
30709WAT      O92368   7.003   4.123   5.143
30709WAT     H192369   7.004   4.024   5.157
30709WAT     H292370   7.085   4.150   5.092
30710WAT      O92371   6.525   3.814   1.848
30710WAT     H192372   6.504   3.791   1.943
30710WAT     H292373   6.610   3.867   1.844
30711WAT      O92374   7.019   7.314   3.776
30711WAT     H192375   7.109   7.281   3.806
30711WAT     H292376   7.020   7.327   3.677
30712WAT      O92377   4.892   4.633   7.241
30712WAT     H192378   4.958   4.580   7.294
30712WAT     H292379   4.800   4.612   7.271
30713WAT      O92380   7.667   2.637   2.397
30713WAT     H192381   7.666   2.569   2.470
30713WAT     H292382   7.755   2.684   2.397
30714WAT      O92383   0.666   0.501   0.434
30714WAT     H192384   0.736   0.544   0.377
30714WAT     H292385   0.582   0.555   0.428
30715WAT      O92386   4.087   9.177   0.740
30715WAT     H192387   4.177   9.217   0.718
30715WAT     H292388   4.092   9.133   0.830
30716WAT      O92389   0.520   8.190   7.353
30716WAT     H192390   0.452   8.231   7.293
30716WAT     H292391   0.478   8.171   7.442
30717WAT      O92392   9.715   7.111   1.625
30717WAT     H192393   9.761   7.106   1.536
30717WAT     H292394   9.695   7.206   1.647
30718WAT      O92395   0.093   1.226   8.859
30718WAT     H192396   0.017   1.269   8.908
30718WAT     H292397   0.176   1.232   8.914
30719WAT      O92398   0.822   4.871   8.228
30719WAT     H192399   0.812   4.830   8.137
30719WAT     H292400   0.732   4.876   8.272
30720WAT      O92401   9.164   8.099   3.063
30720WAT     H192402   9.091   8.155   3.101
30720WAT     H292403   9.186   8.025   3.127
30721WAT      O92404   4.708   4.767   7.600
30721WAT     H192405   4.630   4.757   7.540
30721WAT     H292406   4.769   4.838   7.565
30722WAT      O92407   4.848   4.044   1.928
30722WAT     H192408   4.894   3.957   1.910
30722WAT     H292409   4.917   4.115   1.946
30723WAT      O92410   7.250   8.581   5.408
30723WAT     H192411   7.273   8.484   5.401
30723WAT     H292412   7.295   8.631   5.333
30724WAT      O92413   6.360   8.764   3.733
30724WAT     H192414   6.444   8.816   3.716
30724WAT     H292415   6.376   8.668   3.711
30725WAT      O92416   1.790   0.642   7.091
30725WAT     H192417   1.708   0.603   7.132
30725WAT     H292418   1.854   0.668   7.163
30726WAT      O92419   8.322   7.613   1.904
30726WAT     H192420   8.385   7.629   1.980
30726WAT     H292421   8.338   7.521   1.867
30727WAT      O92422   4.634   4.050   8.157
30727WAT     H192423   4.686   4.074   8.075
30727WAT     H292424   4.691   4.063   8.238
30728WAT      O92425   2.445   1.997   3.774
30728WAT     H192426   2.456   2.023   3.870
30728WAT     H292427   2.433   1.898   3.768
30729WAT      O92428   0.772   8.102   1.950
30729WAT     H192429   0.762   8.177   2.016
30729WAT     H292430   0.702   8.032   1.968
30730WAT      O92431   2.643   8.745   2.058
30730WAT     H192432   2.677   8.805   2.130
30730WAT     H292433   2.610   8.800   1.981
30731WAT      O92434   6.839   8.937   4.005
30731WAT     H192435   6.842   8.987   4.091
30731WAT     H292436   6.750   8.892   3.996
30732WAT      O92437   4.683   8.564   8.242
30732WAT     H192438   4.650   8.657   8.232
30732WAT     H292439   4.726   8.553   8.331
30733WAT      O92440   4.078   8.122   9.165
30733WAT     H192441   4.025   8.086   9.242
30733WAT     H292442   4.077   8.222   9.167
30734WAT      O92443   7.702   0.800   7.003
30734WAT     H192444   7.746   0.710   6.995
30734WAT     H292445   7.768   0.872   6.981
30735WAT      O92446   4.228   7.724   9.310
30735WAT     H192447   4.242   7.801   9.372
30735WAT     H292448   4.226   7.639   9.362
30736WAT      O92449   2.476   2.686   7.670
30736WAT     H192450   2.533   2.703   7.751
30736WAT     H292451   2.532   2.698   7.588
30737WAT      O92452   1.940   4.519   9.691
30737WAT     H192453   1.998   4.482   9.619
30737WAT     H292454   1.907   4.444   9.749
30738WAT      O92455   5.353   6.599   4.073
30738WAT     H192456   5.335   6.506   4.105
30738WAT     H292457   5.405   6.649   4.142
30739WAT      O92458   1.890   9.463   8.038
30739WAT     H192459   1.877   9.520   7.957
30739WAT     H292460   1.926   9.519   8.113
30740WAT      O92461   0.909   6.743   0.442
30740WAT     H192462   0.871   6.753   0.350
30740WAT     H292463   1.009   6.734   0.435
30741WAT      O92464   1.448   5.701   4.397
30741WAT     H192465   1.421   5.795   4.415
30741WAT     H292466   1.462   5.653   4.484
30742WAT      O92467   9.130   6.869   1.870
30742WAT     H192468   9.099   6.961   1.845
30742WAT     H292469   9.165   6.822   1.788
30743WAT      O92470   4.745   3.257   5.710
30743WAT     H192471   4.657   3.291   5.743
30743WAT     H292472   4.811   3.332   5.707
30744WAT      O92473   7.645   4.575   2.038
30744WAT     H192474   7.592   4.608   2.116
30744WAT     H292475   7.644   4.644   1.966
30745WAT      O92476   7.553   2.474   5.125
30745WAT     H192477   7.594   2.392   5.087
30745WAT     H292478   7.500   2.521   5.055
30746WAT      O92479   0.659   9.179   8.029
30746WAT     H192480   0.586   9.112   8.042
30746WAT     H292481   0.682   9.184   7.932
30747WAT      O92482   2.126   3.240   1.739
30747WAT     H192483   2.077   3.254   1.653
30747WAT     H292484   2.128   3.325   1.791
30748WAT      O92485   9.103   5.297   8.765
30748WAT     H192486   9.125   5.293   8.667
30748WAT     H292487   9.154   5.226   8.813
30749WAT      O92488   8.108   0.749   8.021
30749WAT     H192489   8.104   0.848   8.005
30749WAT     H292490   8.035   0.721   8.082
30750WAT      O92491   6.425   1.225   0.178
30750WAT     H192492   6.462   1.136   0.151
30750WAT     H292493   6.367   1.261   0.105
30751WAT      O92494   8.125   6.472   2.744
30751WAT     H192495   8.141   6.564   2.780
30751WAT     H292496   8.110   6.409   2.819
30752WAT      O92497   2.653   0.482   6.100
30752WAT     H192498   2.635   0.554   6.167
30752WAT     H292499   2.663   0.523   6.009
30753WAT      O92500   9.640   5.580   9.161
30753WAT     H192501   9.579   5.503   9.145
30753WAT     H292502   9.735   5.552   9.145
30754WAT      O92503   3.841   4.030   3.684
30754WAT     H192504   3.888   3.964   3.626
30754WAT     H292505   3.906   4.096   3.720
30755WAT      O92506   6.104   1.374   4.563
30755WAT     H192507   6.060   1.439   4.501
30755WAT     H292508   6.038   1.305   4.592
30756WAT      O92509   1.389   2.874   2.694
30756WAT     H192510   1.389   2.971   2.719
30756WAT     H292511   1.421   2.819   2.772
30757WAT      O92512   3.197   4.371   2.485
30757WAT     H192513   3.264   4.318   2.431
30757WAT     H292514   3.120   4.395   2.427
30758WAT      O92515   2.546   6.624   7.335
30758WAT     H192516   2.646   6.617   7.331
30758WAT     H292517   2.510   6.545   7.386
30759WAT      O92518   1.669   3.738   2.738
30759WAT     H192519   1.667   3.838   2.735
30759WAT     H292520   1.753   3.708   2.783
30760WAT      O92521   1.411   0.370   9.159
30760WAT     H192522   1.398   0.404   9.252
30760WAT     H292523   1.503   0.395   9.128
30761WAT      O92524   7.583   8.440   7.169
30761WAT     H192525   7.638   8.373   7.218
30761WAT     H292526   7.642   8.513   7.135
30762WAT      O92527   2.778   4.568   5.091
30762WAT     H192528   2.749   4.602   5.002
30762WAT     H292529   2.878   4.567   5.096
30763WAT      O92530   4.357   0.864   4.481
30763WAT     H192531   4.349   0.783   4.539
30763WAT     H292532   4.449   0.901   4.489
30764WAT      O92533   7.502   4.542   0.811
30764WAT     H192534   7.599   4.563   0.800
30764WAT     H292535   7.448   4.625   0.799
30765WAT      O92536   0.169   0.201   2.542
30765WAT     H192537   0.239   0.265   2.508
30765WAT     H292538   0.096   0.193   2.474
30766WAT      O92539   8.474   3.291   8.324
30766WAT     H192540   8.565   3.249   8.321
30766WAT     H292541   8.425   3.269   8.240
30767WAT      O92542   2.532   5.624   4.906
30767WAT     H192543   2.446   5.667   4.877
30767WAT     H292544   2.603   5.643   4.839
30768WAT      O92545   8.720   5.221   0.013
30768WAT     H192546   8.769   5.153   0.067
30768WAT     H292547   8.626   5.191   0.000
30769WAT      O92548   9.728   9.404   7.465
30769WAT     H192549   9.783   9.476   7.506
30769WAT     H292550   9.650   9.444   7.417
30770WAT      O92551   3.835   5.856   2.917
30770WAT     H192552   3.847   5.772   2.969
30770WAT     H292553   3.863   5.934   2.973
30771WAT      O92554   7.475   8.014   9.035
30771WAT     H192555   7.449   8.085   8.971
30771WAT     H292556   7.487   7.927   8.986
30772WAT      O92557   1.201   9.530   3.070
30772WAT     H192558   1.238   9.585   3.145
30772WAT     H292559   1.257   9.542   2.988
30773WAT      O92560   9.515   2.137   5.275
30773WAT     H192561   9.557   2.228   5.270
30773WAT     H292562   9.426   2.140   5.230
30774WAT      O92563   9.319   7.513   8.632
30774WAT     H192564   9.220   7.508   8.642
30774WAT     H292565   9.355   7.587   8.688
30775WAT      O92566   4.918   9.308   6.339
30775WAT     H192567   5.010   9.293   6.373
30775WAT     H292568   4.868   9.366   6.403
30776WAT      O92569   5.411   9.207   0.679
30776WAT     H192570   5.445   9.294   0.643
30776WAT     H292571   5.313   9.213   0.694
30777WAT      O92572   8.025   4.634   0.867
30777WAT     H192573   8.069   4.645   0.777
30777WAT     H292574   8.022   4.723   0.913
30778WAT      O92575   5.838   5.370   1.137
30778WAT     H192576   5.821   5.279   1.176
30778WAT     H292577   5.841   5.363   1.037
30779WAT      O92578   8.701   3.754   2.666
30779WAT     H192579   8.627   3.690   2.645
30779WAT     H292580   8.780   3.703   2.700
30780WAT      O92581   0.065   7.731   4.729
30780WAT     H192582  -0.026   7.703   4.700
30780WAT     H292583   0.128   7.653   4.720
30781WAT      O92584   6.468   4.207   1.789
30781WAT     H192585   6.533   4.136   1.817
30781WAT     H292586   6.395   4.166   1.735
30782WAT      O92587   3.315   7.475   2.682
30782WAT     H192588   3.313   7.562   2.632
30782WAT     H292589   3.229   7.464   2.732
30783WAT      O92590   4.170   5.907   7.586
30783WAT     H192591   4.117   5.905   7.671
30783WAT     H292592   4.197   5.814   7.561
30784WAT      O92593   0.057   8.878   5.996
30784WAT     H192594   0.134   8.831   5.951
30784WAT     H292595   0.004   8.812   6.049
30785WAT      O92596   8.886   2.070   3.462
30785WAT     H192597   8.965   2.050   3.519
30785WAT     H292598   8.868   2.169   3.464
30786WAT      O92599   3.692   9.139   2.588
30786WAT     H192600   3.730   9.111   2.500
30786WAT     H292601   3.735   9.224   2.619
30787WAT      O92602   7.876   2.342   1.890
30787WAT     H192603   7.795   2.400   1.900
30787WAT     H292604   7.901   2.335   1.794
30788WAT      O92605   4.214   5.648   5.717
30788WAT     H192606   4.205   5.707   5.637
30788WAT     H292607   4.299   5.669   5.765
30789WAT      O92608   6.587   3.288   6.968
30789WAT     H192609   6.527   3.334   6.903
30789WAT     H292610   6.597   3.344   7.050
30790WAT      O92611   0.641   2.119   9.785
30790WAT     H192612   0.623   2.081   9.876
30790WAT     H292613   0.736   2.103   9.760
30791WAT      O92614   7.988   1.169   1.041
30791WAT     H192615   7.979   1.072   1.062
30791WAT     H292616   8.004   1.181   0.943
30792WAT      O92617   1.563   7.224   2.821
30792WAT     H192618   1.502   7.262   2.891
30792WAT     H292619   1.654   7.264   2.830
30793WAT      O92620   1.937   3.632   9.558
30793WAT     H192621   1.915   3.730   9.562
30793WAT     H292622   2.006   3.616   9.488
30794WAT      O92623   3.351   7.418   0.921
30794WAT     H192624   3.335   7.516   0.911
30794WAT     H292625   3.405   7.401   1.004
30795WAT      O92626   5.619   5.373   2.608
30795WAT     H192627   5.630   5.471   2.627
30795WAT     H292628   5.696   5.342   2.552
30796WAT      O92629   2.135   2.522   8.893
30796WAT     H192630   2.174   2.601   8.845
30796WAT     H292631   2.205   2.483   8.954
30797WAT      O92632   4.082   5.710   9.241
30797WAT     H192633   4.078   5.671   9.333
30797WAT     H292634   4.024   5.791   9.237
30798WAT      O92635   8.989   6.442   2.609
30798WAT     H192636   8.979   6.404   2.518
30798WAT     H292637   9.026   6.535   2.603
30799WAT      O92638   0.643   6.348   2.553
30799WAT     H192639   0.721   6.408   2.539
30799WAT     H292640   0.650   6.304   2.643
30800WAT      O92641   6.745   7.060   7.655
30800WAT     H192642   6.791   6.999   7.719
30800WAT     H292643   6.680   7.009   7.599
30801WAT      O92644   8.591   7.564   4.831
30801WAT     H192645   8.656   7.590   4.903
30801WAT     H292646   8.501   7.546   4.872
30802WAT      O92647   5.951   1.223   8.523
30802WAT     H192648   5.894   1.141   8.532
30802WAT     H292649   5.897   1.303   8.547
30803WAT      O92650   6.580   6.661   5.522
30803WAT     H192651   6.540   6.589   5.465
30803WAT     H292652   6.675   6.638   5.544
30804WAT      O92653   8.807   2.780   0.208
30804WAT     H192654   8.769   2.800   0.117
30804WAT     H292655   8.764   2.697   0.244
30805WAT      O92656   8.104   3.712   6.074
30805WAT     H192657   8.083   3.747   6.165
30805WAT     H292658   8.025   3.727   6.014
30806WAT      O92659   9.351   3.400   1.206
30806WAT     H192660   9.349   3.302   1.226
30806WAT     H292661   9.408   3.416   1.125
30807WAT      O92662   9.036   9.547   6.141
30807WAT     H192663   8.979   9.619   6.179
30807WAT     H292664   9.057   9.568   6.046
30808WAT      O92665   8.357   3.830   8.737
30808WAT     H192666   8.280   3.878   8.695
30808WAT     H292667   8.330   3.736   8.758
30809WAT      O92668   3.573   9.359   7.196
30809WAT     H192669   3.564   9.446   7.245
30809WAT     H292670   3.625   9.295   7.252
30810WAT      O92671   9.167   2.908   5.337
30810WAT     H192672   9.133   2.816   5.315
30810WAT     H292673   9.102   2.976   5.302
30811WAT      O92674   3.475   2.516   2.309
30811WAT     H192675   3.502   2.519   2.406
30811WAT     H292676   3.543   2.564   2.254
30812WAT      O92677   8.432   7.911   7.078
30812WAT     H192678   8.468   7.843   7.014
30812WAT     H292679   8.380   7.865   7.149
30813WAT      O92680   4.349   6.206   2.897
30813WAT     H192681   4.338   6.301   2.928
30813WAT     H292682   4.268   6.153   2.925
30814WAT      O92683   8.144   0.176   5.645
30814WAT     H192684   8.214   0.247   5.631
30814WAT     H292685   8.121   0.170   5.742
30815WAT      O92686   6.298   5.832   9.075
30815WAT     H192687   6.232   5.827   9.150
30815WAT     H292688   6.361   5.908   9.091
30816WAT      O92689   2.449   6.041   4.407
30816WAT     H192690   2.462   5.976   4.481
30816WAT     H292691   2.442   5.992   4.320
30817WAT      O92692   5.832   7.784   9.329
30817WAT     H192693   5.909   7.810   9.387
30817WAT     H292694   5.771   7.723   9.379
30818WAT      O92695   1.207   2.241   2.250
30818WAT     H192696   1.210   2.183   2.332
30818WAT     H292697   1.216   2.184   2.168
30819WAT      O92698   3.071   1.527   7.021
30819WAT     H192699   3.167   1.537   7.046
30819WAT     H292700   3.032   1.447   7.067
30820WAT      O92701   6.381   6.064   3.680
30820WAT     H192702   6.306   6.012   3.720
30820WAT     H292703   6.466   6.044   3.730
30821WAT      O92704   2.627   3.430   1.770
30821WAT     H192705   2.582   3.343   1.751
30821WAT     H292706   2.701   3.444   1.704
30822WAT      O92707   5.346   7.519   5.945
30822WAT     H192708   5.399   7.471   6.015
30822WAT     H292709   5.408   7.556   5.877
30823WAT      O92710   7.007   3.530   5.301
30823WAT     H192711   6.917   3.556   5.268
30823WAT     H292712   7.057   3.611   5.330
30824WAT      O92713   5.322   9.112   3.671
30824WAT     H192714   5.320   9.063   3.759
30824WAT     H292715   5.243   9.084   3.616
30825WAT      O92716   0.677   2.556   8.782
30825WAT     H192717   0.713   2.546   8.689
30825WAT     H292718   0.584   2.591   8.777
30826WAT      O92719   4.318   8.545   0.137
30826WAT     H192720   4.315   8.610   0.061
30826WAT     H292721   4.387   8.575   0.203
30827WAT      O92722   9.631   4.074   4.747
30827WAT     H192723   9.713   4.066   4.805
30827WAT     H292724   9.649   4.140   4.674
30828WAT      O92725   6.939   3.925   6.042
30828WAT     H192726   6.916   3.850   6.105
30828WAT     H292727   6.895   3.909   5.954
30829WAT      O92728   9.033   7.850   4.759
30829WAT     H192729   9.035   7.792   4.678
30829WAT     H292730   9.079   7.803   4.835
30830WAT      O92731   2.928   4.124   1.714
30830WAT     H192732   2.867   4.063   1.765
30830WAT     H292733   3.012   4.075   1.690
30831WAT      O92734   5.320   8.128   4.684
30831WAT     H192735   5.286   8.081   4.766
30831WAT     H292736   5.403   8.178   4.706
30832WAT      O92737   9.226   1.860   1.012
30832WAT     H192738   9.230   1.955   1.042
30832WAT     H292739   9.289   1.805   1.067
30833WAT      O92740   8.253   6.251   3.553
30833WAT     H192741   8.261   6.253   3.454
30833WAT     H292742   8.194   6.175   3.581
30834WAT      O92743   5.572   6.188   0.867
30834WAT     H192744   5.572   6.177   0.767
30834WAT     H292745   5.620   6.272   0.891
30835WAT      O92746   2.243   3.777   9.631
30835WAT     H192747   2.199   3.690   9.608
30835WAT     H292748   2.206   3.849   9.573
30836WAT      O92749   9.327   7.438   7.769
30836WAT     H192750   9.303   7.478   7.858
30836WAT     H292751   9.256   7.375   7.740
30837WAT      O92752   8.423   9.531   5.671
30837WAT     H192753   8.351   9.552   5.605
30837WAT     H292754   8.445   9.433   5.667
30838WAT      O92755   2.551   6.874   6.782
30838WAT     H192756   2.502   6.810   6.841
30838WAT     H292757   2.628   6.914   6.832
30839WAT      O92758   9.815   2.719   9.653
30839WAT     H192759   9.886   2.661   9.691
30839WAT     H292760   9.728   2.669   9.651
30840WAT      O92761   8.169   2.343   3.457
30840WAT     H192762   8.181   2.350   3.556
30840WAT     H292763   8.072   2.333   3.436
30841WAT      O92764   0.493   1.683   8.172
30841WAT     H192765   0.451   1.601   8.211
30841WAT     H292766   0.582   1.698   8.214
30842WAT      O92767   3.548   9.341   3.872
30842WAT     H192768   3.534   9.314   3.777
30842WAT     H292769   3.522   9.437   3.884
30843WAT      O92770   2.647   2.026   2.408
30843WAT     H192771   2.739   2.063   2.395
30843WAT     H292772   2.624   1.965   2.333
30844WAT      O92773   8.083   3.778   1.314
30844WAT     H192774   8.072   3.875   1.337
30844WAT     H292775   8.120   3.769   1.222
30845WAT      O92776   7.429   6.997   3.651
30845WAT     H192777   7.483   6.938   3.712
30845WAT     H292778   7.358   6.943   3.606
30846WAT      O92779   6.732   9.325   5.144
30846WAT     H192780   6.802   9.396   5.140
30846WAT     H292781   6.754   9.254   5.077
30847WAT      O92782   8.600   2.044   3.149
30847WAT     H192783   8.526   2.034   3.083
30847WAT     H292784   8.563   2.038   3.242
30848WAT      O92785   3.144   1.434   1.229
30848WAT     H192786   3.111   1.382   1.308
30848WAT     H292787   3.244   1.429   1.226
30849WAT      O92788   0.914   9.387   8.679
30849WAT     H192789   1.004   9.373   8.639
30849WAT     H292790   0.844   9.346   8.621
30850WAT      O92791   6.795   0.771   0.419
30850WAT     H192792   6.884   0.729   0.435
30850WAT     H292793   6.806   0.853   0.363
30851WAT      O92794   2.196   5.537   1.654
30851WAT     H192795   2.278   5.488   1.623
30851WAT     H292796   2.221   5.601   1.726
30852WAT      O92797   9.172   6.742   0.158
30852WAT     H192798   9.155   6.770   0.252
30852WAT     H292799   9.249   6.678   0.155
30853WAT      O92800   2.855   9.602   4.221
30853WAT     H192801   2.827   9.683   4.169
30853WAT     H292802   2.866   9.627   4.317
30854WAT      O92803   1.556   6.263   0.909
30854WAT     H192804   1.569   6.355   0.871
30854WAT     H292805   1.459   6.238   0.904
30855WAT      O92806   0.835   1.333   7.530
30855WAT     H192807   0.767   1.396   7.492
30855WAT     H292808   0.788   1.263   7.585
30856WAT      O92809   6.127   7.103   9.779
30856WAT     H192810   6.054   7.041   9.748
30856WAT     H292811   6.099   7.148   9.863
30857WAT      O92812   9.369   8.427   2.086
30857WAT     H192813   9.314   8.476   2.153
30857WAT     H292814   9.464   8.459   2.090
30858WAT      O92815   5.836   7.445   5.394
30858WAT     H192816   5.801   7.410   5.307
30858WAT     H292817   5.869   7.538   5.382
30859WAT      O92818   0.739   6.122   8.451
30859WAT     H192819   0.679   6.111   8.530
30859WAT     H292820   0.827   6.079   8.470
30860WAT      O92821   1.576   3.486   1.254
30860WAT     H192822   1.551   3.391   1.234
30860WAT     H292823   1.614   3.529   1.172
30861WAT      O92824   9.079   7.266   0.947
30861WAT     H192825   9.027   7.296   0.867
30861WAT     H292826   9.103   7.345   1.003
30862WAT      O92827   1.207   1.957   0.031
30862WAT     H192828   1.254   1.869   0.020
30862WAT     H292829   1.230   1.996   0.120
30863WAT      O92830   9.664   1.366   9.878
30863WAT     H192831   9.571   1.380   9.911
30863WAT     H292832   9.708   1.293   9.931
30864WAT      O92833   6.991   8.751   6.321
30864WAT     H192834   6.981   8.850   6.324
30864WAT     H292835   7.066   8.727   6.260
30865WAT      O92836   6.089   8.403   2.061
30865WAT     H192837   6.011   8.360   2.106
30865WAT     H292838   6.167   8.341   2.063
30866WAT      O92839   5.059   6.607   4.150
30866WAT     H192840   5.056   6.624   4.248
30866WAT     H292841   5.148   6.631   4.113
30867WAT      O92842   7.860   1.553   4.936
30867WAT     H192843   7.893   1.459   4.938
30867WAT     H292844   7.761   1.554   4.918
30868WAT      O92845   7.743   9.026   1.461
30868WAT     H192846   7.721   9.119   1.492
30868WAT     H292847   7.796   8.978   1.531
30869WAT      O92848   1.744   9.540   6.769
30869WAT     H192849   1.795   9.614   6.725
30869WAT     H292850   1.731   9.561   6.866
30870WAT      O92851   3.189   4.607   8.982
30870WAT     H192852   3.264   4.549   9.013
30870WAT     H292853   3.105   4.552   8.975
30871WAT      O92854   4.019   6.870   8.968
30871WAT     H192855   4.095   6.891   8.906
30871WAT     H292856   4.043   6.791   9.024
30872WAT      O92857   8.441   5.905   0.903
30872WAT     H192858   8.356   5.913   0.955
30872WAT     H292859   8.423   5.859   0.816
30873WAT      O92860   3.291   8.817   1.228
30873WAT     H192861   3.296   8.917   1.221
30873WAT     H292862   3.196   8.788   1.228
30874WAT      O92863   2.524   7.356   1.656
30874WAT     H192864   2.552   7.271   1.700
30874WAT     H292865   2.462   7.335   1.580
30875WAT      O92866   6.111   6.314   6.166
30875WAT     H192867   6.058   6.381   6.114
30875WAT     H292868   6.100   6.223   6.124
30876WAT      O92869   2.364   8.226   2.214
30876WAT     H192870   2.324   8.134   2.217
30876WAT     H292871   2.444   8.226   2.153
30877WAT      O92872   4.649   7.147   2.158
30877WAT     H192873   4.629   7.171   2.253
30877WAT     H292874   4.633   7.049   2.145
30878WAT      O92875   7.187   9.297   5.776
30878WAT     H192876   7.170   9.325   5.681
30878WAT     H292877   7.166   9.200   5.786
30879WAT      O92878   3.253   8.412   5.251
30879WAT     H192879   3.169   8.380   5.207
30879WAT     H292880   3.273   8.505   5.221
30880WAT      O92881   0.022   7.802   6.905
30880WAT     H192882   0.085   7.747   6.959
30880WAT     H292883  -0.044   7.742   6.860
30881WAT      O92884   4.456   9.266   8.161
30881WAT     H192885   4.409   9.214   8.090
30881WAT     H292886   4.400   9.265   8.245
30882WAT      O92887   4.685   5.410   2.828
30882WAT     H192888   4.770   5.365   2.800
30882WAT     H292889   4.701   5.508   2.841
30883WAT      O92890   1.694   1.792   2.586
30883WAT     H192891   1.629   1.745   2.525
30883WAT     H292892   1.728   1.874   2.541
30884WAT      O92893   4.232   0.458   1.707
30884WAT     H192894   4.268   0.365   1.701
30884WAT     H292895   4.148   0.465   1.654
30885WAT      O92896   7.046   7.769   8.935
30885WAT     H192897   7.111   7.720   8.994
30885WAT     H292898   6.953   7.744   8.960
30886WAT      O92899   7.666   8.064   3.717
30886WAT     H192900   7.654   8.163   3.721
30886WAT     H292901   7.755   8.039   3.755
30887WAT      O92902   1.001   4.299   9.467
30887WAT     H192903   0.907   4.266   9.469
30887WAT     H292904   1.004   4.392   9.432
30888WAT      O92905   9.765   4.241   0.668
30888WAT     H192906   9.829   4.307   0.630
30888WAT     H292907   9.738   4.270   0.760
30889WAT      O92908   9.013   5.976   4.812
30889WAT     H192909   9.063   5.936   4.735
30889WAT     H292910   9.023   5.917   4.892
30890WAT      O92911   2.096   5.029   2.846
30890WAT     H192912   2.008   4.992   2.818
30890WAT     H292913   2.088   5.072   2.936
30891WAT      O92914   2.674   0.185   2.817
30891WAT     H192915   2.742   0.216   2.882
30891WAT     H292916   2.617   0.115   2.859
30892WAT      O92917   8.968   6.239   2.809
30892WAT     H192918   8.960   6.314   2.743
30892WAT     H292919   8.879   6.195   2.821
30893WAT      O92920   6.960   3.859   3.888
30893WAT     H192921   6.861   3.860   3.901
30893WAT     H292922   7.004   3.911   3.962
30894WAT      O92923   6.852   8.267   0.121
30894WAT     H192924   6.790   8.326   0.070
30894WAT     H292925   6.946   8.281   0.090
30895WAT      O92926   6.581   0.825   0.554
30895WAT     H192927   6.664   0.792   0.510
30895WAT     H292928   6.527   0.878   0.489
30896WAT      O92929   3.349   3.983   4.029
30896WAT     H192930   3.432   3.984   3.974
30896WAT     H292931   3.296   4.065   4.011
30897WAT      O92932   7.755   6.503   3.765
30897WAT     H192933   7.814   6.477   3.688
30897WAT     H292934   7.813   6.536   3.841
30898WAT      O92935   0.255   5.148   1.049
30898WAT     H192936   0.355   5.145   1.046
30898WAT     H292937   0.220   5.149   0.955
30899WAT      O92938   2.272   7.305   1.829
30899WAT     H192939   2.350   7.248   1.855
30899WAT     H292940   2.228   7.266   1.747
30900WAT      O92941   5.652   0.047   6.879
30900WAT     H192942   5.750   0.027   6.870
30900WAT     H292943   5.640   0.137   6.920
30901WAT      O92944   8.334   9.191   3.730
30901WAT     H192945   8.407   9.124   3.713
30901WAT     H292946   8.346   9.229   3.821
30902WAT      O92947   3.336   9.048   6.632
30902WAT     H192948   3.366   9.138   6.666
30902WAT     H292949   3.240   9.035   6.655
30903WAT      O92950   8.509   5.622   7.703
30903WAT     H192951   8.517   5.551   7.634
30903WAT     H292952   8.413   5.644   7.719
30904WAT      O92953   0.008   0.689   4.083
30904WAT     H192954   0.029   0.599   4.045
30904WAT     H292955   0.085   0.751   4.068
30905WAT      O92956   3.751   7.498   1.013
30905WAT     H192957   3.840   7.495   1.059
30905WAT     H292958   3.683   7.539   1.073
30906WAT      O92959   3.958   3.490   8.074
30906WAT     H192960   3.865   3.487   8.111
30906WAT     H292961   3.962   3.555   7.999
30907WAT      O92962   0.519   5.886   8.849
30907WAT     H192963   0.449   5.899   8.920
30907WAT     H292964   0.589   5.823   8.883
30908WAT      O92965   6.864   5.031   2.991
30908WAT     H192966   6.787   5.094   2.999
30908WAT     H292967   6.858   4.961   3.062
30909WAT      O92968   8.086   9.798   3.691
30909WAT     H192969   8.156   9.835   3.630
30909WAT     H292970   8.023   9.741   3.638
30910WAT      O92971   2.815   7.811   5.046
30910WAT     H192972   2.747   7.878   5.075
30910WAT     H292973   2.904   7.855   5.038
30911WAT      O92974   2.597   6.788   0.156
30911WAT     H192975   2.647   6.701   0.155
30911WAT     H292976   2.611   6.835   0.069
30912WAT      O92977   7.943   6.764   7.333
30912WAT     H192978   8.030   6.733   7.294
30912WAT     H292979   7.902   6.691   7.387
30913WAT      O92980   4.157   6.032   4.824
30913WAT     H192981   4.182   5.964   4.894
30913WAT     H292982   4.233   6.045   4.761
30914WAT      O92983   7.099   3.825   6.923
30914WAT     H192984   7.091   3.915   6.965
30914WAT     H292985   7.051   3.758   6.979
30915WAT      O92986   3.840   1.439   1.477
30915WAT     H192987   3.774   1.389   1.534
30915WAT     H292988   3.920   1.463   1.533
30916WAT      O92989   9.724   9.659   2.336
30916WAT     H192990   9.641   9.643   2.390
30916WAT     H292991   9.779   9.729   2.381
30917WAT      O92992   2.853   0.008   4.495
30917WAT     H192993   2.756   0.028   4.509
30917WAT     H292994   2.905   0.093   4.500
30918WAT      O92995   3.827   4.091   1.266
30918WAT     H192996   3.773   4.048   1.338
30918WAT     H292997   3.921   4.056   1.270
30919WAT      O92998   1.047   0.152   1.982
30919WAT     H192999   0.998   0.087   2.040
30919WAT     H293000   1.134   0.112   1.953
30920WAT      O93001   2.616   9.535   7.615
30920WAT     H193002   2.664   9.483   7.545
30920WAT     H293003   2.522   9.503   7.622
30921WAT      O93004   8.045   9.074   9.877
30921WAT     H193005   8.122   9.012   9.889
30921WAT     H293006   8.034   9.130   9.959
30922WAT      O93007   2.339   8.929   9.804
30922WAT     H193008   2.406   8.855   9.807
30922WAT     H293009   2.382   9.015   9.832
30923WAT      O93010   9.746   7.738   9.395
30923WAT     H193011   9.710   7.798   9.467
30923WAT     H293012   9.766   7.648   9.434
30924WAT      O93013   8.214   4.732   4.559
30924WAT     H193014   8.284   4.664   4.583
30924WAT     H293015   8.258   4.810   4.514
30925WAT      O93016   6.030   5.037   1.520
30925WAT     H193017   6.111   5.095   1.509
30925WAT     H293018   6.059   4.943   1.540
30926WAT      O93019   4.331   0.401   9.308
30926WAT     H193020   4.380   0.487   9.298
30926WAT     H293021   4.351   0.342   9.229
30927WAT      O93022   7.969   4.486   5.479
30927WAT     H193023   8.021   4.548   5.538
30927WAT     H293024   7.880   4.467   5.521
30928WAT      O93025   8.416   3.900   5.119
30928WAT     H193026   8.425   3.898   5.219
30928WAT     H293027   8.476   3.829   5.079
30929WAT      O93028   0.813   9.103   3.401
30929WAT     H193029   0.815   9.019   3.455
30929WAT     H293030   0.776   9.178   3.457
30930WAT      O93031   1.639   5.757   4.949
30930WAT     H193032   1.649   5.713   4.860
30930WAT     H293033   1.552   5.807   4.952
30931WAT      O93034   8.686   1.422   4.165
30931WAT     H193035   8.632   1.383   4.240
30931WAT     H293036   8.650   1.511   4.141
30932WAT      O93037   5.195   5.941   0.812
30932WAT     H193038   5.254   5.898   0.880
30932WAT     H293039   5.188   5.882   0.731
30933WAT      O93040   1.105   6.862   5.762
30933WAT     H193041   1.019   6.903   5.732
30933WAT     H293042   1.168   6.857   5.685
30934WAT      O93043   3.346   5.734   8.525
30934WAT     H193044   3.309   5.771   8.440
30934WAT     H293045   3.335   5.801   8.598
30935WAT      O93046   8.452   9.243   2.058
30935WAT     H193047   8.396   9.313   2.103
30935WAT     H293048   8.542   9.239   2.102
30936WAT      O93049   7.951   9.585   7.016
30936WAT     H193050   8.025   9.518   7.026
30936WAT     H293051   7.982   9.674   7.051
30937WAT      O93052   3.015   5.720   3.934
30937WAT     H193053   3.041   5.655   3.863
30937WAT     H293054   3.064   5.698   4.019
30938WAT      O93055   9.317   9.337   0.489
30938WAT     H193056   9.270   9.250   0.473
30938WAT     H293057   9.416   9.320   0.496
30939WAT      O93058   0.291   3.378   9.368
30939WAT     H193059   0.346   3.395   9.450
30939WAT     H293060   0.294   3.459   9.309
30940WAT      O93061   6.717   7.676   7.941
30940WAT     H193062   6.673   7.660   7.852
30940WAT     H293063   6.710   7.773   7.965
30941WAT      O93064   4.596   4.090   1.783
30941WAT     H193065   4.514   4.074   1.838
30941WAT     H293066   4.677   4.066   1.837
30942WAT      O93067   9.255   6.710   0.445
30942WAT     H193068   9.323   6.759   0.390
30942WAT     H293069   9.284   6.711   0.541
30943WAT      O93070   4.414   3.362   8.483
30943WAT     H193071   4.469   3.402   8.410
30943WAT     H293072   4.384   3.270   8.455
30944WAT      O93073   7.081   8.306   0.003
30944WAT     H193074   7.086   8.390   0.058
30944WAT     H293075   7.172   8.279  -0.026
30945WAT      O93076   5.398   8.019   5.880
30945WAT     H193077   5.378   8.086   5.952
30945WAT     H293078   5.466   8.057   5.818
30946WAT      O93079   6.946   0.972   4.803
30946WAT     H193080   7.027   1.018   4.840
30946WAT     H293081   6.957   0.961   4.704
30947WAT      O93082   4.054   2.518   4.932
30947WAT     H193083   4.142   2.565   4.936
30947WAT     H293084   3.991   2.559   4.998
30948WAT      O93085   6.976   9.413   8.871
30948WAT     H193086   6.997   9.342   8.938
30948WAT     H293087   7.058   9.466   8.851
30949WAT      O93088   3.388   5.732   5.607
30949WAT     H193089   3.334   5.721   5.691
30949WAT     H293090   3.481   5.701   5.623
30950WAT      O93091   8.434   1.720   3.412
30950WAT     H193092   8.347   1.686   3.447
30950WAT     H293093   8.435   1.820   3.416
30951WAT      O93094   7.979   2.841   7.727
30951WAT     H193095   7.900   2.884   7.684
30951WAT     H293096   8.058   2.847   7.666
30952WAT      O93097   5.332   7.958   6.805
30952WAT     H193098   5.402   7.975   6.736
30952WAT     H293099   5.335   7.862   6.833
30953WAT      O93100   3.507   7.471   9.391
30953WAT     H193101   3.453   7.528   9.453
30953WAT     H293102   3.576   7.526   9.345
30954WAT      O93103   5.548   4.188   0.857
30954WAT     H193104   5.528   4.181   0.759
30954WAT     H293105   5.590   4.276   0.877
30955WAT      O93106   7.833   3.087   9.717
30955WAT     H193107   7.792   3.134   9.640
30955WAT     H293108   7.776   3.098   9.798
30956WAT      O93109   9.862   3.350   2.260
30956WAT     H193110   9.804   3.270   2.245
30956WAT     H293111   9.920   3.335   2.341
30957WAT      O93112   2.338   3.431   9.638
30957WAT     H193113   2.423   3.424   9.587
30957WAT     H293114   2.357   3.466   9.730
30958WAT      O93115   6.313   1.650   7.978
30958WAT     H193116   6.367   1.676   8.058
30958WAT     H293117   6.317   1.723   7.910
30959WAT      O93118   8.705   5.114   8.259
30959WAT     H193119   8.664   5.132   8.170
30959WAT     H293120   8.782   5.052   8.250
30960WAT      O93121   4.680   5.955   6.057
30960WAT     H193122   4.707   5.898   5.979
30960WAT     H293123   4.716   6.048   6.044
30961WAT      O93124   2.875   6.767   9.846
30961WAT     H193125   2.966   6.735   9.871
30961WAT     H293126   2.833   6.702   9.783
30962WAT      O93127   7.873   0.341   8.492
30962WAT     H193128   7.817   0.284   8.552
30962WAT     H293129   7.880   0.434   8.530
30963WAT      O93130   0.159   4.159   6.411
30963WAT     H193131   0.087   4.203   6.359
30963WAT     H293132   0.238   4.143   6.352
30964WAT      O93133   0.199   1.343   6.415
30964WAT     H193134   0.148   1.342   6.329
30964WAT     H293135   0.259   1.423   6.418
30965WAT      O93136   1.392   3.629   2.885
30965WAT     H193137   1.388   3.651   2.787
30965WAT     H293138   1.482   3.589   2.906
30966WAT      O93139   9.054   1.899   1.790
30966WAT     H193140   8.988   1.839   1.835
30966WAT     H293141   9.146   1.877   1.820
30967WAT      O93142   7.193   3.441   7.120
30967WAT     H193143   7.103   3.481   7.136
30967WAT     H293144   7.186   3.341   7.122
30968WAT      O93145   9.750   2.122   2.011
30968WAT     H193146   9.814   2.105   1.936
30968WAT     H293147   9.795   2.102   2.099
30969WAT      O93148   9.431   8.179   0.728
30969WAT     H193149   9.387   8.223   0.806
30969WAT     H293150   9.369   8.179   0.650
30970WAT      O93151   7.523   5.831   1.941
30970WAT     H193152   7.482   5.895   1.875
30970WAT     H293153   7.562   5.882   2.017
30971WAT      O93154   2.687   5.085   9.292
30971WAT     H193155   2.647   5.031   9.218
30971WAT     H293156   2.680   5.182   9.270
30972WAT      O93157   2.033   3.866   0.925
30972WAT     H193158   2.126   3.839   0.902
30972WAT     H293159   2.019   3.963   0.902
30973WAT      O93160   8.575   0.461   6.578
30973WAT     H193161   8.528   0.546   6.602
30973WAT     H293162   8.631   0.431   6.656
30974WAT      O93163   2.673   9.313   0.343
30974WAT     H193164   2.715   9.346   0.259
30974WAT     H293165   2.596   9.252   0.320
30975WAT      O93166   9.036   3.801   5.198
30975WAT     H193167   9.083   3.719   5.231
30975WAT     H293168   8.950   3.812   5.248
30976WAT      O93169   6.059   4.099   2.688
30976WAT     H193170   5.968   4.141   2.687
30976WAT     H293171   6.100   4.105   2.597
30977WAT      O93172   7.160   2.285   6.977
30977WAT     H193173   7.256   2.292   6.950
30977WAT     H293174   7.140   2.350   7.050
30978WAT      O93175   7.300   8.681   8.053
30978WAT     H193176   7.378   8.711   8.108
30978WAT     H293177   7.331   8.660   7.960
30979WAT      O93178   1.107   2.744   4.354
30979WAT     H193179   1.152   2.661   4.323
30979WAT     H293180   1.159   2.824   4.324
30980WAT      O93181   2.594   9.369   4.905
30980WAT     H193182   2.520   9.436   4.904
30980WAT     H293183   2.607   9.334   4.812
30981WAT      O93184   8.522   2.476   9.849
30981WAT     H193185   8.611   2.459   9.805
30981WAT     H293186   8.453   2.493   9.778
30982WAT      O93187   9.087   5.304   5.716
30982WAT     H193188   9.108   5.384   5.659
30982WAT     H293189   8.988   5.299   5.729
30983WAT      O93190   8.821   4.969   1.423
30983WAT     H193191   8.784   4.921   1.502
30983WAT     H293192   8.748   5.019   1.376
30984WAT      O93193   6.624   1.782   5.870
30984WAT     H193194   6.716   1.772   5.830
30984WAT     H293195   6.605   1.879   5.884
30985WAT      O93196   4.237   5.258   4.736
30985WAT     H193197   4.151   5.211   4.715
30985WAT     H293198   4.219   5.353   4.758
30986WAT      O93199   6.557   6.240   5.689
30986WAT     H193200   6.550   6.292   5.774
30986WAT     H293201   6.534   6.144   5.706
30987WAT      O93202   1.292   0.336   1.747
30987WAT     H193203   1.351   0.415   1.730
30987WAT     H293204   1.283   0.283   1.662
30988WAT      O93205   7.720   2.341   8.076
30988WAT     H193206   7.656   2.413   8.051
30988WAT     H293207   7.755   2.358   8.168
30989WAT      O93208   5.962   3.893   5.801
30989WAT     H193209   5.909   3.842   5.732
30989WAT     H293210   6.020   3.829   5.852
30990WAT      O93211   2.329   6.874   2.552
30990WAT     H193212   2.427   6.893   2.545
30990WAT     H293213   2.298   6.893   2.645
30991WAT      O93214   0.952   7.295   2.754
30991WAT     H193215   1.051   7.301   2.769
30991WAT     H293216   0.913   7.230   2.819
30992WAT      O93217   1.636   0.488   6.927
30992WAT     H193218   1.708   0.550   6.958
30992WAT     H293219   1.676   0.416   6.871
30993WAT      O93220   7.495   3.244   2.544
30993WAT     H193221   7.530   3.296   2.622
30993WAT     H293222   7.550   3.161   2.531
30994WAT      O93223   1.560   3.020   8.991
30994WAT     H193224   1.488   2.958   9.019
30994WAT     H293225   1.525   3.114   8.989
30995WAT      O93226   4.399   1.644   3.338
30995WAT     H193227   4.388   1.737   3.303
30995WAT     H293228   4.487   1.636   3.385
30996WAT      O93229   0.397   9.750   6.032
30996WAT     H193230   0.403   9.765   6.131
30996WAT     H293231   0.314   9.792   5.996
30997WAT      O93232   1.576   9.490   3.370
30997WAT     H193233   1.654   9.551   3.351
30997WAT     H293234   1.493   9.530   3.332
30998WAT      O93235   1.004   5.252   3.662
30998WAT     H193236   0.927   5.226   3.721
30998WAT     H293237   1.066   5.312   3.713
30999WAT      O93238   8.001   9.230   0.208
30999WAT     H193239   7.978   9.207   0.302
30999WAT     H293240   7.998   9.330   0.196
31000WAT      O93241   9.154   2.471   2.846
31000WAT     H193242   9.226   2.409   2.876
31000WAT     H293243   9.086   2.482   2.919
31001WAT      O93244   1.213   1.457   3.400
31001WAT     H193245   1.144   1.509   3.350
31001WAT     H293246   1.296   1.449   3.345
31002WAT      O93247   4.784   7.805   7.265
31002WAT     H193248   4.792   7.729   7.201
31002WAT     H293249   4.822   7.779   7.353
31003WAT      O93250   2.741   8.867   2.651
31003WAT     H193251   2.820   8.807   2.643
31003WAT     H293252   2.712   8.896   2.559
31004WAT      O93253   8.532   2.421   5.259
31004WAT     H193254   8.517   2.436   5.161
31004WAT     H293255   8.448   2.386   5.301
31005WAT      O93256   5.977   1.243   6.417
31005WAT     H193257   6.052   1.219   6.355
31005WAT     H293258   5.927   1.160   6.441
31006WAT      O93259   7.582   4.768   0.408
31006WAT     H193260   7.563   4.762   0.310
31006WAT     H293261   7.496   4.782   0.458
31007WAT      O93262   3.889   2.255   4.274
31007WAT     H193263   3.870   2.348   4.242
31007WAT     H293264   3.977   2.224   4.238
31008WAT      O93265   7.667   9.566   6.996
31008WAT     H193266   7.762   9.583   7.023
31008WAT     H293267   7.640   9.474   7.023
31009WAT      O93268   1.171   7.695   8.724
31009WAT     H193269   1.261   7.665   8.756
31009WAT     H293270   1.111   7.616   8.713
31010WAT      O93271   6.110   2.130   8.042
31010WAT     H193272   6.029   2.126   7.984
31010WAT     H293273   6.189   2.154   7.986
31011WAT      O93274   6.016   2.758   1.515
31011WAT     H193275   5.958   2.704   1.577
31011WAT     H293276   6.101   2.708   1.497
31012WAT      O93277   8.884   7.906   9.211
31012WAT     H193278   8.830   7.866   9.285
31012WAT     H293279   8.874   7.851   9.128
31013WAT      O93280   7.363   6.269   6.917
31013WAT     H193281   7.295   6.294   6.847
31013WAT     H293282   7.353   6.330   6.996
31014WAT      O93283   3.974   9.503   8.726
31014WAT     H193284   3.958   9.464   8.817
31014WAT     H293285   3.935   9.595   8.722
31015WAT      O93286   5.489   5.031   2.072
31015WAT     H193287   5.516   4.935   2.069
31015WAT     H293288   5.527   5.074   2.154
31016WAT      O93289   7.296   7.511   3.369
31016WAT     H193290   7.370   7.570   3.337
31016WAT     H293291   7.308   7.493   3.467
31017WAT      O93292   1.432   1.371   3.255
31017WAT     H193293   1.475   1.281   3.254
31017WAT     H293294   1.501   1.441   3.237
31018WAT      O93295   7.566   3.017   4.642
31018WAT     H193296   7.616   2.970   4.714
31018WAT     H293297   7.598   3.112   4.636
31019WAT      O93298   6.147   1.547   8.703
31019WAT     H193299   6.049   1.564   8.689
31019WAT     H293300   6.168   1.452   8.680
31020WAT      O93301   7.722   6.707   4.318
31020WAT     H193302   7.654   6.763   4.271
31020WAT     H293303   7.677   6.657   4.392
31021WAT      O93304   7.438   2.694   3.419
31021WAT     H193305   7.468   2.775   3.369
31021WAT     H293306   7.382   2.722   3.497
31022WAT      O93307   6.204   4.993   8.882
31022WAT     H193308   6.159   5.069   8.836
31022WAT     H293309   6.168   4.907   8.847
31023WAT      O93310   5.974   2.291   1.976
31023WAT     H193311   6.047   2.347   2.017
31023WAT     H293312   5.969   2.203   2.023
31024WAT      O93313   2.770   9.340   1.788
31024WAT     H193314   2.775   9.415   1.723
31024WAT     H293315   2.709   9.269   1.752
31025WAT      O93316   0.225   1.870   9.248
31025WAT     H193317   0.163   1.794   9.229
31025WAT     H293318   0.184   1.931   9.315
31026WAT      O93319   6.363   4.285   4.017
31026WAT     H193320   6.415   4.370   4.027
31026WAT     H293321   6.291   4.281   4.086
31027WAT      O93322   0.379   3.462   6.353
31027WAT     H193323   0.325   3.457   6.269
31027WAT     H293324   0.318   3.479   6.431
31028WAT      O93325   1.754   9.238   3.985
31028WAT     H193326   1.663   9.232   3.944
31028WAT     H293327   1.749   9.287   4.071
31029WAT      O93328   5.788   8.754   3.343
31029WAT     H193329   5.766   8.668   3.389
31029WAT     H293330   5.704   8.806   3.327
31030WAT      O93331   3.462   8.486   2.702
31030WAT     H193332   3.459   8.539   2.787
31030WAT     H293333   3.532   8.415   2.710
31031WAT      O93334   9.453   4.435   3.580
31031WAT     H193335   9.422   4.355   3.529
31031WAT     H293336   9.379   4.467   3.640
31032WAT      O93337   3.018   6.338   7.658
31032WAT     H193338   3.058   6.273   7.723
31032WAT     H293339   2.918   6.333   7.662
31033WAT      O93340   4.639   3.511   4.610
31033WAT     H193341   4.573   3.435   4.606
31033WAT     H293342   4.600   3.586   4.664
31034WAT      O93343   7.865   5.680   9.415
31034WAT     H193344   7.785   5.716   9.462
31034WAT     H293345   7.910   5.613   9.475
31035WAT      O93346   0.285   8.412   3.213
31035WAT     H193347   0.325   8.323   3.233
31035WAT     H293348   0.287   8.428   3.114
31036WAT      O93349   7.852   3.293   7.648
31036WAT     H193350   7.800   3.339   7.576
31036WAT     H293351   7.807   3.207   7.673
31037WAT      O93352   2.362   5.648   4.631
31037WAT     H193353   2.322   5.693   4.711
31037WAT     H293354   2.295   5.584   4.593
31038WAT      O93355   0.226   4.547   0.762
31038WAT     H193356   0.256   4.521   0.854
31038WAT     H293357   0.304   4.584   0.711
31039WAT      O93358   6.340   4.272   9.384
31039WAT     H193359   6.282   4.319   9.450
31039WAT     H293360   6.434   4.269   9.417
31040WAT      O93361   5.074   2.195   4.845
31040WAT     H193362   5.163   2.191   4.799
31040WAT     H293363   5.076   2.133   4.924
31041WAT      O93364   2.923   1.496   7.318
31041WAT     H193365   2.934   1.588   7.280
31041WAT     H293366   2.870   1.439   7.254
31042WAT      O93367   6.732   4.790   8.440
31042WAT     H193368   6.729   4.775   8.341
31042WAT     H293369   6.640   4.782   8.478
31043WAT      O93370   7.198   8.972   2.917
31043WAT     H193371   7.272   9.023   2.962
31043WAT     H293372   7.110   9.007   2.949
31044WAT      O93373   2.233   2.311   4.184
31044WAT     H193374   2.238   2.306   4.084
31044WAT     H293375   2.209   2.404   4.211
31045WAT      O93376   7.150   4.533   2.788
31045WAT     H193377   7.071   4.522   2.728
31045WAT     H293378   7.119   4.556   2.880
31046WAT      O93379   7.670   1.907   9.816
31046WAT     H193380   7.642   1.987   9.763
31046WAT     H293381   7.593   1.843   9.822
31047WAT      O93382   1.557   0.930   7.507
31047WAT     H193383   1.634   0.992   7.494
31047WAT     H293384   1.471   0.979   7.495
31048WAT      O93385   0.558   0.745   2.551
31048WAT     H193386   0.562   0.820   2.616
31048WAT     H293387   0.573   0.780   2.458
31049WAT      O93388   0.684   4.267   4.457
31049WAT     H193389   0.676   4.282   4.555
31049WAT     H293390   0.778   4.285   4.428
31050WAT      O93391   6.323   0.572   0.295
31050WAT     H193392   6.356   0.579   0.389
31050WAT     H293393   6.223   0.560   0.295
31051WAT      O93394   3.134   8.819   2.432
31051WAT     H193395   3.213   8.877   2.411
31051WAT     H293396   3.068   8.824   2.356
31052WAT      O93397   0.474   4.541   5.709
31052WAT     H193398   0.384   4.578   5.687
31052WAT     H293399   0.544   4.589   5.656
31053WAT      O93400   9.381   5.844   6.308
31053WAT     H193401   9.379   5.901   6.226
31053WAT     H293402   9.458   5.781   6.303
31054WAT      O93403   2.072   2.928   1.431
31054WAT     H193404   2.070   2.843   1.379
31054WAT     H293405   2.083   3.005   1.369
31055WAT      O93406   6.699   7.082   8.229
31055WAT     H193407   6.790   7.046   8.248
31055WAT     H293408   6.634   7.048   8.297
31056WAT      O93409   6.343   6.514   4.978
31056WAT     H193410   6.356   6.611   4.999
31056WAT     H293411   6.322   6.464   5.063
31057WAT      O93412   8.196   2.215   4.982
31057WAT     H193413   8.215   2.265   4.898
31057WAT     H293414   8.281   2.199   5.031
31058WAT      O93415   8.019   4.872   1.003
31058WAT     H193416   7.965   4.956   1.002
31058WAT     H293417   8.115   4.894   0.981
31059WAT      O93418   2.578   8.617   8.883
31059WAT     H193419   2.522   8.688   8.841
31059WAT     H293420   2.673   8.647   8.887
31060WAT      O93421   8.793   5.124   6.545
31060WAT     H193422   8.847   5.047   6.578
31060WAT     H293423   8.717   5.141   6.608
31061WAT      O93424   2.109   2.053   5.117
31061WAT     H193425   2.131   2.026   5.211
31061WAT     H293426   2.055   1.981   5.074
31062WAT      O93427   1.893   0.687   4.174
31062WAT     H193428   1.899   0.765   4.112
31062WAT     H293429   1.954   0.702   4.252
31063WAT      O93430   3.205   1.577   5.726
31063WAT     H193431   3.177   1.658   5.778
31063WAT     H293432   3.151   1.572   5.642
31064WAT      O93433   0.471   8.352   9.168
31064WAT     H193434   0.472   8.260   9.130
31064WAT     H293435   0.428   8.414   9.102
31065WAT      O93436   0.369   1.069   9.616
31065WAT     H193437   0.352   0.971   9.627
31065WAT     H293438   0.467   1.086   9.623
31066WAT      O93439   4.538   7.322   8.486
31066WAT     H193440   4.499   7.280   8.568
31066WAT     H293441   4.631   7.287   8.472
31067WAT      O93442   1.511   1.258   7.317
31067WAT     H193443   1.581   1.288   7.382
31067WAT     H293444   1.444   1.331   7.304
31068WAT      O93445   5.777   2.565   3.773
31068WAT     H193446   5.742   2.487   3.722
31068WAT     H293447   5.703   2.604   3.829
31069WAT      O93448   3.489   1.332   8.589
31069WAT     H193449   3.458   1.392   8.516
31069WAT     H293450   3.491   1.383   8.675
31070WAT      O93451   0.412   2.802   2.980
31070WAT     H193452   0.346   2.842   2.916
31070WAT     H293453   0.433   2.868   3.052
31071WAT      O93454   1.633   5.894   3.037
31071WAT     H193455   1.719   5.871   3.082
31071WAT     H293456   1.561   5.901   3.105
31072WAT      O93457   8.923   2.926   4.178
31072WAT     H193458   8.878   2.853   4.229
31072WAT     H293459   8.854   2.985   4.135
31073WAT      O93460   5.320   2.715   4.807
31073WAT     H193461   5.327   2.805   4.851
31073WAT     H293462   5.225   2.685   4.808
31074WAT      O93463   1.479   7.743   2.686
31074WAT     H193464   1.575   7.763   2.703
31074WAT     H293465   1.455   7.773   2.594
31075WAT      O93466   1.532   5.168   3.868
31075WAT     H193467   1.618   5.218   3.865
31075WAT     H293468   1.544   5.078   3.826
31076WAT      O93469   0.330   8.524   4.956
31076WAT     H193470   0.422   8.511   4.992
31076WAT     H293471   0.324   8.614   4.912
31077WAT      O93472   9.164   7.515   5.724
31077WAT     H193473   9.116   7.587   5.774
31077WAT     H293474   9.147   7.427   5.766
31078WAT      O93475   4.715   2.167   2.434
31078WAT     H193476   4.780   2.097   2.463
31078WAT     H293477   4.734   2.194   2.339
31079WAT      O93478   4.654   5.119   9.826
31079WAT     H193479   4.749   5.145   9.843
31079WAT     H293480   4.609   5.097   9.913
31080WAT      O93481   3.095   0.460   8.491
31080WAT     H193482   3.114   0.390   8.423
31080WAT     H293483   3.089   0.417   8.582
31081WAT      O93484   8.857   0.968   6.991
31081WAT     H193485   8.859   1.068   7.001
31081WAT     H293486   8.770   0.941   6.950
31082WAT      O93487   9.789   5.942   9.127
31082WAT     H193488   9.771   5.873   9.057
31082WAT     H293489   9.882   5.931   9.163
31083WAT      O93490   3.528   0.996   1.593
31083WAT     H193491   3.614   0.961   1.630
31083WAT     H293492   3.538   1.013   1.495
31084WAT      O93493   6.539   8.895   7.094
31084WAT     H193494   6.557   8.799   7.071
31084WAT     H293495   6.443   8.906   7.121
31085WAT      O93496   7.050   2.599   6.927
31085WAT     H193497   7.134   2.585   6.875
31085WAT     H293498   7.067   2.660   7.003
31086WAT      O93499   2.062   1.305   5.491
31086WAT     H193500   2.111   1.350   5.565
31086WAT     H293501   1.988   1.250   5.530
31087WAT      O93502   1.033   2.336   9.890
31087WAT     H193503   1.031   2.240   9.864
31087WAT     H293504   0.945   2.378   9.871
31088WAT      O93505   2.873   2.225   6.440
31088WAT     H193506   2.913   2.154   6.497
31088WAT     H293507   2.915   2.222   6.349
31089WAT      O93508   4.451   0.055   4.993
31089WAT     H193509   4.548   0.062   5.019
31089WAT     H293510   4.405  -0.011   5.052
31090WAT      O93511   9.711   2.501   4.940
31090WAT     H193512   9.762   2.545   5.014
31090WAT     H293513   9.640   2.443   4.979
31091WAT      O93514   0.587   6.809   9.666
31091WAT     H193515   0.488   6.826   9.662
31091WAT     H293516   0.634   6.893   9.695
31092WAT      O93517   0.433   6.633   1.015
31092WAT     H193518   0.500   6.630   1.090
31092WAT     H293519   0.394   6.725   1.010
31093WAT      O93520   5.113   8.375   2.851
31093WAT     H193521   5.205   8.356   2.885
31093WAT     H293522   5.084   8.300   2.791
31094WAT      O93523   0.845   0.600   0.728
31094WAT     H193524   0.929   0.624   0.679
31094WAT     H293525   0.832   0.501   0.727
31095WAT      O93526   0.741   0.444   9.701
31095WAT     H193527   0.709   0.399   9.784
31095WAT     H293528   0.702   0.536   9.695
31096WAT      O93529   9.041   5.317   4.462
31096WAT     H193530   9.093   5.327   4.377
31096WAT     H293531   8.958   5.265   4.445
31097WAT      O93532   5.861   9.603   0.624
31097WAT     H193533   5.802   9.557   0.689
31097WAT     H293534   5.832   9.698   0.614
31098WAT      O93535   5.502   6.511   9.893
31098WAT     H193536   5.432   6.580   9.914
31098WAT     H293537   5.573   6.552   9.836
31099WAT      O93538   6.008   4.600   7.748
31099WAT     H193539   6.097   4.645   7.758
31099WAT     H293540   5.975   4.612   7.655
31100WAT      O93541   4.261   6.551   2.345
31100WAT     H193542   4.320   6.474   2.367
31100WAT     H293543   4.219   6.587   2.428
31101WAT      O93544   0.097   6.517   5.473
31101WAT     H193545   0.053   6.505   5.384
31101WAT     H293546   0.185   6.564   5.461
31102WAT      O93547   9.492   5.455   3.650
31102WAT     H193548   9.409   5.478   3.599
31102WAT     H293549   9.469   5.397   3.727
31103WAT      O93550   9.093   5.024   5.579
31103WAT     H193551   9.087   5.118   5.613
31103WAT     H293552   9.163   5.019   5.508
31104WAT      O93553   0.837   6.767   7.978
31104WAT     H193554   0.824   6.858   8.017
31104WAT     H293555   0.930   6.735   7.999
31105WAT      O93556   3.911   8.576   3.365
31105WAT     H193557   3.836   8.538   3.419
31105WAT     H293558   3.875   8.619   3.282
31106WAT      O93559   6.159   1.278   6.633
31106WAT     H193560   6.214   1.248   6.710
31106WAT     H293561   6.068   1.236   6.637
31107WAT      O93562   2.635   6.336   7.148
31107WAT     H193563   2.615   6.342   7.051
31107WAT     H293564   2.717   6.279   7.162
31108WAT      O93565   4.244   5.488   5.136
31108WAT     H193566   4.336   5.467   5.102
31108WAT     H293567   4.190   5.403   5.141
31109WAT      O93568   4.446   2.930   6.804
31109WAT     H193569   4.397   3.015   6.784
31109WAT     H293570   4.464   2.881   6.718
31110WAT      O93571   1.664   1.522   3.024
31110WAT     H193572   1.742   1.527   2.961
31110WAT     H293573   1.618   1.434   3.012
31111WAT      O93574   1.043   4.226   3.488
31111WAT     H193575   1.053   4.153   3.421
31111WAT     H293576   0.956   4.214   3.537
31112WAT      O93577   7.059   6.399   8.381
31112WAT     H193578   7.086   6.303   8.376
31112WAT     H293579   6.997   6.419   8.305
31113WAT      O93580   9.564   6.457   6.806
31113WAT     H193581   9.545   6.432   6.901
31113WAT     H293582   9.659   6.487   6.798
31114WAT      O93583   6.990   8.547   3.407
31114WAT     H193584   7.027   8.529   3.498
31114WAT     H293585   6.903   8.499   3.396
31115WAT      O93586   4.627   5.360   1.377
31115WAT     H193587   4.648   5.450   1.415
31115WAT     H293588   4.528   5.352   1.365
31116WAT      O93589   4.995   2.552   7.372
31116WAT     H193590   5.047   2.476   7.412
31116WAT     H293591   4.972   2.618   7.443
31117WAT      O93592   5.724   6.239   4.451
31117WAT     H193593   5.807   6.256   4.504
31117WAT     H293594   5.653   6.201   4.511
31118WAT      O93595   8.272   5.109   5.590
31118WAT     H193596   8.175   5.116   5.567
31118WAT     H293597   8.315   5.037   5.536
31119WAT      O93598   2.099   2.184   1.431
31119WAT     H193599   2.105   2.093   1.470
31119WAT     H293600   2.055   2.246   1.497
31120WAT      O93601   1.807   6.128   7.723
31120WAT     H193602   1.902   6.148   7.748
31120WAT     H293603   1.803   6.045   7.668
31121WAT      O93604   8.480   9.197   3.158
31121WAT     H193605   8.445   9.218   3.067
31121WAT     H293606   8.488   9.282   3.210
31122WAT      O93607   9.056   2.106   5.196
31122WAT     H193608   9.009   2.019   5.210
31122WAT     H293609   9.071   2.150   5.285
31123WAT      O93610   4.330   3.139   6.714
31123WAT     H193611   4.420   3.178   6.692
31123WAT     H293612   4.265   3.214   6.730
31124WAT      O93613   5.612   1.197   1.249
31124WAT     H193614   5.537   1.150   1.295
31124WAT     H293615   5.622   1.289   1.285
31125WAT      O93616   3.442   2.156   1.376
31125WAT     H193617   3.527   2.160   1.325
31125WAT     H293618   3.416   2.248   1.405
31126WAT      O93619   0.393   8.838   6.922
31126WAT     H193620   0.302   8.877   6.936
31126WAT     H293621   0.410   8.828   6.824
31127WAT      O93622   4.027   1.921   7.189
31127WAT     H193623   4.052   1.948   7.283
31127WAT     H293624   4.005   2.002   7.136
31128WAT      O93625   9.294   1.644   2.487
31128WAT     H193626   9.368   1.598   2.535
31128WAT     H293627   9.290   1.740   2.516
31129WAT      O93628   6.187   6.362   1.602
31129WAT     H193629   6.096   6.338   1.637
31129WAT     H293630   6.187   6.457   1.570
31130WAT      O93631   4.389   1.262   5.453
31130WAT     H193632   4.418   1.193   5.519
31130WAT     H293633   4.402   1.353   5.492
31131WAT      O93634   2.186   0.604   3.793
31131WAT     H193635   2.155   0.581   3.885
31131WAT     H293636   2.116   0.660   3.747
31132WAT      O93637   7.490   5.643   6.761
31132WAT     H193638   7.411   5.704   6.763
31132WAT     H293639   7.569   5.690   6.801
31133WAT      O93640   3.061   3.035   7.616
31133WAT     H193641   3.007   3.083   7.685
31133WAT     H293642   3.003   2.969   7.567
31134WAT      O93643   3.271   7.640   0.572
31134WAT     H193644   3.223   7.574   0.514
31134WAT     H293645   3.364   7.653   0.538
31135WAT      O93646   9.768   7.888   0.471
31135WAT     H193647   9.840   7.945   0.431
31135WAT     H293648   9.802   7.846   0.555
31136WAT      O93649   2.163   4.013   7.807
31136WAT     H193650   2.192   3.939   7.746
31136WAT     H293651   2.102   4.075   7.757
31137WAT      O93652   3.013   9.050   7.847
31137WAT     H193653   3.031   9.116   7.920
31137WAT     H293654   2.943   8.985   7.877
31138WAT      O93655   4.353   6.742   6.078
31138WAT     H193656   4.357   6.674   6.150
31138WAT     H293657   4.429   6.727   6.014
31139WAT      O93658   6.737   8.031   0.088
31139WAT     H193659   6.715   7.998   0.180
31139WAT     H293660   6.770   8.126   0.094
31140WAT      O93661   5.751   8.933   8.271
31140WAT     H193662   5.742   8.897   8.364
31140WAT     H293663   5.786   9.027   8.275
31141WAT      O93664   5.285   7.906   0.321
31141WAT     H193665   5.231   7.822   0.316
31141WAT     H293666   5.313   7.923   0.415
31142WAT      O93667   3.660   1.838   1.465
31142WAT     H193668   3.628   1.754   1.422
31142WAT     H293669   3.705   1.817   1.552
31143WAT      O93670   5.245   5.792   4.954
31143WAT     H193671   5.186   5.854   4.903
31143WAT     H293672   5.196   5.706   4.971
31144WAT      O93673   2.560   4.545   3.303
31144WAT     H193674   2.579   4.547   3.401
31144WAT     H293675   2.639   4.505   3.255
31145WAT      O93676   5.570   3.495   8.938
31145WAT     H193677   5.652   3.440   8.923
31145WAT     H293678   5.502   3.474   8.867
31146WAT      O93679   2.233   0.312   2.567
31146WAT     H193680   2.197   0.306   2.474
31146WAT     H293681   2.273   0.403   2.581
31147WAT      O93682   4.030   6.411   9.275
31147WAT     H193683   4.087   6.360   9.339
31147WAT     H293684   3.965   6.468   9.326
31148WAT      O93685   0.668   9.386   3.816
31148WAT     H193686   0.696   9.475   3.853
31148WAT     H293687   0.584   9.396   3.763
31149WAT      O93688   7.057   9.780   2.723
31149WAT     H193689   7.072   9.828   2.636
31149WAT     H293690   7.107   9.693   2.722
31150WAT      O93691   3.170   5.983   1.633
31150WAT     H193692   3.094   5.987   1.699
31150WAT     H293693   3.164   5.897   1.581
31151WAT      O93694   1.259   5.575   7.931
31151WAT     H193695   1.204   5.649   7.891
31151WAT     H293696   1.199   5.512   7.981
31152WAT      O93697   8.437   9.660   0.591
31152WAT     H193698   8.471   9.750   0.564
31152WAT     H293699   8.422   9.604   0.509
31153WAT      O93700   2.596   2.274   6.772
31153WAT     H193701   2.504   2.259   6.736
31153WAT     H293702   2.638   2.351   6.725
31154WAT      O93703   4.954   2.063   6.797
31154WAT     H193704   4.900   2.015   6.728
31154WAT     H293705   4.935   2.161   6.791
31155WAT      O93706   0.603   2.255   8.364
31155WAT     H193707   0.621   2.203   8.447
31155WAT     H293708   0.682   2.313   8.343
31156WAT      O93709   6.465   3.769   2.119
31156WAT     H193710   6.554   3.762   2.163
31156WAT     H293711   6.395   3.726   2.176
31157WAT      O93712   1.496   6.158   8.808
31157WAT     H193713   1.542   6.173   8.721
31157WAT     H293714   1.511   6.063   8.837
31158WAT      O93715   0.132   1.544   7.696
31158WAT     H193716   0.199   1.533   7.770
31158WAT     H293717   0.051   1.590   7.731
31159WAT      O93718   0.352   7.327   6.165
31159WAT     H193719   0.366   7.235   6.201
31159WAT     H293720   0.421   7.347   6.096
31160WAT      O93721   7.440   3.552   7.127
31160WAT     H193722   7.490   3.521   7.046
31160WAT     H293723   7.347   3.514   7.124
31161WAT      O93724   2.693   9.515   4.557
31161WAT     H193725   2.792   9.526   4.548
31161WAT     H293726   2.657   9.474   4.473
31162WAT      O93727   6.945   1.313   4.288
31162WAT     H193728   6.895   1.280   4.208
31162WAT     H293729   6.913   1.405   4.311
31163WAT      O93730   9.514   2.474   1.881
31163WAT     H193731   9.605   2.460   1.921
31163WAT     H293732   9.502   2.413   1.803
31164WAT      O93733   3.261   6.964   3.252
31164WAT     H193734   3.303   6.971   3.161
31164WAT     H293735   3.321   6.911   3.312
31165WAT      O93736   4.100   3.341   4.783
31165WAT     H193737   4.025   3.338   4.849
31165WAT     H293738   4.187   3.352   4.832
31166WAT      O93739   6.426   3.391   6.790
31166WAT     H193740   6.374   3.471   6.818
31166WAT     H293741   6.425   3.384   6.690
31167WAT      O93742   6.379   1.949   2.133
31167WAT     H193743   6.305   1.920   2.072
31167WAT     H293744   6.442   1.873   2.147
31168WAT      O93745   3.740   5.642   5.311
31168WAT     H193746   3.832   5.630   5.348
31168WAT     H293747   3.689   5.556   5.318
31169WAT      O93748   4.614   7.990   4.376
31169WAT     H193749   4.592   7.897   4.346
31169WAT     H293750   4.568   8.055   4.317
31170WAT      O93751   4.749   6.218   6.026
31170WAT     H193752   4.668   6.254   6.073
31170WAT     H293753   4.830   6.238   6.080
31171WAT      O93754   6.496   4.920   5.724
31171WAT     H193755   6.516   4.835   5.773
31171WAT     H293756   6.418   4.965   5.768
31172WAT      O93757   5.313   7.227   4.705
31172WAT     H193758   5.364   7.272   4.778
31172WAT     H293759   5.259   7.152   4.743
31173WAT      O93760   5.560   5.502   7.788
31173WAT     H193761   5.607   5.540   7.709
31173WAT     H293762   5.502   5.426   7.759
31174WAT      O93763   2.322   1.335   8.546
31174WAT     H193764   2.347   1.399   8.474
31174WAT     H293765   2.366   1.247   8.529
31175WAT      O93766   2.142   7.481   8.449
31175WAT     H193767   2.212   7.461   8.517
31175WAT     H293768   2.110   7.395   8.408
31176WAT      O93769   9.235   8.517   2.300
31176WAT     H193770   9.240   8.617   2.295
31176WAT     H293771   9.238   8.488   2.395
31177WAT      O93772   0.292   6.573   4.097
31177WAT     H193773   0.253   6.663   4.079
31177WAT     H293774   0.218   6.510   4.124
31178WAT      O93775   2.497   8.171   1.542
31178WAT     H193776   2.397   8.160   1.539
31178WAT     H293777   2.537   8.129   1.461
31179WAT      O93778   5.089   6.529   9.500
31179WAT     H193779   5.154   6.558   9.571
31179WAT     H293780   4.996   6.544   9.532
31180WAT      O93781   8.823   4.778   2.097
31180WAT     H193782   8.764   4.842   2.147
31180WAT     H293783   8.843   4.816   2.007
31181WAT      O93784   2.582   6.766   3.850
31181WAT     H193785   2.585   6.677   3.896
31181WAT     H293786   2.670   6.812   3.859
31182WAT      O93787   3.450   3.144   9.202
31182WAT     H193788   3.449   3.213   9.275
31182WAT     H293789   3.444   3.053   9.243
31183WAT      O93790   7.715   2.764   3.228
31183WAT     H193791   7.771   2.784   3.148
31183WAT     H293792   7.644   2.699   3.204
31184WAT      O93793   3.240   6.594   8.656
31184WAT     H193794   3.181   6.514   8.670
31184WAT     H293795   3.200   6.652   8.585
31185WAT      O93796   3.912   7.301   9.824
31185WAT     H193797   3.982   7.331   9.888
31185WAT     H293798   3.833   7.265   9.875
31186WAT      O93799   4.646   1.876   7.527
31186WAT     H193800   4.614   1.969   7.547
31186WAT     H293801   4.720   1.881   7.460
31187WAT      O93802   5.626   8.673   0.505
31187WAT     H193803   5.721   8.663   0.535
31187WAT     H293804   5.569   8.606   0.553
31188WAT      O93805   9.355   1.042   7.238
31188WAT     H193806   9.447   1.053   7.274
31188WAT     H293807   9.359   1.005   7.145
31189WAT      O93808   9.010   5.602   8.052
31189WAT     H193809   8.953   5.684   8.046
31189WAT     H293810   9.005   5.552   7.966
31190WAT      O93811   3.675   3.700   1.133
31190WAT     H193812   3.621   3.783   1.120
31190WAT     H293813   3.770   3.717   1.104
31191WAT      O93814   0.747   5.135   6.077
31191WAT     H193815   0.663   5.187   6.064
31191WAT     H293816   0.728   5.054   6.133
31192WAT      O93817   8.668   1.216   8.974
31192WAT     H193818   8.570   1.203   8.955
31192WAT     H293819   8.683   1.214   9.073
31193WAT      O93820   0.446   8.876   4.332
31193WAT     H193821   0.458   8.900   4.428
31193WAT     H293822   0.378   8.802   4.324
31194WAT      O93823   9.429   0.984   1.766
31194WAT     H193824   9.462   0.914   1.829
31194WAT     H293825   9.337   0.959   1.734
31195WAT      O93826   7.597   4.056   6.857
31195WAT     H193827   7.555   4.047   6.947
31195WAT     H293828   7.547   4.001   6.791
31196WAT      O93829   2.799   9.139   1.459
31196WAT     H193830   2.709   9.112   1.423
31196WAT     H293831   2.827   9.226   1.418
31197WAT      O93832   0.749   1.967   2.820
31197WAT     H193833   0.770   2.064   2.807
31197WAT     H293834   0.822   1.924   2.873
31198WAT      O93835   2.451   7.687   4.070
31198WAT     H193836   2.353   7.689   4.093
31198WAT     H293837   2.468   7.744   3.990
31199WAT      O93838   4.788   8.829   6.128
31199WAT     H193839   4.810   8.879   6.212
31199WAT     H293840   4.864   8.837   6.063
31200WAT      O93841   2.376   5.708   6.466
31200WAT     H193842   2.293   5.694   6.412
31200WAT     H293843   2.356   5.771   6.541
31201WAT      O93844   0.008   2.454   1.793
31201WAT     H193845   0.068   2.415   1.723
31201WAT     H293846  -0.006   2.551   1.773
31202WAT      O93847   1.826   4.088   0.261
31202WAT     H193848   1.783   4.178   0.264
31202WAT     H293849   1.842   4.056   0.354
31203WAT      O93850   1.764   1.752   6.935
31203WAT     H193851   1.673   1.791   6.922
31203WAT     H293852   1.834   1.821   6.916
31204WAT      O93853   1.207   9.678   1.642
31204WAT     H193854   1.295   9.707   1.603
31204WAT     H293855   1.143   9.659   1.568
31205WAT      O93856   4.031   4.595   3.002
31205WAT     H193857   3.982   4.679   3.026
31205WAT     H293858   4.023   4.529   3.077
31206WAT      O93859   2.052   9.400   3.059
31206WAT     H193860   2.102   9.455   2.993
31206WAT     H293861   2.009   9.460   3.127
31207WAT      O93862   2.371   0.816   1.664
31207WAT     H193863   2.337   0.739   1.610
31207WAT     H293864   2.348   0.901   1.618
31208WAT      O93865   0.877   7.254   2.248
31208WAT     H193866   0.870   7.169   2.195
31208WAT     H293867   0.883   7.232   2.345
31209WAT      O93868   3.200   1.179   4.707
31209WAT     H193869   3.285   1.146   4.668
31209WAT     H293870   3.123   1.130   4.667
31210WAT      O93871   6.125   6.612   9.492
31210WAT     H193872   6.127   6.707   9.461
31210WAT     H293873   6.095   6.608   9.588
31211WAT      O93874   0.545   5.722   0.546
31211WAT     H193875   0.574   5.628   0.561
31211WAT     H293876   0.456   5.724   0.500
31212WAT      O93877   3.059   7.068   9.646
31212WAT     H193878   3.104   6.983   9.617
31212WAT     H293879   3.081   7.140   9.581
31213WAT      O93880   6.584   8.882   6.186
31213WAT     H193881   6.527   8.915   6.111
31213WAT     H293882   6.536   8.898   6.273
31214WAT      O93883   1.711   9.798   5.519
31214WAT     H193884   1.806   9.823   5.498
31214WAT     H293885   1.655   9.881   5.526
31215WAT      O93886   8.518   8.444   1.947
31215WAT     H193887   8.419   8.434   1.932
31215WAT     H293888   8.535   8.528   1.998
31216WAT      O93889   9.486   5.877   4.772
31216WAT     H193890   9.584   5.861   4.778
31216WAT     H293891   9.438   5.816   4.836
31217WAT      O93892   2.760   5.825   4.462
31217WAT     H193893   2.697   5.878   4.519
31217WAT     H293894   2.709   5.765   4.401
31218WAT      O93895   9.755   0.911   1.475
31218WAT     H193896   9.843   0.949   1.446
31218WAT     H293897   9.771   0.839   1.543
31219WAT      O93898   8.925   8.161   9.749
31219WAT     H193899   8.831   8.138   9.773
31219WAT     H293900   8.974   8.077   9.723
31220WAT      O93901   0.310   1.361   5.022
31220WAT     H193902   0.279   1.386   5.114
31220WAT     H293903   0.404   1.391   5.010
31221WAT      O93904   1.825   1.431   2.079
31221WAT     H193905   1.812   1.468   1.987
31221WAT     H293906   1.777   1.343   2.088
31222WAT      O93907   2.236   1.819   0.290
31222WAT     H193908   2.323   1.868   0.284
31222WAT     H293909   2.251   1.721   0.276
31223WAT      O93910   2.377   0.948   1.312
31223WAT     H193911   2.390   1.026   1.373
31223WAT     H293912   2.466   0.912   1.285
31224WAT      O93913   7.672   6.834   7.378
31224WAT     H193914   7.627   6.912   7.334
31224WAT     H293915   7.769   6.833   7.352
31225WAT      O93916   4.698   2.723   2.033
31225WAT     H193917   4.647   2.809   2.034
31225WAT     H293918   4.634   2.646   2.039
31226WAT      O93919   1.130   7.523   3.085
31226WAT     H193920   1.203   7.573   3.132
31226WAT     H293921   1.092   7.580   3.012
31227WAT      O93922   7.324   1.183   0.857
31227WAT     H193923   7.290   1.206   0.766
31227WAT     H293924   7.400   1.244   0.881
31228WAT      O93925   9.076   1.430   0.795
31228WAT     H193926   9.150   1.491   0.767
31228WAT     H293927   9.055   1.367   0.720
31229WAT      O93928   9.502   5.255   8.182
31229WAT     H193929   9.558   5.194   8.127
31229WAT     H293930   9.430   5.295   8.126
31230WAT      O93931   5.080   4.991   8.532
31230WAT     H193932   5.119   4.992   8.624
31230WAT     H293933   5.060   4.897   8.505
31231WAT      O93934   2.943   2.765   2.059
31231WAT     H193935   2.955   2.667   2.042
31231WAT     H293936   2.873   2.777   2.129
31232WAT      O93937   8.758   6.857   0.610
31232WAT     H193938   8.666   6.896   0.619
31232WAT     H293939   8.782   6.850   0.513
31233WAT      O93940   2.216   0.385   0.447
31233WAT     H193941   2.136   0.388   0.507
31233WAT     H293942   2.187   0.398   0.352
31234WAT      O93943   6.154   9.147   9.057
31234WAT     H193944   6.055   9.161   9.064
31234WAT     H293945   6.198   9.231   9.027
31235WAT      O93946   4.496   5.203   0.797
31235WAT     H193947   4.580   5.252   0.819
31235WAT     H293948   4.492   5.187   0.698
31236WAT      O93949   8.436   2.991   0.397
31236WAT     H193950   8.461   2.989   0.300
31236WAT     H293951   8.339   3.013   0.405
31237WAT      O93952   1.099   4.916   5.849
31237WAT     H193953   1.174   4.973   5.817
31237WAT     H293954   1.011   4.958   5.824
31238WAT      O93955   2.323   9.597   7.997
31238WAT     H193956   2.281   9.655   8.066
31238WAT     H293957   2.420   9.586   8.018
31239WAT      O93958   5.171   4.446   7.711
31239WAT     H193959   5.194   4.348   7.711
31239WAT     H293960   5.121   4.468   7.627
31240WAT      O93961   1.926   1.963   3.337
31240WAT     H193962   1.848   2.024   3.319
31240WAT     H293963   1.901   1.870   3.313
31241WAT      O93964   5.365   4.140   3.519
31241WAT     H193965   5.456   4.100   3.525
31241WAT     H293966   5.341   4.181   3.608
31242WAT      O93967   4.105   1.439   0.639
31242WAT     H193968   4.131   1.406   0.729
31242WAT     H293969   4.139   1.532   0.626
31243WAT      O93970   4.676   1.447   4.271
31243WAT     H193971   4.581   1.477   4.274
31243WAT     H293972   4.682   1.358   4.226
31244WAT      O93973   5.942   1.774   7.643
31244WAT     H193974   5.997   1.756   7.561
31244WAT     H293975   5.856   1.817   7.616
31245WAT      O93976   5.406   4.899   4.127
31245WAT     H193977   5.388   4.801   4.119
31245WAT     H293978   5.352   4.948   4.058
31246WAT      O93979   1.151   5.194   0.906
31246WAT     H193980   1.101   5.107   0.905
31246WAT     H293981   1.211   5.197   0.986
31247WAT      O93982   8.163   1.065   5.840
31247WAT     H193983   8.201   1.082   5.750
31247WAT     H293984   8.065   1.048   5.833
31248WAT      O93985   0.193   8.432   9.446
31248WAT     H193986   0.168   8.336   9.457
31248WAT     H293987   0.192   8.455   9.348
31249WAT      O93988   9.877   0.466   9.854
31249WAT     H193989   9.883   0.456   9.953
31249WAT     H293990   9.858   0.377   9.812
31250WAT      O93991   7.741   1.228   3.203
31250WAT     H193992   7.761   1.321   3.170
31250WAT     H293993   7.778   1.217   3.295
31251WAT      O93994   6.718   4.135   3.070
31251WAT     H193995   6.726   4.115   3.168
31251WAT     H293996   6.796   4.191   3.042
31252WAT      O93997   3.973   8.070   8.042
31252WAT     H193998   3.963   8.160   8.001
31252WAT     H293999   3.892   8.050   8.097
31253WAT      O94000   1.593   9.691   3.846
31253WAT     H194001   1.578   9.646   3.759
31253WAT     H294002   1.660   9.640   3.900
31254WAT      O94003   4.995   6.725   8.223
31254WAT     H194004   5.060   6.651   8.238
31254WAT     H294005   4.912   6.707   8.275
31255WAT      O94006   9.771   9.326   1.724
31255WAT     H194007   9.729   9.237   1.707
31255WAT     H294008   9.866   9.313   1.754
31256WAT      O94009   0.085   2.473   9.363
31256WAT     H194010   0.159   2.490   9.428
31256WAT     H294011   0.010   2.426   9.409
31257WAT      O94012   9.839   6.799   6.173
31257WAT     H194013   9.758   6.853   6.149
31257WAT     H294014   9.812   6.722   6.230
31258WAT      O94015   2.673   8.416   4.540
31258WAT     H194016   2.640   8.509   4.553
31258WAT     H294017   2.738   8.393   4.613
31259WAT      O94018   1.177   7.579   7.532
31259WAT     H194019   1.248   7.612   7.469
31259WAT     H294020   1.087   7.605   7.497
31260WAT      O94021   9.243   3.294   0.012
31260WAT     H194022   9.257   3.198  -0.012
31260WAT     H294023   9.233   3.302   0.111
31261WAT      O94024   0.902   9.364   1.634
31261WAT     H194025   0.870   9.360   1.728
31261WAT     H294026   0.879   9.279   1.587
31262WAT      O94027   6.277   1.982   9.173
31262WAT     H194028   6.236   2.038   9.244
31262WAT     H294029   6.295   2.038   9.092
31263WAT      O94030   1.935   6.413   6.463
31263WAT     H194031   1.989   6.470   6.400
31263WAT     H294032   1.847   6.458   6.480
31264WAT      O94033   7.813   6.573   1.366
31264WAT     H194034   7.730   6.622   1.340
31264WAT     H294035   7.810   6.481   1.328
31265WAT      O94036   8.963   2.987   3.114
31265WAT     H194037   8.987   2.917   3.182
31265WAT     H294038   8.865   2.980   3.093
31266WAT      O94039   2.240   3.757   3.316
31266WAT     H194040   2.178   3.694   3.268
31266WAT     H294041   2.229   3.744   3.415
31267WAT      O94042   2.893   3.879   0.061
31267WAT     H194043   2.813   3.932   0.032
31267WAT     H294044   2.975   3.914   0.015
31268WAT      O94045   8.374   2.557   3.726
31268WAT     H194046   8.290   2.503   3.735
31268WAT     H294047   8.353   2.654   3.736
31269WAT      O94048   5.685   3.162   6.255
31269WAT     H194049   5.669   3.255   6.223
31269WAT     H294050   5.674   3.098   6.178
31270WAT      O94051   2.057   3.144   2.646
31270WAT     H194052   2.004   3.215   2.692
31270WAT     H294053   1.995   3.085   2.594
31271WAT      O94054   7.735   9.106   3.796
31271WAT     H194055   7.696   9.149   3.714
31271WAT     H294056   7.665   9.103   3.868
31272WAT      O94057   2.792   9.749   5.831
31272WAT     H194058   2.715   9.687   5.848
31272WAT     H294059   2.873   9.695   5.807
31273WAT      O94060   8.334   6.202   1.310
31273WAT     H194061   8.378   6.117   1.339
31273WAT     H294062   8.404   6.269   1.284
31274WAT      O94063   9.507   7.662   1.119
31274WAT     H194064   9.570   7.732   1.085
31274WAT     H294065   9.546   7.618   1.200
31275WAT      O94066   9.550   3.895   6.616
31275WAT     H194067   9.643   3.884   6.651
31275WAT     H294068   9.552   3.907   6.517
31276WAT      O94069   2.185   2.412   5.925
31276WAT     H194070   2.133   2.405   6.010
31276WAT     H294071   2.143   2.482   5.867
31277WAT      O94072   5.416   6.914   2.001
31277WAT     H194073   5.466   6.880   2.081
31277WAT     H294074   5.441   7.009   1.985
31278WAT      O94075   4.290   6.345   1.664
31278WAT     H194076   4.377   6.385   1.635
31278WAT     H294077   4.264   6.383   1.753
31279WAT      O94078   4.188   0.630   0.741
31279WAT     H194079   4.219   0.691   0.814
31279WAT     H294080   4.155   0.684   0.664
31280WAT      O94081   0.752   4.839   5.044
31280WAT     H194082   0.754   4.937   5.065
31280WAT     H294083   0.659   4.811   5.020
31281WAT      O94084   1.026   2.528   2.272
31281WAT     H194085   1.025   2.466   2.193
31281WAT     H294086   1.003   2.476   2.354
31282WAT      O94087   2.363   9.446   0.693
31282WAT     H194088   2.306   9.527   0.681
31282WAT     H294089   2.309   9.364   0.676
31283WAT      O94090   4.776   2.945   0.632
31283WAT     H194091   4.750   2.913   0.541
31283WAT     H294092   4.840   3.021   0.624
31284WAT      O94093   2.989   6.312   3.356
31284WAT     H194094   3.026   6.404   3.343
31284WAT     H294095   2.985   6.266   3.267
31285WAT      O94096   7.691   2.894   4.143
31285WAT     H194097   7.634   2.812   4.149
31285WAT     H294098   7.717   2.923   4.236
31286WAT      O94099   1.358   7.858   5.798
31286WAT     H194100   1.294   7.894   5.730
31286WAT     H294101   1.324   7.770   5.833
31287WAT      O94102   4.098   7.985   1.895
31287WAT     H194103   4.196   8.003   1.887
31287WAT     H294104   4.070   7.992   1.991
31288WAT      O94105   0.637   8.360   2.084
31288WAT     H194106   0.720   8.343   2.137
31288WAT     H294107   0.662   8.376   1.988
31289WAT      O94108   4.101   7.898   3.575
31289WAT     H194109   4.136   7.989   3.551
31289WAT     H294110   4.158   7.828   3.531
31290WAT      O94111   6.946   9.156   0.646
31290WAT     H194112   6.906   9.078   0.599
31290WAT     H294113   7.039   9.171   0.613
31291WAT      O94114   6.414   1.561   3.403
31291WAT     H194115   6.415   1.537   3.500
31291WAT     H294116   6.450   1.653   3.390
31292WAT      O94117   5.224   5.517   8.744
31292WAT     H194118   5.322   5.520   8.723
31292WAT     H294119   5.179   5.598   8.705
31293WAT      O94120   8.779   4.996   3.955
31293WAT     H194121   8.691   4.953   3.931
31293WAT     H294122   8.766   5.094   3.967
31294WAT      O94123   1.754   6.970   3.319
31294WAT     H194124   1.843   7.001   3.287
31294WAT     H294125   1.682   7.013   3.264
31295WAT      O94126   6.642   8.967   7.741
31295WAT     H194127   6.703   9.043   7.719
31295WAT     H294128   6.670   8.886   7.690
31296WAT      O94129   0.127   5.957   0.507
31296WAT     H194130   0.094   5.886   0.444
31296WAT     H294131   0.070   6.039   0.497
31297WAT      O94132   9.774   6.761   4.011
31297WAT     H194133   9.863   6.805   4.005
31297WAT     H294134   9.702   6.829   4.000
31298WAT      O94135   0.064   4.154   8.619
31298WAT     H194136   0.153   4.156   8.664
31298WAT     H294137  -0.008   4.152   8.687
31299WAT      O94138   6.333   6.016   2.744
31299WAT     H194139   6.425   6.037   2.777
31299WAT     H294140   6.284   6.101   2.724
31300WAT      O94141   5.461   2.069   9.569
31300WAT     H194142   5.405   1.989   9.549
31300WAT     H294143   5.504   2.058   9.659
31301WAT      O94144   8.176   2.564   0.261
31301WAT     H194145   8.110   2.582   0.334
31301WAT     H294146   8.126   2.547   0.176
31302WAT      O94147   1.485   4.941   9.107
31302WAT     H194148   1.574   4.905   9.135
31302WAT     H294149   1.453   5.007   9.176
31303WAT      O94150   2.901   3.704   2.494
31303WAT     H194151   2.943   3.667   2.577
31303WAT     H294152   2.812   3.743   2.517
31304WAT      O94153   9.852   5.776   2.198
31304WAT     H194154   9.952   5.780   2.203
31304WAT     H294155   9.825   5.717   2.122
31305WAT      O94156   9.548   9.499   9.271
31305WAT     H194157   9.620   9.558   9.236
31305WAT     H294158   9.461   9.523   9.228
31306WAT      O94159   0.413   6.658   6.868
31306WAT     H194160   0.397   6.619   6.778
31306WAT     H294161   0.491   6.613   6.911
31307WAT      O94162   1.257   2.062   2.041
31307WAT     H194163   1.270   1.963   2.037
31307WAT     H294164   1.277   2.102   1.951
31308WAT      O94165   5.379   9.099   5.365
31308WAT     H194166   5.451   9.039   5.329
31308WAT     H294167   5.295   9.086   5.313
31309WAT      O94168   7.228   1.251   4.615
31309WAT     H194169   7.261   1.256   4.521
31309WAT     H294170   7.147   1.309   4.625
31310WAT      O94171   0.424   4.915   4.794
31310WAT     H194172   0.432   4.882   4.888
31310WAT     H294173   0.516   4.930   4.757
31311WAT      O94174   3.510   3.468   3.906
31311WAT     H194175   3.448   3.541   3.934
31311WAT     H294176   3.478   3.429   3.819
31312WAT      O94177   9.382   0.133   9.477
31312WAT     H194178   9.453   0.062   9.471
31312WAT     H294179   9.326   0.130   9.394
31313WAT      O94180   2.628   5.557   1.857
31313WAT     H194181   2.543   5.567   1.908
31313WAT     H294182   2.619   5.480   1.793
31314WAT      O94183   6.275   0.741   2.121
31314WAT     H194184   6.273   0.815   2.188
31314WAT     H294185   6.236   0.658   2.160
31315WAT      O94186   7.059   9.288   6.608
31315WAT     H194187   6.998   9.308   6.531
31315WAT     H294188   7.141   9.345   6.601
31316WAT      O94189   4.921   9.664   5.979
31316WAT     H194190   4.947   9.568   5.980
31316WAT     H294191   4.863   9.684   6.059
31317WAT      O94192   7.868   1.675   1.909
31317WAT     H194193   7.801   1.696   1.837
31317WAT     H294194   7.941   1.618   1.871
31318WAT      O94195   3.186   8.459   6.823
31318WAT     H194196   3.161   8.515   6.902
31318WAT     H294197   3.218   8.369   6.854
31319WAT      O94198   3.391   4.487   1.340
31319WAT     H194199   3.439   4.418   1.286
31319WAT     H294200   3.297   4.495   1.310
31320WAT      O94201   7.046   1.875   4.105
31320WAT     H194202   7.038   1.965   4.148
31320WAT     H294203   7.119   1.823   4.148
31321WAT      O94204   7.808   3.398   9.873
31321WAT     H194205   7.804   3.343   9.956
31321WAT     H294206   7.901   3.394   9.835
31322WAT      O94207   4.183   1.201   2.645
31322WAT     H194208   4.219   1.203   2.738
31322WAT     H294209   4.247   1.246   2.583
31323WAT      O94210   5.826   0.241   4.350
31323WAT     H194211   5.771   0.272   4.273
31323WAT     H294212   5.923   0.241   4.324
31324WAT      O94213   7.051   5.277   1.910
31324WAT     H194214   7.104   5.316   1.986
31324WAT     H294215   6.954   5.294   1.925
31325WAT      O94216   9.862   5.998   7.427
31325WAT     H194217   9.815   6.036   7.347
31325WAT     H294218   9.915   5.918   7.401
31326WAT      O94219   6.710   1.908   3.298
31326WAT     H194220   6.753   1.886   3.211
31326WAT     H294221   6.621   1.862   3.303
31327WAT      O94222   6.564   2.780   7.602
31327WAT     H194223   6.612   2.853   7.553
31327WAT     H294224   6.553   2.806   7.698
31328WAT      O94225   0.879   5.331   5.620
31328WAT     H194226   0.855   5.360   5.527
31328WAT     H294227   0.877   5.231   5.626
31329WAT      O94228   3.890   9.733   3.368
31329WAT     H194229   3.979   9.776   3.384
31329WAT     H294230   3.826   9.762   3.438
31330WAT      O94231   7.390   5.356   5.859
31330WAT     H194232   7.326   5.283   5.880
31330WAT     H294233   7.364   5.439   5.908
31331WAT      O94234   0.885   8.177   2.886
31331WAT     H194235   0.897   8.162   2.984
31331WAT     H294236   0.949   8.247   2.855
31332WAT      O94237   8.860   4.175   9.397
31332WAT     H194238   8.924   4.110   9.438
31332WAT     H294239   8.840   4.146   9.303
31333WAT      O94240   5.840   9.534   3.507
31333WAT     H194241   5.863   9.511   3.412
31333WAT     H294242   5.764   9.478   3.538
31334WAT      O94243   9.213   7.489   1.598
31334WAT     H194244   9.113   7.488   1.590
31334WAT     H294245   9.249   7.571   1.554
31335WAT      O94246   2.366   3.045   7.579
31335WAT     H194247   2.335   3.086   7.493
31335WAT     H294248   2.376   3.117   7.648
31336WAT      O94249   0.046   1.200   3.398
31336WAT     H194250   0.075   1.105   3.394
31336WAT     H294251  -0.051   1.207   3.374
31337WAT      O94252   6.967   8.852   6.807
31337WAT     H194253   6.937   8.802   6.888
31337WAT     H294254   6.940   8.803   6.724
31338WAT      O94255   3.430   9.032   2.547
31338WAT     H194256   3.428   8.939   2.585
31338WAT     H294257   3.525   9.063   2.543
31339WAT      O94258   7.953   7.125   9.209
31339WAT     H194259   7.882   7.175   9.159
31339WAT     H294260   7.933   7.027   9.206
31340WAT      O94261   5.633   5.964   3.458
31340WAT     H194262   5.556   5.962   3.522
31340WAT     H294263   5.677   6.054   3.462
31341WAT      O94264   3.477   6.221   6.625
31341WAT     H194265   3.519   6.161   6.693
31341WAT     H294266   3.414   6.168   6.568
31342WAT      O94267   4.224   9.698   7.095
31342WAT     H194268   4.206   9.732   7.187
31342WAT     H294269   4.179   9.609   7.083
31343WAT      O94270   5.364   5.836   1.004
31343WAT     H194271   5.366   5.932   1.031
31343WAT     H294272   5.348   5.779   1.084
31344WAT      O94273   1.628   0.413   8.394
31344WAT     H194274   1.664   0.343   8.456
31344WAT     H294275   1.553   0.374   8.341
31345WAT      O94276   7.474   0.994   5.448
31345WAT     H194277   7.555   1.021   5.396
31345WAT     H294278   7.459   1.059   5.522
31346WAT      O94279   5.356   6.268   9.401
31346WAT     H194280   5.267   6.302   9.371
31346WAT     H294281   5.346   6.175   9.436
31347WAT      O94282   6.501   8.176   2.816
31347WAT     H194283   6.436   8.248   2.791
31347WAT     H294284   6.590   8.217   2.839
31348WAT      O94285   8.538   4.084   9.305
31348WAT     H194286   8.547   4.000   9.359
31348WAT     H294287   8.608   4.085   9.233
31349WAT      O94288   5.631   7.590   6.596
31349WAT     H194289   5.557   7.551   6.542
31349WAT     H294290   5.594   7.631   6.679
31350WAT      O94291   7.173   2.694   8.657
31350WAT     H194292   7.227   2.761   8.707
31350WAT     H294293   7.160   2.724   8.563
31351WAT      O94294   7.240   6.493   1.600
31351WAT     H194295   7.336   6.493   1.572
31351WAT     H294296   7.182   6.513   1.521
31352WAT      O94297   8.535   2.125   5.686
31352WAT     H194298   8.509   2.190   5.757
31352WAT     H294299   8.587   2.173   5.615
31353WAT      O94300   4.172   6.934   6.007
31353WAT     H194301   4.243   6.867   6.028
31353WAT     H294302   4.136   6.973   6.091
31354WAT      O94303   5.429   6.008   5.932
31354WAT     H194304   5.350   5.978   5.985
31354WAT     H294305   5.500   5.938   5.935
31355WAT      O94306   9.652   4.426   8.532
31355WAT     H194307   9.576   4.365   8.557
31355WAT     H294308   9.732   4.371   8.507
31356WAT      O94309   4.906   1.697   0.725
31356WAT     H194310   4.919   1.796   0.722
31356WAT     H294311   4.960   1.658   0.800
31357WAT      O94312   1.608   5.841   7.419
31357WAT     H194313   1.553   5.901   7.360
31357WAT     H294314   1.594   5.746   7.392
31358WAT      O94315   6.268   1.211   6.377
31358WAT     H194316   6.347   1.149   6.378
31358WAT     H294317   6.239   1.228   6.471
31359WAT      O94318   9.005   9.283   4.084
31359WAT     H194319   8.984   9.283   4.182
31359WAT     H294320   9.029   9.376   4.056
31360WAT      O94321   0.662   1.537   3.622
31360WAT     H194322   0.739   1.579   3.670
31360WAT     H294323   0.694   1.492   3.539
31361WAT      O94324   4.232   5.677   4.730
31361WAT     H194325   4.169   5.752   4.711
31361WAT     H294326   4.218   5.646   4.824
31362WAT      O94327   8.492   4.127   7.477
31362WAT     H194328   8.445   4.094   7.559
31362WAT     H294329   8.456   4.217   7.452
31363WAT      O94330   6.834   1.110   0.734
31363WAT     H194331   6.833   1.179   0.806
31363WAT     H294332   6.868   1.023   0.771
31364WAT      O94333   2.620   3.119   1.762
31364WAT     H194334   2.667   3.032   1.779
31364WAT     H294335   2.642   3.150   1.670
31365WAT      O94336   9.549   9.820   8.436
31365WAT     H194337   9.604   9.765   8.498
31365WAT     H294338   9.475   9.864   8.487
31366WAT      O94339   2.775   1.752   7.971
31366WAT     H194340   2.792   1.848   7.991
31366WAT     H294341   2.716   1.746   7.890
31367WAT      O94342   1.312   7.632   3.242
31367WAT     H194343   1.290   7.727   3.217
31367WAT     H294344   1.388   7.632   3.306
31368WAT      O94345   1.637   2.831   8.714
31368WAT     H194346   1.559   2.877   8.757
31368WAT     H294347   1.608   2.741   8.680
31369WAT      O94348   5.645   3.555   4.729
31369WAT     H194349   5.581   3.477   4.729
31369WAT     H294350   5.606   3.630   4.782
31370WAT      O94351   5.014   4.739   1.579
31370WAT     H194352   4.940   4.772   1.638
31370WAT     H294353   5.042   4.648   1.608
31371WAT      O94354   7.583   9.586   2.817
31371WAT     H194355   7.681   9.587   2.800
31371WAT     H294356   7.551   9.491   2.826
31372WAT      O94357   0.057   7.657   1.109
31372WAT     H194358   0.146   7.690   1.142
31372WAT     H294359   0.070   7.599   1.029
31373WAT      O94360   6.731   8.643   7.895
31373WAT     H194361   6.650   8.697   7.922
31373WAT     H294362   6.702   8.550   7.871
31374WAT      O94363   5.804   7.713   5.616
31374WAT     H194364   5.805   7.615   5.636
31374WAT     H294365   5.773   7.763   5.697
31375WAT      O94366   6.293   7.207   1.984
31375WAT     H194367   6.378   7.211   2.036
31375WAT     H294368   6.288   7.121   1.933
31376WAT      O94369   9.390   5.945   1.799
31376WAT     H194370   9.470   5.988   1.756
31376WAT     H294371   9.346   5.885   1.732
31377WAT      O94372   7.933   5.590   5.117
31377WAT     H194373   7.979   5.519   5.169
31377WAT     H294374   7.858   5.628   5.170
31378WAT      O94375   3.033   9.820   8.825
31378WAT     H194376   3.052   9.917   8.809
31378WAT     H294377   2.992   9.781   8.742
31379WAT      O94378   3.526   4.402   0.071
31379WAT     H194379   3.466   4.359   0.138
31379WAT     H294380   3.487   4.391  -0.020
31380WAT      O94381   3.040   5.644   9.679
31380WAT     H194382   2.992   5.637   9.591
31380WAT     H294383   2.977   5.622   9.753
31381WAT      O94384   0.042   0.998   4.851
31381WAT     H194385  -0.005   1.076   4.893
31381WAT     H294386   0.098   1.030   4.774
31382WAT      O94387   2.657   2.938   7.614
31382WAT     H194388   2.641   2.912   7.709
31382WAT     H294389   2.572   2.971   7.573
31383WAT      O94390   7.947   5.491   6.164
31383WAT     H194391   7.924   5.439   6.082
31383WAT     H294392   8.026   5.549   6.146
31384WAT      O94393   8.248   8.257   8.084
31384WAT     H194394   8.308   8.182   8.057
31384WAT     H294395   8.207   8.238   8.173
31385WAT      O94396   1.959   4.245   3.157
31385WAT     H194397   1.982   4.312   3.086
31385WAT     H294398   2.043   4.199   3.186
31386WAT      O94399   9.561   3.365   8.360
31386WAT     H194400   9.603   3.290   8.411
31386WAT     H294401   9.511   3.329   8.281
31387WAT      O94402   4.557   1.243   1.247
31387WAT     H194403   4.471   1.291   1.269
31387WAT     H294404   4.572   1.247   1.148
31388WAT      O94405   9.252   8.990   7.927
31388WAT     H194406   9.184   8.917   7.919
31388WAT     H294407   9.332   8.967   7.872
31389WAT      O94408   0.442   7.166   9.282
31389WAT     H194409   0.528   7.155   9.232
31389WAT     H294410   0.366   7.170   9.217
31390WAT      O94411   0.403   8.473   5.709
31390WAT     H194412   0.354   8.386   5.718
31390WAT     H294413   0.345   8.539   5.662
31391WAT      O94414   0.293   7.117   0.770
31391WAT     H194415   0.213   7.133   0.828
31391WAT     H294416   0.312   7.200   0.717
31392WAT      O94417   3.340   8.166   8.558
31392WAT     H194418   3.332   8.140   8.655
31392WAT     H294419   3.276   8.111   8.504
31393WAT      O94420   5.398   3.552   0.406
31393WAT     H194421   5.309   3.513   0.430
31393WAT     H294422   5.385   3.628   0.342
31394WAT      O94423   1.175   8.960   2.140
31394WAT     H194424   1.247   9.014   2.097
31394WAT     H294425   1.099   8.950   2.077
31395WAT      O94426   4.127   2.977   9.313
31395WAT     H194427   4.038   3.019   9.328
31395WAT     H294428   4.163   2.942   9.400
31396WAT      O94429   2.823   5.081   0.527
31396WAT     H194430   2.748   5.061   0.464
31396WAT     H294431   2.847   5.178   0.521
31397WAT      O94432   9.251   5.396   6.172
31397WAT     H194433   9.174   5.339   6.200
31397WAT     H294434   9.327   5.382   6.235
31398WAT      O94435   3.079   3.082   0.202
31398WAT     H194436   3.012   3.143   0.158
31398WAT     H294437   3.147   3.055   0.134
31399WAT      O94438   2.945   2.977   1.886
31399WAT     H194439   2.934   2.923   1.969
31399WAT     H294440   2.906   2.927   1.809
31400WAT      O94441   7.338   0.617   7.563
31400WAT     H194442   7.245   0.644   7.538
31400WAT     H294443   7.370   0.546   7.501
31401WAT      O94444   5.794   3.463   4.064
31401WAT     H194445   5.769   3.411   4.146
31401WAT     H294446   5.736   3.544   4.057
31402WAT      O94447   6.667   3.843   7.366
31402WAT     H194448   6.730   3.912   7.328
31402WAT     H294449   6.581   3.887   7.391
31403WAT      O94450   8.778   0.094   2.628
31403WAT     H194451   8.762   0.150   2.547
31403WAT     H294452   8.870   0.055   2.624
31404WAT      O94453   4.704   8.900   7.047
31404WAT     H194454   4.647   8.971   7.005
31404WAT     H294455   4.800   8.929   7.046
31405WAT      O94456   4.580   7.146   1.452
31405WAT     H194457   4.621   7.125   1.541
31405WAT     H294458   4.642   7.203   1.399
31406WAT      O94459   0.961   9.221   4.892
31406WAT     H194460   1.023   9.293   4.862
31406WAT     H294461   0.873   9.261   4.917
31407WAT      O94462   3.213   6.097   4.499
31407WAT     H194463   3.197   6.136   4.590
31407WAT     H294464   3.135   6.039   4.474
31408WAT      O94465   8.101   9.191   1.917
31408WAT     H194466   8.096   9.255   1.994
31408WAT     H294467   8.125   9.100   1.952
31409WAT      O94468   7.228   5.098   1.266
31409WAT     H194469   7.289   5.052   1.202
31409WAT     H294470   7.183   5.175   1.220
31410WAT      O94471   8.401   2.900   8.390
31410WAT     H194472   8.409   2.910   8.291
31410WAT     H294473   8.378   2.989   8.430
31411WAT      O94474   5.066   8.429   0.024
31411WAT     H194475   5.141   8.450   0.087
31411WAT     H294476   4.979   8.428   0.073
31412WAT      O94477   3.943   3.005   0.204
31412WAT     H194478   3.985   2.959   0.125
31412WAT     H294479   3.989   2.976   0.288
31413WAT      O94480   9.045   3.297   0.978
31413WAT     H194481   8.982   3.308   0.900
31413WAT     H294482   9.119   3.235   0.952
31414WAT      O94483   0.829   9.247   8.425
31414WAT     H194484   0.838   9.238   8.326
31414WAT     H294485   0.846   9.159   8.468
31415WAT      O94486   2.036   5.787   9.410
31415WAT     H194487   1.995   5.854   9.348
31415WAT     H294488   2.038   5.825   9.503
31416WAT      O94489   9.824   5.060   4.984
31416WAT     H194490   9.911   5.065   4.934
31416WAT     H294491   9.830   5.116   5.067
31417WAT      O94492   7.621   3.335   1.896
31417WAT     H194493   7.699   3.395   1.881
31417WAT     H294494   7.537   3.380   1.866
31418WAT      O94495   5.557   5.897   8.326
31418WAT     H194496   5.504   5.818   8.359
31418WAT     H294497   5.552   5.970   8.394
31419WAT      O94498   1.996   9.513   6.134
31419WAT     H194499   1.918   9.473   6.085
31419WAT     H294500   1.985   9.499   6.232
31420WAT      O94501   6.175   4.003   8.905
31420WAT     H194502   6.225   3.986   8.820
31420WAT     H294503   6.232   3.977   8.983
31421WAT      O94504   2.258   1.029   9.057
31421WAT     H194505   2.317   1.092   9.007
31421WAT     H294506   2.198   1.082   9.117
31422WAT      O94507   3.028   1.035   2.887
31422WAT     H194508   3.119   1.026   2.928
31422WAT     H294509   2.997   0.946   2.855
31423WAT      O94510   5.317   0.771   9.188
31423WAT     H194511   5.322   0.795   9.091
31423WAT     H294512   5.226   0.792   9.224
31424WAT      O94513   7.593   1.968   4.038
31424WAT     H194514   7.690   1.992   4.037
31424WAT     H294515   7.559   1.961   3.944
31425WAT      O94516   3.368   7.951   4.990
31425WAT     H194517   3.422   8.018   4.940
31425WAT     H294518   3.280   7.990   5.015
31426WAT      O94519   6.065   0.226   0.454
31426WAT     H194520   6.121   0.186   0.526
31426WAT     H294521   6.124   0.263   0.382
31427WAT      O94522   5.349   8.173   6.118
31427WAT     H194523   5.262   8.140   6.157
31427WAT     H294524   5.422   8.160   6.185
31428WAT      O94525   7.581   5.698   5.057
31428WAT     H194526   7.665   5.749   5.043
31428WAT     H294527   7.567   5.683   5.155
31429WAT      O94528   0.009   2.569   6.683
31429WAT     H194529  -0.085   2.571   6.719
31429WAT     H294530   0.062   2.499   6.733
31430WAT      O94531   6.354   2.042   5.419
31430WAT     H194532   6.304   1.956   5.428
31430WAT     H294533   6.381   2.074   5.510
31431WAT      O94534   5.149   0.438   3.020
31431WAT     H194535   5.191   0.474   2.936
31431WAT     H294536   5.080   0.502   3.052
31432WAT      O94537   7.554   3.255   9.097
31432WAT     H194538   7.468   3.254   9.149
31432WAT     H294539   7.535   3.229   9.002
31433WAT      O94540   7.773   1.782   2.155
31433WAT     H194541   7.794   1.742   2.066
31433WAT     H294542   7.833   1.860   2.172
31434WAT      O94543   3.736   8.089   4.994
31434WAT     H194544   3.643   8.120   5.012
31434WAT     H294545   3.797   8.168   4.988
31435WAT      O94546   2.037   5.792   2.387
31435WAT     H194547   2.035   5.879   2.437
31435WAT     H294548   1.980   5.725   2.434
31436WAT      O94549   3.510   9.604   7.279
31436WAT     H194550   3.475   9.682   7.227
31436WAT     H294551   3.449   9.586   7.356
31437WAT      O94552   0.151   4.876   6.080
31437WAT     H194553   0.158   4.787   6.034
31437WAT     H294554   0.177   4.865   6.176
31438WAT      O94555   1.003   5.986   3.129
31438WAT     H194556   0.930   6.012   3.066
31438WAT     H294557   1.017   5.887   3.125
31439WAT      O94558   9.862   6.356   1.766
31439WAT     H194559   9.811   6.294   1.825
31439WAT     H294560   9.831   6.450   1.781
31440WAT      O94561   5.851   0.388   3.339
31440WAT     H194562   5.781   0.437   3.286
31440WAT     H294563   5.870   0.437   3.423
31441WAT      O94564   6.061   4.461   5.394
31441WAT     H194565   6.105   4.549   5.374
31441WAT     H294566   5.982   4.476   5.452
31442WAT      O94567   3.058   6.870   2.928
31442WAT     H194568   3.043   6.849   3.024
31442WAT     H294569   3.143   6.826   2.897
31443WAT      O94570   8.627   6.921   5.899
31443WAT     H194571   8.589   6.957   5.984
31443WAT     H294572   8.715   6.964   5.880
31444WAT      O94573   5.012   4.496   7.920
31444WAT     H194574   5.016   4.572   7.986
31444WAT     H294575   5.078   4.513   7.847
31445WAT      O94576   7.228   5.470   3.231
31445WAT     H194577   7.248   5.536   3.303
31445WAT     H294578   7.280   5.493   3.148
31446WAT      O94579   6.636   6.295   4.183
31446WAT     H194580   6.555   6.258   4.137
31446WAT     H294581   6.637   6.394   4.172
31447WAT      O94582   1.950   4.028   8.016
31447WAT     H194583   1.987   4.040   7.924
31447WAT     H294584   1.998   4.087   8.080
31448WAT      O94585   0.170   3.332   5.697
31448WAT     H194586   0.253   3.309   5.747
31448WAT     H294587   0.176   3.427   5.665
31449WAT      O94588   2.959   0.322   0.112
31449WAT     H194589   2.948   0.401   0.052
31449WAT     H294590   2.894   0.327   0.187
31450WAT      O94591   0.688   7.500   5.076
31450WAT     H194592   0.618   7.534   5.014
31450WAT     H294593   0.765   7.465   5.023
31451WAT      O94594   7.455   8.858   2.275
31451WAT     H194595   7.415   8.807   2.352
31451WAT     H294596   7.382   8.906   2.226
31452WAT      O94597   9.306   3.932   1.486
31452WAT     H194598   9.383   3.984   1.450
31452WAT     H294599   9.330   3.892   1.574
31453WAT      O94600   6.572   2.433   3.177
31453WAT     H194601   6.551   2.499   3.249
31453WAT     H294602   6.645   2.468   3.119
31454WAT      O94603   0.363   5.314   3.822
31454WAT     H194604   0.436   5.269   3.770
31454WAT     H294605   0.368   5.413   3.807
31455WAT      O94606   2.213   8.284   4.719
31455WAT     H194607   2.248   8.370   4.755
31455WAT     H294608   2.261   8.208   4.762
31456WAT      O94609   1.110   1.178   8.654
31456WAT     H194610   1.172   1.148   8.581
31456WAT     H294611   1.071   1.099   8.699
31457WAT      O94612   4.729   4.732   8.061
31457WAT     H194613   4.705   4.636   8.075
31457WAT     H294614   4.696   4.762   7.972
31458WAT      O94615   0.704   9.767   1.878
31458WAT     H194616   0.700   9.689   1.815
31458WAT     H294617   0.613   9.784   1.915
31459WAT      O94618   1.419   6.029   7.765
31459WAT     H194619   1.413   5.931   7.742
31459WAT     H294620   1.456   6.079   7.686
31460WAT      O94621   5.787   9.455   1.079
31460WAT     H194622   5.879   9.478   1.048
31460WAT     H294623   5.730   9.537   1.077
31461WAT      O94624   8.558   3.944   2.134
31461WAT     H194625   8.501   3.915   2.212
31461WAT     H294626   8.519   3.908   2.049
31462WAT      O94627   0.063   3.188   3.905
31462WAT     H194628   0.039   3.259   3.839
31462WAT     H294629   0.047   3.222   3.998
31463WAT      O94630   7.496   1.022   2.938
31463WAT     H194631   7.574   1.070   2.978
31463WAT     H294632   7.427   1.088   2.910
31464WAT      O94633   7.234   6.822   2.000
31464WAT     H194634   7.196   6.865   2.082
31464WAT     H294635   7.315   6.769   2.024
31465WAT      O94636   7.283   5.912   9.588
31465WAT     H194637   7.359   5.876   9.533
31465WAT     H294638   7.304   6.005   9.617
31466WAT      O94639   7.055   7.903   2.242
31466WAT     H194640   6.988   7.869   2.176
31466WAT     H294641   7.120   7.963   2.195
31467WAT      O94642   8.101   2.916   2.061
31467WAT     H194643   8.015   2.933   2.111
31467WAT     H294644   8.137   2.827   2.087
31468WAT      O94645   9.381   6.391   0.454
31468WAT     H194646   9.315   6.447   0.403
31468WAT     H294647   9.416   6.318   0.396
31469WAT      O94648   4.353   3.229   0.683
31469WAT     H194649   4.427   3.272   0.630
31469WAT     H294650   4.269   3.228   0.627
31470WAT      O94651   1.647   9.267   6.446
31470WAT     H194652   1.663   9.211   6.527
31470WAT     H294653   1.660   9.211   6.364
31471WAT      O94654   6.720   2.590   3.949
31471WAT     H194655   6.630   2.547   3.946
31471WAT     H294656   6.788   2.528   3.910
31472WAT      O94657   8.108   7.122   1.772
31472WAT     H194658   8.008   7.112   1.766
31472WAT     H294659   8.130   7.204   1.824
31473WAT      O94660   8.545   0.478   4.325
31473WAT     H194661   8.575   0.571   4.344
31473WAT     H294662   8.621   0.426   4.285
31474WAT      O94663   0.318   0.702   5.520
31474WAT     H194664   0.363   0.749   5.444
31474WAT     H294665   0.376   0.707   5.601
31475WAT      O94666   6.521   7.219   8.038
31475WAT     H194667   6.437   7.245   8.086
31475WAT     H294668   6.586   7.181   8.103
31476WAT      O94669   2.840   1.844   7.389
31476WAT     H194670   2.774   1.792   7.443
31476WAT     H294671   2.880   1.785   7.318
31477WAT      O94672   7.554   9.147   5.000
31477WAT     H194673   7.525   9.187   4.913
31477WAT     H294674   7.490   9.173   5.072
31478WAT      O94675   4.481   4.213   1.552
31478WAT     H194676   4.388   4.225   1.587
31478WAT     H294677   4.534   4.158   1.616
31479WAT      O94678   9.197   1.132   3.463
31479WAT     H194679   9.282   1.121   3.411
31479WAT     H294680   9.169   1.043   3.499
31480WAT      O94681   0.697   3.460   4.427
31480WAT     H194682   0.783   3.481   4.382
31480WAT     H294683   0.713   3.444   4.524
31481WAT      O94684   6.272   7.860   6.737
31481WAT     H194685   6.322   7.798   6.677
31481WAT     H294686   6.289   7.835   6.832
31482WAT      O94687   9.652   6.199   8.072
31482WAT     H194688   9.634   6.107   8.037
31482WAT     H294689   9.669   6.261   7.995
31483WAT      O94690   4.710   9.483   0.527
31483WAT     H194691   4.726   9.391   0.563
31483WAT     H294692   4.752   9.550   0.588
31484WAT      O94693   3.864   4.356   9.132
31484WAT     H194694   3.937   4.320   9.074
31484WAT     H294695   3.803   4.281   9.158
31485WAT      O94696   3.541   6.309   5.517
31485WAT     H194697   3.448   6.275   5.535
31485WAT     H294698   3.590   6.242   5.461
31486WAT      O94699   3.126   6.065   7.626
31486WAT     H194700   3.156   6.067   7.722
31486WAT     H294701   3.193   6.014   7.572
31487WAT      O94702   5.449   4.727   4.402
31487WAT     H194703   5.373   4.748   4.464
31487WAT     H294704   5.412   4.697   4.314
31488WAT      O94705   2.288   2.851   6.409
31488WAT     H194706   2.223   2.899   6.467
31488WAT     H294707   2.336   2.916   6.351
31489WAT      O94708   6.792   4.150   7.765
31489WAT     H194709   6.826   4.235   7.726
31489WAT     H294710   6.863   4.080   7.761
31490WAT      O94711   1.671   1.312   8.984
31490WAT     H194712   1.586   1.361   9.001
31490WAT     H294713   1.690   1.249   9.059
31491WAT      O94714   2.604   4.948   5.562
31491WAT     H194715   2.649   5.033   5.531
31491WAT     H294716   2.642   4.871   5.511
31492WAT      O94717   2.361   8.945   4.078
31492WAT     H194718   2.369   8.934   4.177
31492WAT     H294719   2.367   9.042   4.054
31493WAT      O94720   5.525   3.109   3.467
31493WAT     H194721   5.478   3.062   3.393
31493WAT     H294722   5.493   3.075   3.555
31494WAT      O94723   1.480   5.538   2.146
31494WAT     H194724   1.400   5.594   2.127
31494WAT     H294725   1.559   5.575   2.096
31495WAT      O94726   8.130   4.651   8.925
31495WAT     H194727   8.126   4.679   9.021
31495WAT     H294728   8.109   4.729   8.866
31496WAT      O94729   5.648   7.102   8.910
31496WAT     H194730   5.660   7.185   8.856
31496WAT     H294731   5.713   7.102   8.986
31497WAT      O94732   1.607   0.624   0.031
31497WAT     H194733   1.697   0.604   0.071
31497WAT     H294734   1.619   0.659  -0.062
31498WAT      O94735   2.602   9.783   4.220
31498WAT     H194736   2.595   9.823   4.311
31498WAT     H294737   2.589   9.854   4.151
31499WAT      O94738   4.461   5.255   9.089
31499WAT     H194739   4.518   5.230   9.011
31499WAT     H294740   4.475   5.190   9.163
31500WAT      O94741   0.840   0.227   4.502
31500WAT     H194742   0.774   0.243   4.428
31500WAT     H294743   0.832   0.299   4.570
31501WAT      O94744   6.289   1.751   6.841
31501WAT     H194745   6.266   1.654   6.838
31501WAT     H294746   6.324   1.780   6.752
31502WAT      O94747   6.198   5.688   3.206
31502WAT     H194748   6.261   5.759   3.173
31502WAT     H294749   6.239   5.598   3.192
31503WAT      O94750   1.836   0.217   9.024
31503WAT     H194751   1.891   0.138   9.051
31503WAT     H294752   1.888   0.272   8.958
31504WAT      O94753   6.714   9.048   0.857
31504WAT     H194754   6.655   8.968   0.846
31504WAT     H294755   6.779   9.031   0.932
31505WAT      O94756   5.578   4.995   9.793
31505WAT     H194757   5.526   5.078   9.811
31505WAT     H294758   5.562   4.929   9.867
31506WAT      O94759   2.094   1.212   0.385
31506WAT     H194760   2.033   1.172   0.316
31506WAT     H294761   2.089   1.159   0.469
31507WAT      O94762   2.551   8.222   0.850
31507WAT     H194763   2.583   8.294   0.912
31507WAT     H294764   2.532   8.139   0.902
31508WAT      O94765   6.475   6.081   3.427
31508WAT     H194766   6.475   6.003   3.365
31508WAT     H294767   6.430   6.055   3.513
31509WAT      O94768   4.521   5.011   0.992
31509WAT     H194769   4.552   5.056   1.075
31509WAT     H294770   4.506   5.079   0.920
31510WAT      O94771   9.520   3.087   4.300
31510WAT     H194772   9.529   3.171   4.247
31510WAT     H294773   9.485   3.014   4.242
31511WAT      O94774   0.327   0.884   9.192
31511WAT     H194775   0.413   0.903   9.146
31511WAT     H294776   0.300   0.963   9.247
31512WAT      O94777   8.417   6.969   6.745
31512WAT     H194778   8.486   6.942   6.678
31512WAT     H294779   8.385   6.888   6.794
31513WAT      O94780   3.217   7.861   6.120
31513WAT     H194781   3.239   7.784   6.179
31513WAT     H294782   3.196   7.828   6.028
31514WAT      O94783   8.195   8.139   8.794
31514WAT     H194784   8.162   8.218   8.845
31514WAT     H294785   8.119   8.077   8.775
31515WAT      O94786   7.069   7.537   6.102
31515WAT     H194787   7.160   7.501   6.118
31515WAT     H294788   7.044   7.600   6.176
31516WAT      O94789   4.723   9.692   6.148
31516WAT     H194790   4.654   9.654   6.087
31516WAT     H294791   4.686   9.700   6.241
31517WAT      O94792   1.052   8.895   2.659
31517WAT     H194793   1.100   8.922   2.576
31517WAT     H294794   1.013   8.977   2.703
31518WAT      O94795   3.508   3.906   1.112
31518WAT     H194796   3.523   3.991   1.061
31518WAT     H294797   3.411   3.883   1.108
31519WAT      O94798   5.529   3.444   7.922
31519WAT     H194799   5.608   3.388   7.949
31519WAT     H294800   5.524   3.446   7.822
31520WAT      O94801   7.333   6.798   2.943
31520WAT     H194802   7.429   6.786   2.967
31520WAT     H294803   7.321   6.888   2.900
31521WAT      O94804   8.312   0.348   6.620
31521WAT     H194805   8.299   0.329   6.522
31521WAT     H294806   8.409   0.361   6.639
31522WAT      O94807   5.098   6.128   8.041
31522WAT     H194808   5.132   6.115   8.134
31522WAT     H294809   5.070   6.039   8.003
31523WAT      O94810   1.670   8.742   8.123
31523WAT     H194811   1.615   8.668   8.161
31523WAT     H294812   1.612   8.822   8.108
31524WAT      O94813   2.873   3.908   6.710
31524WAT     H194814   2.965   3.908   6.670
31524WAT     H294815   2.816   3.842   6.662
31525WAT      O94816   6.831   6.668   4.116
31525WAT     H194817   6.909   6.666   4.179
31525WAT     H294818   6.802   6.763   4.103
31526WAT      O94819   6.918   3.732   1.754
31526WAT     H194820   6.985   3.763   1.821
31526WAT     H294821   6.878   3.646   1.784
31527WAT      O94822   4.301   9.474   2.001
31527WAT     H194823   4.313   9.557   2.055
31527WAT     H294824   4.357   9.480   1.918
31528WAT      O94825   1.325   0.286   8.628
31528WAT     H194826   1.367   0.377   8.626
31528WAT     H294827   1.286   0.266   8.539
31529WAT      O94828   4.725   4.386   7.471
31529WAT     H194829   4.695   4.440   7.393
31529WAT     H294830   4.651   4.325   7.499
31530WAT      O94831   0.406   1.090   6.236
31530WAT     H194832   0.359   1.173   6.208
31530WAT     H294833   0.340   1.027   6.278
31531WAT      O94834   9.184   4.534   9.839
31531WAT     H194835   9.113   4.562   9.775
31531WAT     H294836   9.167   4.574   9.929
31532WAT      O94837   4.812   0.989   8.705
31532WAT     H194838   4.822   0.935   8.622
31532WAT     H294839   4.739   0.950   8.762
31533WAT      O94840   9.118   6.979   9.419
31533WAT     H194841   9.180   6.905   9.441
31533WAT     H294842   9.081   7.019   9.503
31534WAT      O94843   8.927   4.924   9.357
31534WAT     H194844   8.833   4.892   9.369
31534WAT     H294845   8.952   4.985   9.433
31535WAT      O94846   5.253   3.607   2.536
31535WAT     H194847   5.335   3.654   2.505
31535WAT     H294848   5.180   3.673   2.554
31536WAT      O94849   7.888   6.567   4.802
31536WAT     H194850   7.842   6.628   4.867
31536WAT     H294851   7.898   6.613   4.714
31537WAT      O94852   9.460   0.243   3.092
31537WAT     H194853   9.423   0.283   3.176
31537WAT     H294854   9.427   0.295   3.014
31538WAT      O94855   5.760   0.815   4.051
31538WAT     H194856   5.724   0.729   4.087
31538WAT     H294857   5.803   0.867   4.125
31539WAT      O94858   5.249   7.342   1.758
31539WAT     H194859   5.288   7.433   1.767
31539WAT     H294860   5.318   7.280   1.720
31540WAT      O94861   8.249   9.051   6.212
31540WAT     H194862   8.278   9.119   6.144
31540WAT     H294863   8.209   8.972   6.166
31541WAT      O94864   0.171   3.119   6.535
31541WAT     H194865   0.174   3.131   6.436
31541WAT     H294866   0.264   3.110   6.571
31542WAT      O94867   8.780   2.229   1.376
31542WAT     H194868   8.761   2.203   1.281
31542WAT     H294869   8.862   2.181   1.407
31543WAT      O94870   7.237   8.470   6.906
31543WAT     H194871   7.221   8.408   6.829
31543WAT     H294872   7.300   8.427   6.971
31544WAT      O94873   1.472   8.066   6.128
31544WAT     H194874   1.446   8.134   6.196
31544WAT     H294875   1.468   8.107   6.037
31545WAT      O94876   1.680   2.520   3.113
31545WAT     H194877   1.769   2.484   3.141
31545WAT     H294878   1.681   2.619   3.119
31546WAT      O94879   7.740   3.444   1.096
31546WAT     H194880   7.768   3.497   1.016
31546WAT     H294881   7.645   3.464   1.118
31547WAT      O94882   0.274   8.775   5.824
31547WAT     H194883   0.290   8.695   5.881
31547WAT     H294884   0.272   8.749   5.728
31548WAT      O94885   1.975   3.080   4.420
31548WAT     H194886   2.070   3.087   4.390
31548WAT     H294887   1.921   3.036   4.349
31549WAT      O94888   9.133   5.540   5.575
31549WAT     H194889   9.176   5.629   5.595
31549WAT     H294890   9.201   5.479   5.534
31550WAT      O94891   2.909   1.163   2.153
31550WAT     H194892   2.954   1.105   2.085
31550WAT     H294893   2.972   1.182   2.228
31551WAT      O94894   8.442   7.146   2.770
31551WAT     H194895   8.467   7.203   2.848
31551WAT     H294896   8.520   7.138   2.708
31552WAT      O94897   7.859   5.948   1.497
31552WAT     H194898   7.861   5.891   1.579
31552WAT     H294899   7.944   6.001   1.490
31553WAT      O94900   8.431   4.108   4.289
31553WAT     H194901   8.475   4.120   4.378
31553WAT     H294902   8.367   4.183   4.273
31554WAT      O94903   7.575   1.880   9.356
31554WAT     H194904   7.499   1.869   9.291
31554WAT     H294905   7.641   1.946   9.319
31555WAT      O94906   5.172   5.893   0.051
31555WAT     H194907   5.124   5.864  -0.031
31555WAT     H294908   5.229   5.818   0.085
31556WAT      O94909   2.908   8.483   9.561
31556WAT     H194910   2.995   8.495   9.514
31556WAT     H294911   2.913   8.525   9.651
31557WAT      O94912   3.347   8.358   5.545
31557WAT     H194913   3.328   8.336   5.449
31557WAT     H294914   3.334   8.456   5.560
31558WAT      O94915   0.401   0.527   9.222
31558WAT     H194916   0.304   0.522   9.247
31558WAT     H294917   0.443   0.437   9.232
31559WAT      O94918   8.328   4.731   9.755
31559WAT     H194919   8.362   4.755   9.664
31559WAT     H294920   8.323   4.632   9.764
31560WAT      O94921   8.159   4.311   3.298
31560WAT     H194922   8.250   4.347   3.318
31560WAT     H294923   8.140   4.232   3.355
31561WAT      O94924   2.322   5.032   5.240
31561WAT     H194925   2.349   5.125   5.261
31561WAT     H294926   2.364   5.003   5.154
31562WAT      O94927   8.860   9.489   0.907
31562WAT     H194928   8.790   9.530   0.848
31562WAT     H294929   8.935   9.554   0.919
31563WAT      O94930   9.060   4.889   2.453
31563WAT     H194931   9.105   4.805   2.484
31563WAT     H294932   9.062   4.893   2.353
31564WAT      O94933   5.010   3.678   0.971
31564WAT     H194934   5.043   3.618   0.898
31564WAT     H294935   4.925   3.722   0.943
31565WAT      O94936   6.814   1.631   6.523
31565WAT     H194937   6.791   1.628   6.621
31565WAT     H294938   6.775   1.551   6.478
31566WAT      O94939   4.883   1.292   6.872
31566WAT     H194940   4.905   1.342   6.788
31566WAT     H294941   4.866   1.196   6.850
31567WAT      O94942   5.516   2.463   1.339
31567WAT     H194943   5.522   2.437   1.243
31567WAT     H294944   5.608   2.470   1.378
31568WAT      O94945   4.449   6.014   3.944
31568WAT     H194946   4.514   6.038   4.016
31568WAT     H294947   4.365   5.978   3.985
31569WAT      O94948   0.139   1.027   2.960
31569WAT     H194949   0.183   0.970   2.890
31569WAT     H294950   0.204   1.045   3.034
31570WAT      O94951   3.258   6.109   5.385
31570WAT     H194952   3.161   6.085   5.387
31570WAT     H294953   3.280   6.165   5.464
31571WAT      O94954   1.851   9.605   1.189
31571WAT     H194955   1.884   9.678   1.129
31571WAT     H294956   1.817   9.529   1.133
31572WAT      O94957   7.075   7.062   4.892
31572WAT     H194958   6.987   7.104   4.914
31572WAT     H294959   7.065   6.962   4.892
31573WAT      O94960   0.574   1.767   0.060
31573WAT     H194961   0.600   1.863   0.050
31573WAT     H294962   0.650   1.715   0.100
31574WAT      O94963   3.511   0.129   8.399
31574WAT     H194964   3.528   0.170   8.309
31574WAT     H294965   3.447   0.187   8.450
31575WAT      O94966   7.350   6.646   5.256
31575WAT     H194967   7.412   6.586   5.206
31575WAT     H294968   7.398   6.685   5.335
31576WAT      O94969   0.994   8.880   3.450
31576WAT     H194970   0.954   8.912   3.536
31576WAT     H294971   0.939   8.806   3.412
31577WAT      O94972   0.657   4.808   0.685
31577WAT     H194973   0.735   4.866   0.709
31577WAT     H294974   0.573   4.847   0.724
31578WAT      O94975   0.746   2.024   5.272
31578WAT     H194976   0.814   1.951   5.275
31578WAT     H294977   0.791   2.113   5.280
31579WAT      O94978   1.040   7.932   3.433
31579WAT     H194979   1.060   7.961   3.527
31579WAT     H294980   1.039   7.832   3.429
31580WAT      O94981   1.824   4.287   9.485
31580WAT     H194982   1.741   4.327   9.446
31580WAT     H294983   1.798   4.219   9.553
31581WAT      O94984   3.580   1.233   3.271
31581WAT     H194985   3.666   1.211   3.315
31581WAT     H294986   3.565   1.172   3.193
31582WAT      O94987   7.259   2.780   5.187
31582WAT     H194988   7.312   2.843   5.245
31582WAT     H294989   7.212   2.714   5.246
31583WAT      O94990   0.054   4.160   4.597
31583WAT     H194991   0.136   4.166   4.541
31583WAT     H294992   0.039   4.248   4.644
31584WAT      O94993   1.245   5.274   9.607
31584WAT     H194994   1.198   5.337   9.669
31584WAT     H294995   1.189   5.192   9.596
31585WAT      O94996   1.088   0.165   0.239
31585WAT     H194997   1.095   0.255   0.281
31585WAT     H294998   1.048   0.101   0.304
31586WAT      O94999   5.005   7.107   5.234
31586WAT     H195000   4.914   7.067   5.219
31586WAT     H295001   5.023   7.113   5.332
31587WAT      O95002   1.546   7.644   6.854
31587WAT     H195003   1.623   7.697   6.818
31587WAT     H295004   1.574   7.599   6.939
31588WAT      O95005   4.710   6.057   9.880
31588WAT     H195006   4.732   6.133   9.942
31588WAT     H295007   4.777   5.984   9.893
31589WAT      O95008   0.100   7.406   9.851
31589WAT     H195009   0.090   7.463   9.933
31589WAT     H295010   0.022   7.344   9.844
31590WAT      O95011   9.520   3.432   7.271
31590WAT     H195012   9.424   3.454   7.253
31590WAT     H295013   9.558   3.383   7.193
31591WAT      O95014   1.098   6.843   8.317
31591WAT     H195015   1.063   6.843   8.223
31591WAT     H295016   1.023   6.860   8.381
31592WAT      O95017   4.817   4.842   0.367
31592WAT     H195018   4.776   4.901   0.437
31592WAT     H295019   4.751   4.829   0.292
31593WAT      O95020   2.390   3.830   0.122
31593WAT     H195021   2.423   3.776   0.044
31593WAT     H295022   2.291   3.819   0.130
31594WAT      O95023   2.076   8.268   0.763
31594WAT     H195024   2.145   8.245   0.695
31594WAT     H295025   1.988   8.230   0.736
31595WAT      O95026   9.659   8.782   9.351
31595WAT     H195027   9.581   8.842   9.365
31595WAT     H295028   9.645   8.728   9.268
31596WAT      O95029   2.335   3.940   6.068
31596WAT     H195030   2.252   3.988   6.039
31596WAT     H295031   2.414   4.001   6.060
31597WAT      O95032   6.428   0.946   3.097
31597WAT     H195033   6.424   0.884   3.175
31597WAT     H295034   6.335   0.968   3.066
31598WAT      O95035   6.021   0.090   4.690
31598WAT     H195036   5.967   0.144   4.755
31598WAT     H295037   6.076   0.024   4.740
31599WAT      O95038   9.087   0.762   9.270
31599WAT     H195039   9.098   0.702   9.190
31599WAT     H295040   9.164   0.827   9.274
31600WAT      O95041   8.209   3.270   4.860
31600WAT     H195042   8.119   3.243   4.892
31600WAT     H295043   8.267   3.189   4.850
31601WAT      O95044   0.110   5.774   4.336
31601WAT     H195045   0.029   5.715   4.332
31601WAT     H295046   0.192   5.718   4.328
31602WAT      O95047   8.989   8.002   8.747
31602WAT     H195048   8.980   8.070   8.820
31602WAT     H295049   9.043   7.925   8.780
31603WAT      O95050   9.313   7.345   4.824
31603WAT     H195051   9.333   7.256   4.865
31603WAT     H295052   9.250   7.396   4.883
31604WAT      O95053   0.349   4.206   7.394
31604WAT     H195054   0.297   4.239   7.472
31604WAT     H295055   0.390   4.283   7.346
31605WAT      O95056   4.158   1.891   0.094
31605WAT     H195057   4.129   1.886   0.189
31605WAT     H295058   4.078   1.897   0.034
31606WAT      O95059   9.308   3.307   2.002
31606WAT     H195060   9.317   3.406   2.000
31606WAT     H295061   9.314   3.275   2.097
31607WAT      O95062   0.939   6.183   4.549
31607WAT     H195063   0.926   6.086   4.526
31607WAT     H295064   0.975   6.232   4.470
31608WAT      O95065   2.678   3.364   4.067
31608WAT     H195066   2.759   3.343   4.122
31608WAT     H295067   2.606   3.298   4.089
31609WAT      O95068   5.652   9.648   4.539
31609WAT     H195069   5.679   9.553   4.555
31609WAT     H295070   5.733   9.706   4.540
31610WAT      O95071   9.802   4.559   2.566
31610WAT     H195072   9.753   4.509   2.495
31610WAT     H295073   9.773   4.527   2.656
31611WAT      O95074   8.401   1.675   8.276
31611WAT     H195075   8.423   1.696   8.181
31611WAT     H295076   8.470   1.714   8.336
31612WAT      O95077   8.326   1.688   8.892
31612WAT     H195078   8.364   1.676   8.800
31612WAT     H295079   8.359   1.774   8.931
31613WAT      O95080   5.464   0.082   7.604
31613WAT     H195081   5.562   0.102   7.605
31613WAT     H295082   5.447  -0.001   7.550
31614WAT      O95083   1.846   3.419   3.474
31614WAT     H195084   1.873   3.463   3.389
31614WAT     H295085   1.926   3.379   3.519
31615WAT      O95086   6.551   5.811   8.344
31615WAT     H195087   6.640   5.853   8.329
31615WAT     H295088   6.528   5.754   8.265
31616WAT      O95089   2.659   3.387   7.236
31616WAT     H195090   2.670   3.454   7.309
31616WAT     H295091   2.662   3.295   7.275
31617WAT      O95092   1.617   2.884   1.809
31617WAT     H195093   1.585   2.842   1.724
31617WAT     H295094   1.645   2.812   1.872
31618WAT      O95095   3.837   6.872   1.213
31618WAT     H195096   3.927   6.916   1.217
31618WAT     H295097   3.819   6.826   1.300
31619WAT      O95098   6.298   5.251   8.324
31619WAT     H195099   6.288   5.251   8.224
31619WAT     H295100   6.392   5.277   8.347
31620WAT      O95101   0.148   6.288   9.566
31620WAT     H195102   0.176   6.381   9.587
31620WAT     H295103   0.048   6.284   9.559
31621WAT      O95104   8.425   9.523   3.966
31621WAT     H195105   8.430   9.427   3.993
31621WAT     H295106   8.475   9.579   4.033
31622WAT      O95107   7.571   6.443   7.349
31622WAT     H195108   7.575   6.473   7.253
31622WAT     H295109   7.566   6.344   7.353
31623WAT      O95110   3.564   9.691   0.557
31623WAT     H195111   3.595   9.786   0.564
31623WAT     H295112   3.526   9.662   0.645
31624WAT      O95113   4.481   4.783   7.442
31624WAT     H195114   4.405   4.754   7.500
31624WAT     H295115   4.462   4.875   7.405
31625WAT      O95116   3.447   0.734   1.287
31625WAT     H195117   3.434   0.648   1.238
31625WAT     H295118   3.360   0.783   1.293
31626WAT      O95119   2.869   3.139   8.518
31626WAT     H195120   2.886   3.045   8.548
31626WAT     H295121   2.893   3.148   8.421
31627WAT      O95122   2.617   8.281   0.365
31627WAT     H195123   2.590   8.327   0.450
31627WAT     H295124   2.612   8.182   0.378
31628WAT      O95125   4.066   7.902   5.363
31628WAT     H195126   4.128   7.969   5.404
31628WAT     H295127   3.979   7.902   5.413
31629WAT      O95128   7.422   0.249   3.356
31629WAT     H195129   7.429   0.193   3.273
31629WAT     H295130   7.329   0.283   3.365
31630WAT      O95131   4.810   2.621   9.163
31630WAT     H195132   4.780   2.611   9.258
31630WAT     H295133   4.734   2.599   9.102
31631WAT      O95134   3.228   1.752   0.326
31631WAT     H195135   3.252   1.783   0.418
31631WAT     H295136   3.200   1.656   0.330
31632WAT      O95137   5.665   2.938   3.185
31632WAT     H195138   5.743   2.994   3.213
31632WAT     H295139   5.691   2.842   3.189
31633WAT      O95140   8.007   8.816   5.456
31633WAT     H195141   8.040   8.905   5.422
31633WAT     H295142   7.964   8.829   5.545
31634WAT      O95143   6.542   6.415   6.499
31634WAT     H195144   6.603   6.339   6.478
31634WAT     H295145   6.585   6.501   6.471
31635WAT      O95146   0.993   2.241   6.321
31635WAT     H195147   0.932   2.307   6.364
31635WAT     H295148   0.969   2.149   6.352
31636WAT      O95149   3.190   7.036   8.492
31636WAT     H195150   3.228   7.108   8.434
31636WAT     H295151   3.170   7.073   8.583
31637WAT      O95152   4.339   6.664   1.959
31637WAT     H195153   4.385   6.698   1.877
31637WAT     H295154   4.308   6.741   2.014
31638WAT      O95155   8.967   2.712   6.829
31638WAT     H195156   8.978   2.721   6.730
31638WAT     H295157   8.979   2.802   6.872
31639WAT      O95158   4.303   2.754   1.044
31639WAT     H195159   4.262   2.846   1.045
31639WAT     H295160   4.232   2.686   1.064
31640WAT      O95161   6.506   5.662   8.136
31640WAT     H195162   6.593   5.675   8.089
31640WAT     H295163   6.442   5.614   8.077
31641WAT      O95164   1.886   0.940   7.289
31641WAT     H195165   1.855   1.017   7.345
31641WAT     H295166   1.981   0.919   7.312
31642WAT      O95167   2.225   2.805   7.589
31642WAT     H195168   2.293   2.738   7.619
31642WAT     H295169   2.256   2.897   7.614
31643WAT      O95170   2.637   7.943   0.209
31643WAT     H195171   2.659   7.846   0.203
31643WAT     H295172   2.625   7.980   0.116
31644WAT      O95173   6.841   9.485   9.678
31644WAT     H195174   6.858   9.431   9.760
31644WAT     H295175   6.929   9.503   9.633
31645WAT      O95176   2.863   0.801   1.196
31645WAT     H195177   2.925   0.799   1.118
31645WAT     H295178   2.913   0.774   1.278
31646WAT      O95179   8.495   9.169   9.407
31646WAT     H195180   8.404   9.207   9.425
31646WAT     H295181   8.546   9.164   9.493
31647WAT      O95182   9.250   0.486   5.438
31647WAT     H195183   9.187   0.408   5.450
31647WAT     H295184   9.332   0.455   5.391
31648WAT      O95185   4.693   9.481   2.012
31648WAT     H195186   4.763   9.552   2.016
31648WAT     H295187   4.696   9.435   1.924
31649WAT      O95188   9.102   1.091   0.262
31649WAT     H195189   9.158   1.010   0.276
31649WAT     H295190   9.038   1.100   0.339
31650WAT      O95191   9.557   0.463   9.158
31650WAT     H195192   9.517   0.554   9.171
31650WAT     H295193   9.568   0.418   9.247
31651WAT      O95194   2.710   7.141   4.102
31651WAT     H195195   2.653   7.168   4.179
31651WAT     H295196   2.762   7.059   4.126
31652WAT      O95197   8.764   1.021   1.455
31652WAT     H195198   8.770   0.975   1.544
31652WAT     H295199   8.803   0.962   1.384
31653WAT      O95200   0.894   5.055   5.662
31653WAT     H195201   0.822   5.028   5.725
31653WAT     H295202   0.919   4.976   5.605
31654WAT      O95203   5.377   2.836   6.775
31654WAT     H195204   5.327   2.894   6.839
31654WAT     H295205   5.364   2.740   6.800
31655WAT      O95206   1.142   2.303   6.107
31655WAT     H195207   1.130   2.396   6.071
31655WAT     H295208   1.092   2.293   6.193
31656WAT      O95209   8.306   0.134   7.849
31656WAT     H195210   8.240   0.097   7.784
31656WAT     H295211   8.399   0.114   7.818
31657WAT      O95212   0.668   2.427   1.545
31657WAT     H195213   0.653   2.402   1.641
31657WAT     H295214   0.764   2.450   1.531
31658WAT      O95215   5.270   7.116   0.444
31658WAT     H195216   5.202   7.070   0.500
31658WAT     H295217   5.361   7.103   0.485
31659WAT      O95218   5.056   0.229   1.468
31659WAT     H195219   5.023   0.233   1.563
31659WAT     H295220   5.091   0.318   1.442
31660WAT      O95221   8.305   2.813   3.765
31660WAT     H195222   8.296   2.806   3.865
31660WAT     H295223   8.255   2.894   3.733
31661WAT      O95224   1.139   4.826   8.865
31661WAT     H195225   1.088   4.892   8.919
31661WAT     H295226   1.132   4.849   8.768
31662WAT      O95227   4.883   1.982   0.749
31662WAT     H195228   4.926   1.997   0.838
31662WAT     H295229   4.832   2.064   0.723
31663WAT      O95230   0.005   9.513   4.320
31663WAT     H195231  -0.034   9.556   4.402
31663WAT     H295232   0.062   9.435   4.347
31664WAT      O95233   3.778   2.896   0.703
31664WAT     H195234   3.828   2.973   0.741
31664WAT     H295235   3.821   2.867   0.617
31665WAT      O95236   9.635   1.885   0.984
31665WAT     H195237   9.692   1.864   0.905
31665WAT     H295238   9.583   1.968   0.967
31666WAT      O95239   4.900   6.622   8.578
31666WAT     H195240   4.826   6.648   8.517
31666WAT     H295241   4.875   6.540   8.629
31667WAT      O95242   2.744   7.477   0.887
31667WAT     H195243   2.778   7.383   0.877
31667WAT     H295244   2.715   7.492   0.982
31668WAT      O95245   3.025   9.239   5.458
31668WAT     H195246   2.989   9.196   5.375
31668WAT     H295247   3.113   9.283   5.437
31669WAT      O95248   9.185   2.288   3.979
31669WAT     H195249   9.119   2.247   4.042
31669WAT     H295250   9.277   2.254   3.999
31670WAT      O95251   3.381   4.227   1.536
31670WAT     H195252   3.309   4.179   1.486
31670WAT     H295253   3.375   4.325   1.520
31671WAT      O95254   8.706   2.855   9.849
31671WAT     H195255   8.648   2.834   9.771
31671WAT     H295256   8.761   2.936   9.829
31672WAT      O95257   4.872   5.150   3.284
31672WAT     H195258   4.791   5.111   3.329
31672WAT     H295259   4.854   5.246   3.261
31673WAT      O95260   0.655   4.014   5.036
31673WAT     H195261   0.587   3.997   5.108
31673WAT     H295262   0.735   3.957   5.053
31674WAT      O95263   2.885   7.793   7.514
31674WAT     H195264   2.878   7.877   7.568
31674WAT     H295265   2.850   7.716   7.568
31675WAT      O95266   2.967   8.895   9.640
31675WAT     H195267   2.942   8.799   9.653
31675WAT     H295268   3.017   8.905   9.554
31676WAT      O95269   8.639   2.316   0.151
31676WAT     H195270   8.610   2.359   0.066
31676WAT     H295271   8.563   2.264   0.190
31677WAT      O95272   4.040   8.467   5.249
31677WAT     H195273   4.133   8.488   5.219
31677WAT     H295274   4.038   8.376   5.290
31678WAT      O95275   3.970   1.081   0.379
31678WAT     H195276   3.897   1.018   0.354
31678WAT     H295277   3.964   1.103   0.476
31679WAT      O95278   4.470   1.952   5.946
31679WAT     H195279   4.443   2.025   5.884
31679WAT     H295280   4.559   1.973   5.986
31680WAT      O95281   8.831   8.558   3.037
31680WAT     H195282   8.840   8.656   3.025
31680WAT     H295283   8.750   8.525   2.988
31681WAT      O95284   3.258   5.918   3.677
31681WAT     H195285   3.295   5.991   3.619
31681WAT     H295286   3.224   5.957   3.762
31682WAT      O95287   8.491   8.351   8.484
31682WAT     H195288   8.508   8.299   8.401
31682WAT     H295289   8.534   8.441   8.477
31683WAT      O95290   9.116   9.685   8.512
31683WAT     H195291   9.041   9.715   8.572
31683WAT     H295292   9.080   9.630   8.438
31684WAT      O95293   3.984   2.894   9.591
31684WAT     H195294   4.068   2.940   9.563
31684WAT     H295295   3.985   2.882   9.690
31685WAT      O95296   9.488   2.886   6.614
31685WAT     H195297   9.486   2.975   6.659
31685WAT     H295298   9.567   2.881   6.552
31686WAT      O95299   3.976   4.428   3.239
31686WAT     H195300   4.029   4.348   3.267
31686WAT     H295301   3.972   4.494   3.314
31687WAT      O95302   1.842   2.997   1.123
31687WAT     H195303   1.914   2.939   1.084
31687WAT     H295304   1.882   3.057   1.191
31688WAT      O95305   7.847   5.276   0.714
31688WAT     H195306   7.866   5.347   0.782
31688WAT     H295307   7.753   5.244   0.724
31689WAT      O95308   4.468   5.625   2.408
31689WAT     H195309   4.370   5.645   2.400
31689WAT     H295310   4.520   5.692   2.354
31690WAT      O95311   3.773   7.555   1.966
31690WAT     H195312   3.802   7.460   1.955
31690WAT     H295313   3.825   7.598   2.040
31691WAT      O95314   5.791   8.049   5.266
31691WAT     H195315   5.749   7.961   5.288
31691WAT     H295316   5.836   8.086   5.347
31692WAT      O95317   4.249   2.937   7.929
31692WAT     H195318   4.304   2.995   7.989
31692WAT     H295319   4.292   2.933   7.838
31693WAT      O95320   9.089   0.988   1.322
31693WAT     H195321   9.007   0.938   1.296
31693WAT     H295322   9.070   1.044   1.403
31694WAT      O95323   4.215   0.177   0.474
31694WAT     H195324   4.300   0.153   0.426
31694WAT     H295325   4.235   0.246   0.543
31695WAT      O95326   5.208   6.493   2.026
31695WAT     H195327   5.222   6.551   2.107
31695WAT     H295328   5.228   6.546   1.944
31696WAT      O95329   6.547   6.141   6.419
31696WAT     H195330   6.541   6.171   6.324
31696WAT     H295331   6.461   6.163   6.466
31697WAT      O95332   0.516   8.144   0.575
31697WAT     H195333   0.616   8.144   0.583
31697WAT     H295334   0.476   8.176   0.661
31698WAT      O95335   9.263   4.550   6.017
31698WAT     H195336   9.359   4.533   5.994
31698WAT     H295337   9.239   4.645   5.996
31699WAT      O95338   1.304   5.060   4.793
31699WAT     H195339   1.314   5.074   4.695
31699WAT     H295340   1.209   5.033   4.813
31700WAT      O95341   9.125   1.216   8.208
31700WAT     H195342   9.164   1.211   8.116
31700WAT     H295343   9.107   1.311   8.232
31701WAT      O95344   8.283   2.221   1.753
31701WAT     H195345   8.309   2.128   1.728
31701WAT     H295346   8.270   2.226   1.853
31702WAT      O95347   9.771   8.164   9.554
31702WAT     H195348   9.856   8.136   9.510
31702WAT     H295349   9.789   8.235   9.621
31703WAT      O95350   1.352   9.722   8.516
31703WAT     H195351   1.399   9.634   8.522
31703WAT     H295352   1.382   9.781   8.591
31704WAT      O95353   1.946   0.112   6.266
31704WAT     H195354   2.030   0.104   6.319
31704WAT     H295355   1.963   0.077   6.173
31705WAT      O95356   3.891   8.459   6.304
31705WAT     H195357   3.897   8.364   6.274
31705WAT     H295358   3.972   8.483   6.356
31706WAT      O95359   6.936   3.999   8.279
31706WAT     H195360   7.006   3.996   8.351
31706WAT     H295361   6.872   4.073   8.298
31707WAT      O95362   6.367   8.497   4.443
31707WAT     H195363   6.302   8.571   4.462
31707WAT     H295364   6.425   8.523   4.365
31708WAT      O95365   9.078   4.086   8.488
31708WAT     H195366   8.989   4.120   8.517
31708WAT     H295367   9.092   3.994   8.526
31709WAT      O95368   9.239   3.903   1.133
31709WAT     H195369   9.287   3.823   1.168
31709WAT     H295370   9.293   3.945   1.060
31710WAT      O95371   6.894   4.356   4.704
31710WAT     H195372   6.824   4.302   4.750
31710WAT     H295373   6.851   4.415   4.636
31711WAT      O95374   7.164   7.900   7.538
31711WAT     H195375   7.099   7.830   7.509
31711WAT     H295376   7.247   7.857   7.574
31712WAT      O95377   1.387   4.952   7.644
31712WAT     H195378   1.352   4.860   7.661
31712WAT     H295379   1.324   5.002   7.584
31713WAT      O95380   0.381   5.030   8.244
31713WAT     H195381   0.468   4.982   8.254
31713WAT     H295382   0.312   4.986   8.302
31714WAT      O95383   6.078   9.085   3.901
31714WAT     H195384   5.985   9.056   3.882
31714WAT     H295385   6.088   9.104   3.999
31715WAT      O95386   7.770   4.577   0.458
31715WAT     H195387   7.689   4.633   0.439
31715WAT     H295388   7.800   4.593   0.552
31716WAT      O95389   5.993   4.460   8.586
31716WAT     H195390   5.909   4.513   8.599
31716WAT     H295391   5.991   4.380   8.645
31717WAT      O95392   4.627   3.804   8.986
31717WAT     H195393   4.714   3.853   8.983
31717WAT     H295394   4.560   3.858   9.037
31718WAT      O95395   9.345   0.152   5.553
31718WAT     H195396   9.397   0.133   5.470
31718WAT     H295397   9.287   0.073   5.574
31719WAT      O95398   4.700   0.738   0.371
31719WAT     H195399   4.601   0.724   0.368
31719WAT     H295400   4.741   0.704   0.287
31720WAT      O95401   8.996   2.567   8.424
31720WAT     H195402   8.906   2.528   8.406
31720WAT     H295403   9.037   2.596   8.337
31721WAT      O95404   0.605   8.762   9.282
31721WAT     H195405   0.648   8.675   9.306
31721WAT     H295406   0.595   8.768   9.183
31722WAT      O95407   6.405   7.222   7.188
31722WAT     H195408   6.351   7.299   7.222
31722WAT     H295409   6.428   7.239   7.092
31723WAT      O95410   0.537   2.017   1.398
31723WAT     H195411   0.501   1.962   1.474
31723WAT     H295412   0.623   1.977   1.366
31724WAT      O95413   1.974   2.232   0.587
31724WAT     H195414   2.052   2.180   0.554
31724WAT     H295415   1.970   2.320   0.538
31725WAT      O95416   0.456   1.488   5.395
31725WAT     H195417   0.539   1.506   5.342
31725WAT     H295418   0.376   1.517   5.342
31726WAT      O95419   2.421   8.945   1.274
31726WAT     H195420   2.331   8.912   1.305
31726WAT     H295421   2.416   8.971   1.178
31727WAT      O95422   1.849   7.010   2.292
31727WAT     H195423   1.841   7.090   2.351
31727WAT     H295424   1.934   7.017   2.239
31728WAT      O95425   1.572   1.270   8.188
31728WAT     H195426   1.532   1.220   8.111
31728WAT     H295427   1.624   1.348   8.154
31729WAT      O95428   5.279   2.514   3.740
31729WAT     H195429   5.266   2.416   3.758
31729WAT     H295430   5.237   2.537   3.653
31730WAT      O95431   8.981   4.142   7.636
31730WAT     H195432   9.034   4.223   7.607
31730WAT     H295433   8.951   4.154   7.730
31731WAT      O95434   8.616   2.503   1.694
31731WAT     H195435   8.686   2.516   1.623
31731WAT     H295436   8.625   2.574   1.764
31732WAT      O95437   7.370   2.062   9.058
31732WAT     H195438   7.353   2.135   8.991
31732WAT     H295439   7.319   1.980   9.032
31733WAT      O95440   9.386   6.396   6.117
31733WAT     H195441   9.433   6.314   6.149
31733WAT     H295442   9.314   6.421   6.182
31734WAT      O95443   8.618   4.406   9.061
31734WAT     H195444   8.604   4.311   9.036
31734WAT     H295445   8.579   4.466   8.990
31735WAT      O95446   2.877   5.901   5.198
31735WAT     H195447   2.966   5.856   5.206
31735WAT     H295448   2.806   5.831   5.189
31736WAT      O95449   0.549   5.620   4.513
31736WAT     H195450   0.494   5.675   4.576
31736WAT     H295451   0.607   5.680   4.459
31737WAT      O95452   6.110   6.206   5.123
31737WAT     H195453   6.203   6.169   5.121
31737WAT     H295454   6.056   6.156   5.190
31738WAT      O95455   1.044   1.376   0.473
31738WAT     H195456   0.962   1.372   0.530
31738WAT     H295457   1.072   1.471   0.460
31739WAT      O95458   0.988   6.844   4.007
31739WAT     H195459   0.928   6.881   4.077
31739WAT     H295460   1.082   6.844   4.040
31740WAT      O95461   1.569   4.533   3.277
31740WAT     H195462   1.646   4.594   3.262
31740WAT     H295463   1.497   4.582   3.327
31741WAT      O95464   5.202   7.904   9.333
31741WAT     H195465   5.151   7.955   9.264
31741WAT     H295466   5.297   7.894   9.304
31742WAT      O95467   5.253   2.341   8.478
31742WAT     H195468   5.285   2.307   8.566
31742WAT     H295469   5.242   2.441   8.483
31743WAT      O95470   3.151   8.195   3.260
31743WAT     H195471   3.213   8.236   3.327
31743WAT     H295472   3.191   8.202   3.169
31744WAT      O95473   7.704   5.560   7.967
31744WAT     H195474   7.635   5.627   7.993
31744WAT     H295475   7.734   5.578   7.873
31745WAT      O95476   9.632   4.931   9.028
31745WAT     H195477   9.611   4.836   9.048
31745WAT     H295478   9.561   4.969   8.968
31746WAT      O95479   0.060   3.790   3.208
31746WAT     H195480   0.085   3.789   3.111
31746WAT     H295481   0.004   3.870   3.228
31747WAT      O95482   0.074   7.674   7.308
31747WAT     H195483   0.109   7.585   7.336
31747WAT     H295484   0.150   7.738   7.298
31748WAT      O95485   4.819   8.324   4.815
31748WAT     H195486   4.889   8.342   4.746
31748WAT     H295487   4.863   8.308   4.904
31749WAT      O95488   9.443   8.556   4.388
31749WAT     H195489   9.541   8.572   4.374
31749WAT     H295490   9.400   8.639   4.422
31750WAT      O95491   4.368   1.521   2.148
31750WAT     H195492   4.458   1.484   2.172
31750WAT     H295493   4.373   1.621   2.145
31751WAT      O95494   5.635   7.905   8.162
31751WAT     H195495   5.535   7.911   8.167
31751WAT     H295496   5.662   7.870   8.072
31752WAT      O95497   4.221   6.724   9.601
31752WAT     H195498   4.206   6.749   9.505
31752WAT     H295499   4.134   6.696   9.642
31753WAT      O95500   9.649   5.118   6.881
31753WAT     H195501   9.665   5.040   6.942
31753WAT     H295502   9.665   5.089   6.786
31754WAT      O95503   1.254   6.674   4.937
31754WAT     H195504   1.246   6.738   4.861
31754WAT     H295505   1.340   6.691   4.986
31755WAT      O95506   5.574   0.854   4.745
31755WAT     H195507   5.658   0.861   4.798
31755WAT     H295508   5.595   0.864   4.648
31756WAT      O95509   2.422   1.814   8.766
31756WAT     H195510   2.387   1.743   8.827
31756WAT     H295511   2.519   1.827   8.783
31757WAT      O95512   1.326   8.315   2.103
31757WAT     H195513   1.336   8.302   2.202
31757WAT     H295514   1.293   8.408   2.084
31758WAT      O95515   3.294   7.720   8.802
31758WAT     H195516   3.299   7.639   8.861
31758WAT     H295517   3.254   7.696   8.714
31759WAT      O95518   4.315   0.017   9.814
31759WAT     H195519   4.390   0.055   9.867
31759WAT     H295520   4.257   0.091   9.780
31760WAT      O95521   7.324   8.003   2.973
31760WAT     H195522   7.375   7.966   3.051
31760WAT     H295523   7.379   8.074   2.929
31761WAT      O95524   0.868   9.465   7.185
31761WAT     H195525   0.906   9.474   7.093
31761WAT     H295526   0.863   9.555   7.228
31762WAT      O95527   3.365   7.736   5.195
31762WAT     H195528   3.455   7.763   5.228
31762WAT     H295529   3.343   7.787   5.112
31763WAT      O95530   8.952   5.437   8.295
31763WAT     H195531   9.040   5.476   8.321
31763WAT     H295532   8.922   5.475   8.208
31764WAT      O95533   2.832   8.881   9.186
31764WAT     H195534   2.849   8.890   9.087
31764WAT     H295535   2.734   8.867   9.202
31765WAT      O95536   7.147   1.233   2.487
31765WAT     H195537   7.102   1.320   2.469
31765WAT     H295538   7.127   1.204   2.581
31766WAT      O95539   7.972   0.897   1.107
31766WAT     H195540   7.943   0.828   1.174
31766WAT     H295541   7.997   0.852   1.022
31767WAT      O95542   3.295   2.934   4.387
31767WAT     H195543   3.289   2.910   4.291
31767WAT     H295544   3.372   2.997   4.402
31768WAT      O95545   8.824   9.376   1.178
31768WAT     H195546   8.744   9.317   1.189
31768WAT     H295547   8.817   9.426   1.092
31769WAT      O95548   0.344   2.068   3.299
31769WAT     H195549   0.350   2.092   3.396
31769WAT     H295550   0.311   2.147   3.247
31770WAT      O95551   0.212   5.724   1.797
31770WAT     H195552   0.151   5.733   1.719
31770WAT     H295553   0.278   5.651   1.780
31771WAT      O95554   8.318   1.433   4.465
31771WAT     H195555   8.320   1.468   4.559
31771WAT     H295556   8.402   1.381   4.448
31772WAT      O95557   5.889   3.114   3.222
31772WAT     H195558   5.928   3.194   3.267
31772WAT     H295559   5.844   3.141   3.137
31773WAT      O95560   3.474   4.808   1.302
31773WAT     H195561   3.378   4.824   1.323
31773WAT     H295562   3.512   4.741   1.367
31774WAT      O95563   6.772   8.466   6.591
31774WAT     H195564   6.784   8.422   6.503
31774WAT     H295565   6.844   8.437   6.654
31775WAT      O95566   8.131   2.380   8.695
31775WAT     H195567   8.091   2.293   8.724
31775WAT     H295568   8.209   2.363   8.636
31776WAT      O95569   1.058   8.097   9.200
31776WAT     H195570   1.119   8.018   9.205
31776WAT     H295571   1.025   8.119   9.292
31777WAT      O95572   7.405   2.646   5.961
31777WAT     H195573   7.495   2.676   5.931
31777WAT     H295574   7.339   2.662   5.887
31778WAT      O95575   8.922   8.227   8.343
31778WAT     H195576   8.906   8.188   8.252
31778WAT     H295577   8.972   8.161   8.399
31779WAT      O95578   4.363   4.777   1.441
31779WAT     H195579   4.423   4.715   1.491
31779WAT     H295580   4.278   4.729   1.417
31780WAT      O95581   1.839   1.668   2.776
31780WAT     H195582   1.765   1.713   2.726
31780WAT     H295583   1.903   1.738   2.809
31781WAT      O95584   7.275   8.062   3.848
31781WAT     H195585   7.255   8.053   3.946
31781WAT     H295586   7.347   7.997   3.823
31782WAT      O95587   0.765   1.527   0.435
31782WAT     H195588   0.796   1.618   0.465
31782WAT     H295589   0.746   1.529   0.337
31783WAT      O95590   9.342   4.202   4.143
31783WAT     H195591   9.363   4.297   4.163
31783WAT     H295592   9.400   4.170   4.067
31784WAT      O95593   2.702   4.801   8.454
31784WAT     H195594   2.688   4.780   8.550
31784WAT     H295595   2.758   4.730   8.412
31785WAT      O95596   3.238   0.411   6.717
31785WAT     H195597   3.162   0.386   6.656
31785WAT     H295598   3.211   0.491   6.771
31786WAT      O95599   0.163   2.684   5.150
31786WAT     H195600   0.196   2.752   5.214
31786WAT     H295601   0.226   2.607   5.147
31787WAT      O95602   4.518   6.082   6.795
31787WAT     H195603   4.593   6.144   6.770
31787WAT     H295604   4.491   6.029   6.714
31788WAT      O95605   2.872   7.649   1.414
31788WAT     H195606   2.815   7.715   1.464
31788WAT     H295607   2.896   7.687   1.325
31789WAT      O95608   8.054   0.529   8.888
31789WAT     H195609   8.089   0.473   8.963
31789WAT     H295610   8.094   0.499   8.802
31790WAT      O95611   3.935   6.140   8.596
31790WAT     H195612   3.841   6.108   8.585
31790WAT     H295613   3.997   6.080   8.545
31791WAT      O95614   4.963   0.312   7.340
31791WAT     H195615   4.900   0.253   7.289
31791WAT     H295616   5.035   0.256   7.382
31792WAT      O95617   0.484   6.620   4.298
31792WAT     H195618   0.412   6.601   4.231
31792WAT     H295619   0.451   6.595   4.389
31793WAT      O95620   0.050   5.551   3.750
31793WAT     H195621   0.097   5.600   3.823
31793WAT     H295622   0.091   5.576   3.662
31794WAT      O95623   5.685   4.668   1.393
31794WAT     H195624   5.696   4.582   1.343
31794WAT     H295625   5.601   4.665   1.447
31795WAT      O95626   5.727   7.389   0.615
31795WAT     H195627   5.635   7.427   0.629
31795WAT     H295628   5.772   7.437   0.540
31796WAT      O95629   4.207   4.056   3.098
31796WAT     H195630   4.182   3.967   3.136
31796WAT     H295631   4.188   4.127   3.165
31797WAT      O95632   5.488   2.307   9.898
31797WAT     H195633   5.502   2.232   9.833
31797WAT     H295634   5.446   2.385   9.851
31798WAT      O95635   9.836   7.954   8.052
31798WAT     H195636   9.856   7.858   8.031
31798WAT     H295637   9.755   7.983   8.001
31799WAT      O95638   0.947   3.244   7.315
31799WAT     H195639   0.888   3.323   7.330
31799WAT     H295640   0.936   3.211   7.221
31800WAT      O95641   1.627   0.093   6.529
31800WAT     H195642   1.702   0.149   6.565
31800WAT     H295643   1.663   0.005   6.498
31801WAT      O95644   4.319   3.545   4.843
31801WAT     H195645   4.402   3.578   4.798
31801WAT     H295646   4.246   3.613   4.832
31802WAT      O95647   4.790   4.620   8.526
31802WAT     H195648   4.748   4.709   8.508
31802WAT     H295649   4.885   4.634   8.553
31803WAT      O95650   7.614   8.769   0.234
31803WAT     H195651   7.647   8.685   0.189
31803WAT     H295652   7.667   8.847   0.201
31804WAT      O95653   8.427   3.108   2.719
31804WAT     H195654   8.422   3.051   2.638
31804WAT     H295655   8.523   3.134   2.735
31805WAT      O95656   7.587   7.941   7.165
31805WAT     H195657   7.684   7.926   7.147
31805WAT     H295658   7.547   7.995   7.091
31806WAT      O95659   4.759   2.210   2.180
31806WAT     H195660   4.808   2.188   2.096
31806WAT     H295661   4.764   2.308   2.198
31807WAT      O95662   4.967   5.987   6.426
31807WAT     H195663   5.019   5.904   6.444
31807WAT     H295664   4.947   6.033   6.513
31808WAT      O95665   9.548   9.318   6.580
31808WAT     H195666   9.616   9.269   6.526
31808WAT     H295667   9.584   9.408   6.606
31809WAT      O95668   0.585   3.619   0.031
31809WAT     H195669   0.667   3.612  -0.025
31809WAT     H295670   0.504   3.609  -0.027
31810WAT      O95671   5.211   0.527   1.658
31810WAT     H195672   5.146   0.597   1.688
31810WAT     H295673   5.199   0.510   1.560
31811WAT      O95674   8.363   6.387   1.575
31811WAT     H195675   8.335   6.358   1.483
31811WAT     H295676   8.368   6.487   1.579
31812WAT      O95677   7.087   0.889   3.213
31812WAT     H195678   7.184   0.906   3.197
31812WAT     H295679   7.064   0.911   3.308
31813WAT      O95680   6.859   7.780   9.610
31813WAT     H195681   6.797   7.792   9.532
31813WAT     H295682   6.811   7.804   9.695
31814WAT      O95683   8.095   4.772   2.757
31814WAT     H195684   8.023   4.823   2.711
31814WAT     H295685   8.055   4.691   2.801
31815WAT      O95686   7.909   8.773   3.530
31815WAT     H195687   7.974   8.698   3.525
31815WAT     H295688   7.914   8.816   3.620
31816WAT      O95689   9.768   2.485   3.463
31816WAT     H195690   9.848   2.539   3.434
31816WAT     H295691   9.763   2.401   3.409
31817WAT      O95692   6.736   1.868   1.291
31817WAT     H195693   6.666   1.832   1.353
31817WAT     H295694   6.796   1.794   1.262
31818WAT      O95695   1.807   4.766   3.573
31818WAT     H195696   1.804   4.760   3.473
31818WAT     H295697   1.807   4.673   3.611
31819WAT      O95698   8.168   2.820   5.469
31819WAT     H195699   8.267   2.836   5.473
31819WAT     H295700   8.146   2.767   5.387
31820WAT      O95701   9.206   8.900   1.984
31820WAT     H195702   9.230   8.981   1.931
31820WAT     H295703   9.109   8.880   1.973
31821WAT      O95704   8.179   2.447   0.741
31821WAT     H195705   8.228   2.528   0.774
31821WAT     H295706   8.226   2.364   0.772
31822WAT      O95707   8.948   1.816   8.657
31822WAT     H195708   9.005   1.780   8.731
31822WAT     H295709   8.959   1.759   8.575
31823WAT      O95710   3.290   2.670   4.499
31823WAT     H195711   3.307   2.767   4.484
31823WAT     H295712   3.336   2.641   4.584
31824WAT      O95713   4.543   3.995   4.720
31824WAT     H195714   4.547   4.051   4.803
31824WAT     H295715   4.634   3.990   4.679
31825WAT      O95716   7.853   2.411   8.325
31825WAT     H195717   7.930   2.382   8.381
31825WAT     H295718   7.874   2.499   8.282
31826WAT      O95719   8.421   0.775   4.711
31826WAT     H195720   8.489   0.804   4.779
31826WAT     H295721   8.354   0.715   4.755
31827WAT      O95722   4.715   7.234   7.348
31827WAT     H195723   4.779   7.228   7.425
31827WAT     H295724   4.670   7.323   7.348
31828WAT      O95725   6.882   1.381   2.244
31828WAT     H195726   6.922   1.295   2.213
31828WAT     H295727   6.871   1.443   2.167
31829WAT      O95728   9.367   6.033   6.103
31829WAT     H195729   9.416   6.097   6.162
31829WAT     H295730   9.419   6.019   6.018
31830WAT      O95731   2.019   9.359   4.267
31830WAT     H195732   2.053   9.372   4.174
31830WAT     H295733   2.016   9.261   4.288
31831WAT      O95734   6.216   2.125   3.912
31831WAT     H195735   6.312   2.117   3.886
31831WAT     H295736   6.187   2.220   3.905
31832WAT      O95737   1.737   0.926   8.630
31832WAT     H195738   1.686   0.882   8.705
31832WAT     H295739   1.676   0.989   8.581
31833WAT      O95740   8.309   6.365   6.842
31833WAT     H195741   8.290   6.445   6.899
31833WAT     H295742   8.310   6.283   6.899
31834WAT      O95743   9.270   9.230   4.808
31834WAT     H195744   9.259   9.189   4.899
31834WAT     H295745   9.231   9.170   4.739
31835WAT      O95746   6.091   3.128   8.215
31835WAT     H195747   6.027   3.071   8.162
31835WAT     H295748   6.182   3.121   8.175
31836WAT      O95749   8.191   4.474   8.576
31836WAT     H195750   8.259   4.516   8.636
31836WAT     H295751   8.104   4.522   8.585
31837WAT      O95752   8.239   0.508   5.452
31837WAT     H195753   8.249   0.601   5.488
31837WAT     H295754   8.283   0.443   5.514
31838WAT      O95755   3.379   3.730   5.922
31838WAT     H195756   3.336   3.691   6.003
31838WAT     H295757   3.450   3.795   5.950
31839WAT      O95758   3.349   7.810   1.397
31839WAT     H195759   3.416   7.882   1.415
31839WAT     H295760   3.257   7.844   1.421
31840WAT      O95761   7.795   3.201   3.530
31840WAT     H195762   7.712   3.237   3.571
31840WAT     H295763   7.775   3.115   3.483
31841WAT      O95764   6.141   9.432   1.927
31841WAT     H195765   6.098   9.520   1.948
31841WAT     H295766   6.071   9.361   1.923
31842WAT      O95767   6.696   5.197   9.144
31842WAT     H195768   6.733   5.259   9.075
31842WAT     H295769   6.737   5.217   9.233
31843WAT      O95770   2.543   0.941   9.110
31843WAT     H195771   2.447   0.917   9.122
31843WAT     H295772   2.551   1.018   9.047
31844WAT      O95773   3.708   8.290   7.956
31844WAT     H195774   3.796   8.301   7.911
31844WAT     H295775   3.652   8.224   7.905
31845WAT      O95776   9.635   0.996   8.469
31845WAT     H195777   9.572   1.004   8.391
31845WAT     H295778   9.700   1.072   8.467
31846WAT      O95779   1.327   3.492   7.472
31846WAT     H195780   1.297   3.407   7.428
31846WAT     H295781   1.288   3.497   7.564
31847WAT      O95782   1.218   9.039   7.528
31847WAT     H195783   1.219   9.116   7.592
31847WAT     H295784   1.226   9.073   7.434
31848WAT      O95785   3.035   6.077   9.498
31848WAT     H195786   3.064   6.016   9.571
31848WAT     H295787   3.104   6.079   9.426
31849WAT      O95788   4.802   9.616   3.313
31849WAT     H195789   4.849   9.631   3.400
31849WAT     H295790   4.842   9.537   3.267
31850WAT      O95791   4.936   8.910   0.543
31850WAT     H195792   4.937   8.972   0.622
31850WAT     H295793   4.988   8.951   0.468
31851WAT      O95794   6.306   2.590   5.571
31851WAT     H195795   6.292   2.628   5.479
31851WAT     H295796   6.222   2.599   5.624
31852WAT      O95797   1.085   5.872   0.577
31852WAT     H195798   1.079   5.965   0.613
31852WAT     H295799   1.036   5.865   0.491
31853WAT      O95800   3.125   8.990   0.214
31853WAT     H195801   3.199   9.011   0.149
31853WAT     H295802   3.154   8.916   0.274
31854WAT      O95803   1.339   8.623   3.861
31854WAT     H195804   1.351   8.700   3.924
31854WAT     H295805   1.357   8.654   3.767
31855WAT      O95806   0.608   1.391   4.295
31855WAT     H195807   0.545   1.369   4.221
31855WAT     H295808   0.599   1.323   4.368
31856WAT      O95809   4.309   2.220   0.699
31856WAT     H195810   4.297   2.318   0.711
31856WAT     H295811   4.256   2.171   0.769
31857WAT      O95812   4.550   9.253   9.576
31857WAT     H195813   4.614   9.189   9.618
31857WAT     H295814   4.587   9.285   9.488
31858WAT      O95815   1.168   0.429   2.858
31858WAT     H195816   1.216   0.500   2.909
31858WAT     H295817   1.075   0.419   2.895
31859WAT      O95818   6.782   5.294   1.948
31859WAT     H195819   6.732   5.377   1.923
31859WAT     H295820   6.775   5.228   1.874
31860WAT      O95821   2.124   7.979   4.984
31860WAT     H195822   2.200   7.931   5.028
31860WAT     H295823   2.112   7.945   4.891
31861WAT      O95824   3.883   4.508   2.355
31861WAT     H195825   3.829   4.571   2.299
31861WAT     H295826   3.893   4.545   2.447
31862WAT      O95827   1.457   3.866   2.217
31862WAT     H195828   1.511   3.865   2.133
31862WAT     H295829   1.506   3.916   2.288
31863WAT      O95830   9.392   8.795   6.974
31863WAT     H195831   9.480   8.814   6.930
31863WAT     H295832   9.324   8.860   6.941
31864WAT      O95833   6.186   0.078   3.120
31864WAT     H195834   6.228   0.141   3.055
31864WAT     H295835   6.093   0.055   3.089
31865WAT      O95836   6.072   7.140   6.057
31865WAT     H195837   6.153   7.164   6.005
31865WAT     H295838   5.997   7.202   6.035
31866WAT      O95839   1.118   3.089   3.101
31866WAT     H195840   1.147   3.184   3.108
31866WAT     H295841   1.053   3.069   3.175
31867WAT      O95842   3.547   9.297   0.722
31867WAT     H195843   3.588   9.315   0.811
31867WAT     H295844   3.447   9.296   0.731
31868WAT      O95845   9.568   7.431   1.912
31868WAT     H195846   9.604   7.435   1.819
31868WAT     H295847   9.468   7.438   1.909
31869WAT      O95848   6.847   3.486   2.226
31869WAT     H195849   6.823   3.436   2.309
31869WAT     H295850   6.861   3.420   2.152
31870WAT      O95851   6.412   1.591   0.465
31870WAT     H195852   6.360   1.660   0.516
31870WAT     H295853   6.478   1.547   0.526
31871WAT      O95854   4.056   8.567   9.715
31871WAT     H195855   4.017   8.520   9.636
31871WAT     H295856   4.154   8.549   9.720
31872WAT      O95857   5.407   4.996   5.367
31872WAT     H195858   5.476   5.065   5.389
31872WAT     H295859   5.387   4.999   5.269
31873WAT      O95860   1.638   4.782   1.983
31873WAT     H195861   1.617   4.874   1.948
31873WAT     H295862   1.715   4.788   2.047
31874WAT      O95863   3.430   5.317   9.340
31874WAT     H195864   3.353   5.255   9.360
31874WAT     H295865   3.488   5.276   9.270
31875WAT      O95866   7.880   9.657   2.444
31875WAT     H195867   7.874   9.726   2.516
31875WAT     H295868   7.791   9.648   2.399
31876WAT      O95869   6.100   5.350   5.528
31876WAT     H195870   6.177   5.411   5.543
31876WAT     H295871   6.032   5.395   5.471
31877WAT      O95872   1.074   3.979   3.366
31877WAT     H195873   1.130   3.937   3.437
31877WAT     H295874   1.115   3.961   3.277
31878WAT      O95875   4.938   8.992   0.245
31878WAT     H195876   4.846   8.984   0.206
31878WAT     H295877   4.966   9.088   0.245
31879WAT      O95878   7.734   0.841   3.248
31879WAT     H195879   7.659   0.791   3.291
31879WAT     H295880   7.773   0.786   3.175
31880WAT      O95881   6.411   8.034   3.206
31880WAT     H195882   6.448   8.122   3.234
31880WAT     H295883   6.312   8.033   3.221
31881WAT      O95884   1.400   7.525   8.056
31881WAT     H195885   1.323   7.543   8.118
31881WAT     H295886   1.418   7.606   8.001
31882WAT      O95887   0.567   9.321   2.190
31882WAT     H195888   0.481   9.313   2.240
31882WAT     H295889   0.599   9.416   2.194
31883WAT      O95890   3.991   6.708   3.873
31883WAT     H195891   4.045   6.756   3.942
31883WAT     H295892   4.019   6.740   3.782
31884WAT      O95893   2.247   9.178   7.358
31884WAT     H195894   2.337   9.215   7.337
31884WAT     H295895   2.257   9.089   7.404
31885WAT      O95896   3.815   6.348   6.507
31885WAT     H195897   3.722   6.369   6.480
31885WAT     H295898   3.867   6.433   6.519
31886WAT      O95899   8.989   2.804   3.523
31886WAT     H195900   8.889   2.806   3.522
31886WAT     H295901   9.020   2.762   3.608
31887WAT      O95902   7.254   0.211   4.485
31887WAT     H195903   7.299   0.124   4.462
31887WAT     H295904   7.201   0.199   4.569
31888WAT      O95905   1.299   0.106   5.299
31888WAT     H195906   1.317   0.158   5.383
31888WAT     H295907   1.385   0.084   5.254
31889WAT      O95908   2.852   9.460   9.214
31889WAT     H195909   2.813   9.481   9.304
31889WAT     H295910   2.879   9.546   9.169
31890WAT      O95911   6.688   9.335   8.277
31890WAT     H195912   6.640   9.248   8.265
31890WAT     H295913   6.627   9.410   8.253
31891WAT      O95914   5.054   1.353   2.200
31891WAT     H195915   4.989   1.388   2.132
31891WAT     H295916   5.146   1.384   2.178
31892WAT      O95917   2.428   9.618   3.650
31892WAT     H195918   2.526   9.611   3.633
31892WAT     H295919   2.413   9.648   3.745
31893WAT      O95920   6.220   3.207   5.040
31893WAT     H195921   6.182   3.115   5.027
31893WAT     H295922   6.200   3.263   4.959
31894WAT      O95923   0.448   0.389   6.665
31894WAT     H195924   0.488   0.478   6.643
31894WAT     H295925   0.402   0.352   6.584
31895WAT      O95926   8.503   0.699   5.331
31895WAT     H195927   8.506   0.677   5.428
31895WAT     H295928   8.445   0.780   5.317
31896WAT      O95929   5.772   9.617   9.357
31896WAT     H195930   5.769   9.602   9.258
31896WAT     H295931   5.717   9.548   9.403
31897WAT      O95932   2.711   5.383   4.286
31897WAT     H195933   2.737   5.408   4.193
31897WAT     H295934   2.655   5.455   4.326
31898WAT      O95935   2.254   9.170   3.675
31898WAT     H195936   2.335   9.226   3.688
31898WAT     H295937   2.281   9.076   3.656
31899WAT      O95938   0.643   9.034   1.295
31899WAT     H195939   0.710   9.059   1.225
31899WAT     H295940   0.552   9.035   1.255
   9.88928    9.84380    9.89279 
