GROningen MAchine for Chemical Simulation
95940
    1G5    HO5'    1   4.120   6.154   6.726
    1G5     O5'    2   4.142   6.096   6.653
    1G5     C5'    3   4.026   6.026   6.614
    1G5     H5'    4   3.953   6.036   6.693
    1G5    H5''    5   4.053   5.923   6.589
    1G5     C4'    6   3.964   6.101   6.497
    1G5     H4'    7   3.886   6.036   6.458
    1G5     O4'    8   3.917   6.232   6.532
    1G5     C1'    9   3.930   6.318   6.416
    1G5     H1'   10   3.836   6.370   6.398
    1G5      N9   11   4.035   6.422   6.440
    1G5      C8   12   4.141   6.418   6.527
    1G5      H8   13   4.150   6.338   6.599
    1G5      N7   14   4.205   6.530   6.532
    1G5      C5   15   4.147   6.610   6.430
    1G5      C6   16   4.187   6.732   6.355
    1G5      O6   17   4.268   6.817   6.388
    1G5      N1   18   4.111   6.765   6.246
    1G5      H1   19   4.125   6.852   6.196
    1G5      C2   20   4.018   6.681   6.200
    1G5      N2   21   3.964   6.715   6.086
    1G5     H21   22   3.994   6.799   6.040
    1G5     H22   23   3.896   6.651   6.048
    1G5      N3   24   3.978   6.569   6.252
    1G5      C4   25   4.049   6.536   6.365
    1G5     C3'   26   4.057   6.122   6.376
    1G5     H3'   27   4.146   6.176   6.409
    1G5     C2'   28   3.968   6.229   6.301
    1G5     H2'   29   4.026   6.279   6.224
    1G5     O2'   30   3.851   6.176   6.242
    1G5    HO2'   31   3.820   6.245   6.182
    1G5     O3'   32   4.083   5.998   6.295
    2G        P   33   4.204   5.988   6.196
    2G      OP1   34   4.188   5.856   6.133
    2G      OP2   35   4.323   6.016   6.280
    2G      O5'   36   4.190   6.111   6.086
    2G      C5'   37   4.083   6.111   5.991
    2G      H5'   38   3.987   6.103   6.043
    2G     H5''   39   4.093   6.021   5.931
    2G      C4'   40   4.076   6.238   5.910
    2G      H4'   41   3.995   6.233   5.837
    2G      O4'   42   4.063   6.348   6.004
    2G      C1'   43   4.142   6.451   5.953
    2G      H1'   44   4.080   6.540   5.946
    2G       N9   45   4.253   6.482   6.049
    2G       C8   46   4.308   6.398   6.138
    2G       H8   47   4.269   6.297   6.145
    2G       N7   48   4.413   6.444   6.204
    2G       C5   49   4.431   6.570   6.152
    2G       C6   50   4.530   6.663   6.174
    2G       O6   51   4.625   6.656   6.256
    2G       N1   52   4.516   6.777   6.103
    2G       H1   53   4.585   6.845   6.130
    2G       C2   54   4.418   6.794   6.008
    2G       N2   55   4.437   6.904   5.936
    2G      H21   56   4.510   6.967   5.967
    2G      H22   57   4.374   6.929   5.861
    2G       N3   58   4.328   6.701   5.978
    2G       C4   59   4.330   6.593   6.058
    2G      C3'   60   4.202   6.257   5.825
    2G      H3'   61   4.286   6.228   5.888
    2G      C2'   62   4.197   6.411   5.816
    2G      H2'   63   4.301   6.440   5.800
    2G      O2'   64   4.104   6.462   5.715
    2G     HO2'   65   4.075   6.393   5.654
    2G      O3'   66   4.197   6.200   5.694
    3G        P   67   4.334   6.155   5.622
    3G      OP1   68   4.304   6.092   5.490
    3G      OP2   69   4.408   6.076   5.726
    3G      O5'   70   4.420   6.290   5.597
    3G      C5'   71   4.378   6.380   5.499
    3G      H5'   72   4.277   6.418   5.514
    3G     H5''   73   4.369   6.329   5.403
    3G      C4'   74   4.475   6.504   5.500
    3G      H4'   75   4.442   6.557   5.411
    3G      O4'   76   4.464   6.572   5.622
    3G      C1'   77   4.595   6.622   5.660
    3G      H1'   78   4.583   6.728   5.683
    3G       N9   79   4.647   6.549   5.777
    3G       C8   80   4.614   6.426   5.832
    3G       H8   81   4.537   6.367   5.784
    3G       N7   82   4.677   6.402   5.948
    3G       C5   83   4.769   6.504   5.958
    3G       C6   84   4.853   6.542   6.067
    3G       O6   85   4.864   6.492   6.185
    3G       N1   86   4.931   6.646   6.032
    3G       H1   87   4.995   6.679   6.103
    3G       C2   88   4.921   6.722   5.922
    3G       N2   89   4.999   6.829   5.916
    3G      H21   90   5.061   6.859   5.990
    3G      H22   91   5.000   6.875   5.826
    3G       N3   92   4.829   6.709   5.831
    3G       C4   93   4.756   6.596   5.852
    3G      C3'   94   4.620   6.482   5.477
    3G      H3'   95   4.658   6.390   5.523
    3G      C2'   96   4.688   6.603   5.541
    3G      H2'   97   4.794   6.583   5.560
    3G      O2'   98   4.677   6.719   5.464
    3G     HO2'   99   4.673   6.688   5.373
    3G      O3'  100   4.651   6.484   5.339
    4U        P  101   4.770   6.391   5.294
    4U      OP1  102   4.777   6.392   5.148
    4U      OP2  103   4.754   6.262   5.356
    4U      O5'  104   4.907   6.464   5.363
    4U      C5'  105   4.977   6.570   5.292
    4U      H5'  106   4.901   6.648   5.293
    4U     H5''  107   5.010   6.538   5.193
    4U      C4'  108   5.100   6.619   5.366
    4U      H4'  109   5.157   6.691   5.307
    4U      O4'  110   5.070   6.659   5.497
    4U      C1'  111   5.187   6.637   5.577
    4U      H1'  112   5.216   6.730   5.626
    4U       N1  113   5.148   6.551   5.689
    4U       C6  114   5.033   6.474   5.693
    4U       H6  115   4.968   6.472   5.607
    4U       C5  116   5.017   6.382   5.792
    4U       H5  117   4.936   6.310   5.792
    4U       C4  118   5.105   6.376   5.911
    4U       O4  119   5.098   6.300   6.004
    4U       N3  120   5.202   6.471   5.903
    4U       H3  121   5.266   6.468   5.981
    4U       C2  122   5.227   6.559   5.800
    4U       O2  123   5.313   6.641   5.814
    4U      C3'  124   5.200   6.507   5.372
    4U      H3'  125   5.152   6.414   5.403
    4U      C2'  126   5.289   6.563   5.492
    4U      H2'  127   5.340   6.484   5.546
    4U      O2'  128   5.389   6.648   5.447
    4U     HO2'  129   5.402   6.654   5.352
    4U      O3'  130   5.280   6.491   5.250
    5U        P  131   5.362   6.357   5.218
    5U      OP1  132   5.459   6.393   5.114
    5U      OP2  133   5.283   6.235   5.193
    5U      O5'  134   5.446   6.327   5.354
    5U      C5'  135   5.584   6.372   5.366
    5U      H5'  136   5.606   6.478   5.358
    5U     H5''  137   5.640   6.340   5.277
    5U      C4'  138   5.652   6.315   5.497
    5U      H4'  139   5.754   6.350   5.486
    5U      O4'  140   5.601   6.342   5.626
    5U      C1'  141   5.597   6.233   5.708
    5U      H1'  142   5.644   6.264   5.801
    5U       N1  143   5.458   6.180   5.727
    5U       C6  144   5.350   6.208   5.648
    5U       H6  145   5.360   6.276   5.565
    5U       C5  146   5.227   6.156   5.684
    5U       H5  147   5.143   6.184   5.621
    5U       C4  148   5.209   6.063   5.790
    5U       O4  149   5.102   6.016   5.826
    5U       N3  150   5.321   6.038   5.864
    5U       H3  151   5.308   5.979   5.944
    5U       C2  152   5.444   6.101   5.840
    5U       O2  153   5.538   6.070   5.920
    5U      C3'  154   5.641   6.163   5.493
    5U      H3'  155   5.538   6.131   5.472
    5U      C2'  156   5.681   6.131   5.636
    5U      H2'  157   5.653   6.029   5.664
    5U      O2'  158   5.823   6.144   5.650
    5U     HO2'  159   5.858   6.100   5.572
    5U      O3'  160   5.730   6.104   5.404
    6A        P  161   5.700   5.963   5.336
    6A      OP1  162   5.826   5.902   5.284
    6A      OP2  163   5.585   5.977   5.249
    6A      O5'  164   5.651   5.866   5.454
    6A      C5'  165   5.731   5.788   5.542
    6A      H5'  166   5.800   5.859   5.587
    6A     H5''  167   5.793   5.718   5.487
    6A      C4'  168   5.648   5.705   5.642
    6A      H4'  169   5.710   5.675   5.727
    6A      O4'  170   5.549   5.781   5.703
    6A      C1'  171   5.432   5.709   5.725
    6A      H1'  172   5.404   5.701   5.831
    6A       N9  173   5.321   5.767   5.638
    6A       C8  174   5.331   5.845   5.522
    6A       H8  175   5.422   5.889   5.483
    6A       N7  176   5.215   5.867   5.466
    6A       C5  177   5.124   5.807   5.555
    6A       C6  178   4.988   5.774   5.545
    6A       N6  179   4.905   5.810   5.449
    6A      H61  180   4.815   5.767   5.462
    6A      H62  181   4.929   5.869   5.371
    6A       N1  182   4.924   5.687   5.632
    6A       C2  183   4.997   5.648   5.732
    6A       H2  184   4.946   5.564   5.776
    6A       N3  185   5.130   5.668   5.754
    6A       C4  186   5.191   5.741   5.656
    6A      C3'  187   5.572   5.590   5.572
    6A      H3'  188   5.528   5.628   5.479
    6A      C2'  189   5.457   5.571   5.668
    6A      H2'  190   5.369   5.524   5.623
    6A      O2'  191   5.485   5.495   5.779
    6A     HO2'  192   5.512   5.412   5.739
    6A      O3'  193   5.649   5.474   5.551
    7G        P  194   5.599   5.384   5.432
    7G      OP1  195   5.687   5.269   5.420
    7G      OP2  196   5.569   5.469   5.316
    7G      O5'  197   5.461   5.321   5.476
    7G      C5'  198   5.455   5.219   5.580
    7G      H5'  199   5.516   5.250   5.665
    7G     H5''  200   5.505   5.138   5.527
    7G      C4'  201   5.315   5.188   5.620
    7G      H4'  202   5.315   5.128   5.710
    7G      O4'  203   5.229   5.300   5.647
    7G      C1'  204   5.101   5.282   5.592
    7G      H1'  205   5.019   5.292   5.663
    7G       N9  206   5.089   5.385   5.487
    7G       C8  207   5.182   5.466   5.424
    7G       H8  208   5.287   5.461   5.451
    7G       N7  209   5.135   5.546   5.335
    7G       C5  210   5.003   5.511   5.332
    7G       C6  211   4.894   5.550   5.241
    7G       O6  212   4.896   5.612   5.133
    7G       N1  213   4.785   5.468   5.260
    7G       H1  214   4.718   5.472   5.185
    7G       C2  215   4.763   5.379   5.358
    7G       N2  216   4.654   5.313   5.343
    7G      H21  217   4.598   5.328   5.261
    7G      H22  218   4.652   5.233   5.405
    7G       N3  219   4.853   5.354   5.451
    7G       C4  220   4.975   5.422   5.433
    7G      C3'  221   5.249   5.114   5.505
    7G      H3'  222   5.288   5.155   5.412
    7G      C2'  223   5.102   5.136   5.539
    7G      H2'  224   5.033   5.115   5.457
    7G      O2'  225   5.054   5.058   5.651
    7G     HO2'  226   5.106   4.977   5.652
    7G      O3'  227   5.269   4.971   5.520
    8G        P  228   5.280   4.882   5.398
    8G      OP1  229   5.277   4.744   5.450
    8G      OP2  230   5.394   4.925   5.321
    8G      O5'  231   5.145   4.915   5.316
    8G      C5'  232   5.017   4.857   5.343
    8G      H5'  233   4.985   4.871   5.447
    8G     H5''  234   5.014   4.748   5.330
    8G      C4'  235   4.901   4.903   5.252
    8G      H4'  236   4.815   4.846   5.287
    8G      O4'  237   4.875   5.045   5.268
    8G      C1'  238   4.857   5.103   5.143
    8G      H1'  239   4.761   5.154   5.149
    8G       N9  240   4.968   5.197   5.105
    8G       C8  241   5.088   5.212   5.168
    8G       H8  242   5.119   5.160   5.258
    8G       N7  243   5.163   5.298   5.106
    8G       C5  244   5.080   5.353   5.008
    8G       C6  245   5.104   5.469   4.935
    8G       O6  246   5.194   5.553   4.954
    8G       N1  247   5.010   5.492   4.835
    8G       H1  248   5.021   5.574   4.778
    8G       C2  249   4.909   5.406   4.820
    8G       N2  250   4.846   5.419   4.709
    8G      H21  251   4.892   5.469   4.635
    8G      H22  252   4.768   5.363   4.677
    8G       N3  253   4.878   5.308   4.902
    8G       C4  254   4.972   5.280   4.997
    8G      C3'  255   4.937   4.888   5.105
    8G      H3'  256   5.035   4.926   5.077
    8G      C2'  257   4.841   4.988   5.040
    8G      H2'  258   4.877   5.014   4.940
    8G      O2'  259   4.712   4.935   5.049
    8G     HO2'  260   4.722   4.841   5.031
    8G      O3'  261   4.912   4.764   5.059
    9G        P  262   4.991   4.728   4.926
    9G      OP1  263   4.930   4.605   4.881
    9G      OP2  264   5.134   4.729   4.958
    9G      O5'  265   4.959   4.832   4.815
    9G      C5'  266   4.847   4.820   4.732
    9G      H5'  267   4.755   4.838   4.788
    9G     H5''  268   4.841   4.717   4.696
    9G      C4'  269   4.850   4.923   4.616
    9G      H4'  270   4.762   4.904   4.555
    9G      O4'  271   4.851   5.061   4.656
    9G      C1'  272   4.935   5.132   4.573
    9G      H1'  273   4.876   5.219   4.543
    9G       N9  274   5.068   5.160   4.645
    9G       C8  275   5.115   5.111   4.763
    9G       H8  276   5.060   5.043   4.826
    9G       N7  277   5.230   5.151   4.800
    9G       C5  278   5.271   5.228   4.696
    9G       C6  279   5.392   5.309   4.681
    9G       O6  280   5.475   5.332   4.764
    9G       N1  281   5.403   5.368   4.553
    9G       H1  282   5.482   5.429   4.539
    9G       C2  283   5.297   5.364   4.464
    9G       N2  284   5.326   5.419   4.353
    9G      H21  285   5.414   5.464   4.331
    9G      H22  286   5.254   5.410   4.282
    9G       N3  287   5.178   5.301   4.483
    9G       C4  288   5.167   5.241   4.604
    9G      C3'  289   4.977   4.909   4.534
    9G      H3'  290   5.064   4.896   4.598
    9G      C2'  291   4.980   5.040   4.454
    9G      H2'  292   5.084   5.056   4.425
    9G      O2'  293   4.891   5.054   4.351
    9G     HO2'  294   4.803   5.031   4.383
    9G      O3'  295   4.959   4.796   4.448
   10U        P  296   5.087   4.701   4.425
   10U      OP1  297   5.064   4.593   4.328
   10U      OP2  298   5.133   4.662   4.563
   10U      O5'  299   5.191   4.806   4.374
   10U      C5'  300   5.177   4.860   4.237
   10U      H5'  301   5.092   4.928   4.228
   10U     H5''  302   5.166   4.779   4.165
   10U      C4'  303   5.300   4.947   4.207
   10U      H4'  304   5.290   4.980   4.103
   10U      O4'  305   5.325   5.064   4.288
   10U      C1'  306   5.467   5.095   4.304
   10U      H1'  307   5.499   5.196   4.278
   10U       N1  308   5.508   5.079   4.445
   10U       C6  309   5.436   5.002   4.538
   10U       H6  310   5.346   4.947   4.515
   10U       C5  311   5.486   4.994   4.670
   10U       H5  312   5.432   4.931   4.740
   10U       C4  313   5.601   5.073   4.706
   10U       O4  314   5.646   5.070   4.820
   10U       N3  315   5.659   5.150   4.606
   10U       H3  316   5.742   5.206   4.621
   10U       C2  317   5.612   5.151   4.481
   10U       O2  318   5.673   5.228   4.403
   10U      C3'  319   5.437   4.872   4.206
   10U      H3'  320   5.431   4.806   4.293
   10U      C2'  321   5.539   4.985   4.232
   10U      H2'  322   5.627   4.947   4.284
   10U      O2'  323   5.573   5.050   4.105
   10U     HO2'  324   5.588   4.986   4.035
   10U      O3'  325   5.463   4.814   4.085
   11U        P  326   5.584   4.710   4.063
   11U      OP1  327   5.581   4.645   3.925
   11U      OP2  328   5.606   4.625   4.181
   11U      O5'  329   5.701   4.815   4.068
   11U      C5'  330   5.842   4.780   4.054
   11U      H5'  331   5.847   4.751   3.949
   11U     H5''  332   5.854   4.682   4.099
   11U      C4'  333   5.945   4.883   4.085
   11U      H4'  334   6.047   4.850   4.063
   11U      O4'  335   5.921   4.996   4.000
   11U      C1'  336   5.964   5.111   4.069
   11U      H1'  337   6.072   5.112   4.081
   11U       N1  338   5.925   5.245   4.015
   11U       C6  339   5.800   5.263   3.959
   11U       H6  340   5.730   5.183   3.981
   11U       C5  341   5.772   5.382   3.909
   11U       H5  342   5.672   5.399   3.872
   11U       C4  343   5.869   5.487   3.888
   11U       O4  344   5.847   5.591   3.826
   11U       N3  345   5.993   5.464   3.937
   11U       H3  346   6.072   5.515   3.900
   11U       C2  347   6.030   5.341   3.994
   11U       O2  348   6.146   5.317   4.031
   11U      C3'  349   5.927   4.936   4.232
   11U      H3'  350   5.835   4.900   4.280
   11U      C2'  351   5.923   5.094   4.216
   11U      H2'  352   5.818   5.123   4.227
   11U      O2'  353   6.009   5.146   4.315
   11U     HO2'  354   6.079   5.080   4.316
   11U      O3'  355   6.035   4.904   4.317
   12A        P  356   6.064   4.756   4.363
   12A      OP1  357   6.110   4.673   4.248
   12A      OP2  358   5.951   4.721   4.448
   12A      O5'  359   6.177   4.763   4.476
   12A      C5'  360   6.318   4.767   4.457
   12A      H5'  361   6.347   4.847   4.389
   12A     H5''  362   6.352   4.668   4.427
   12A      C4'  363   6.388   4.794   4.586
   12A      H4'  364   6.494   4.787   4.563
   12A      O4'  365   6.369   4.923   4.635
   12A      C1'  366   6.339   4.917   4.770
   12A      H1'  367   6.408   4.985   4.822
   12A       N9  368   6.201   4.949   4.799
   12A       C8  369   6.093   4.970   4.717
   12A       H8  370   6.092   4.963   4.609
   12A       N7  371   5.982   5.005   4.770
   12A       C5  372   6.016   5.007   4.906
   12A       C6  373   5.940   5.014   5.029
   12A       N6  374   5.812   5.036   5.033
   12A      H61  375   5.770   5.001   5.118
   12A      H62  376   5.763   5.048   4.946
   12A       N1  377   5.994   4.984   5.152
   12A       C2  378   6.116   4.945   5.155
   12A       H2  379   6.163   4.934   5.251
   12A       N3  380   6.199   4.938   5.050
   12A       C4  381   6.142   4.962   4.926
   12A      C3'  382   6.355   4.696   4.692
   12A      H3'  383   6.249   4.674   4.682
   12A      C2'  384   6.363   4.775   4.817
   12A      H2'  385   6.283   4.749   4.886
   12A      O2'  386   6.490   4.763   4.871
   12A     HO2'  387   6.540   4.690   4.831
   12A      O3'  388   6.415   4.565   4.687
   13G        P  389   6.339   4.433   4.724
   13G      OP1  390   6.440   4.325   4.730
   13G      OP2  391   6.230   4.415   4.628
   13G      O5'  392   6.284   4.450   4.874
   13G      C5'  393   6.364   4.469   4.994
   13G      H5'  394   6.439   4.548   4.987
   13G     H5''  395   6.420   4.376   4.996
   13G      C4'  396   6.283   4.492   5.124
   13G      H4'  397   6.347   4.504   5.212
   13G      O4'  398   6.211   4.611   5.103
   13G      C1'  399   6.097   4.613   5.180
   13G      H1'  400   6.109   4.683   5.263
   13G       N9  401   5.982   4.645   5.089
   13G       C8  402   5.969   4.620   4.958
   13G       H8  403   6.048   4.580   4.896
   13G       N7  404   5.854   4.650   4.900
   13G       C5  405   5.788   4.698   5.013
   13G       C6  406   5.650   4.751   5.022
   13G       O6  407   5.572   4.758   4.926
   13G       N1  408   5.610   4.790   5.151
   13G       H1  409   5.516   4.824   5.162
   13G       C2  410   5.686   4.763   5.263
   13G       N2  411   5.623   4.771   5.378
   13G      H21  412   5.531   4.808   5.394
   13G      H22  413   5.683   4.757   5.458
   13G       N3  414   5.815   4.724   5.255
   13G       C4  415   5.859   4.686   5.132
   13G      C3'  416   6.172   4.395   5.163
   13G      H3'  417   6.118   4.357   5.077
   13G      C2'  418   6.076   4.478   5.243
   13G      H2'  419   5.971   4.451   5.240
   13G      O2'  420   6.112   4.495   5.379
   13G     HO2'  421   6.181   4.429   5.385
   13G      O3'  422   6.224   4.285   5.239
   14G        P  423   6.152   4.145   5.273
   14G      OP1  424   6.229   4.070   5.371
   14G      OP2  425   6.130   4.081   5.141
   14G      O5'  426   6.013   4.184   5.331
   14G      C5'  427   5.992   4.216   5.474
   14G      H5'  428   6.066   4.282   5.520
   14G     H5''  429   6.019   4.129   5.534
   14G      C4'  430   5.843   4.264   5.494
   14G      H4'  431   5.824   4.292   5.597
   14G      O4'  432   5.815   4.375   5.416
   14G      C1'  433   5.679   4.392   5.395
   14G      H1'  434   5.646   4.486   5.440
   14G       N9  435   5.651   4.392   5.248
   14G       C8  436   5.729   4.326   5.155
   14G       H8  437   5.817   4.269   5.182
   14G       N7  438   5.687   4.337   5.033
   14G       C5  439   5.566   4.411   5.049
   14G       C6  440   5.474   4.460   4.951
   14G       O6  441   5.466   4.449   4.832
   14G       N1  442   5.367   4.524   5.009
   14G       H1  443   5.290   4.557   4.953
   14G       C2  444   5.347   4.540   5.138
   14G       N2  445   5.249   4.608   5.177
   14G      H21  446   5.211   4.674   5.110
   14G      H22  447   5.241   4.619   5.278
   14G       N3  448   5.431   4.500   5.232
   14G       C4  449   5.539   4.438   5.181
   14G      C3'  450   5.728   4.171   5.459
   14G      H3'  451   5.749   4.130   5.360
   14G      C2'  452   5.609   4.265   5.451
   14G      H2'  453   5.529   4.232   5.386
   14G      O2'  454   5.563   4.308   5.584
   14G     HO2'  455   5.481   4.356   5.570
   14G      O3'  456   5.716   4.065   5.554
   15G        P  457   5.616   3.944   5.543
   15G      OP1  458   5.647   3.843   5.646
   15G      OP2  459   5.616   3.900   5.406
   15G      O5'  460   5.466   3.998   5.574
   15G      C5'  461   5.425   4.046   5.699
   15G      H5'  462   5.496   4.122   5.734
   15G     H5''  463   5.431   3.970   5.777
   15G      C4'  464   5.279   4.101   5.700
   15G      H4'  465   5.242   4.115   5.802
   15G      O4'  466   5.278   4.222   5.628
   15G      C1'  467   5.160   4.239   5.547
   15G      H1'  468   5.118   4.332   5.586
   15G       N9  469   5.184   4.243   5.402
   15G       C8  470   5.278   4.169   5.326
   15G       H8  471   5.351   4.107   5.376
   15G       N7  472   5.272   4.192   5.204
   15G       C5  473   5.160   4.272   5.186
   15G       C6  474   5.095   4.334   5.070
   15G       O6  475   5.128   4.329   4.952
   15G       N1  476   4.990   4.420   5.103
   15G       H1  477   4.958   4.475   5.025
   15G       C2  478   4.942   4.441   5.228
   15G       N2  479   4.843   4.531   5.249
   15G      H21  480   4.810   4.586   5.171
   15G      H22  481   4.818   4.564   5.342
   15G       N3  482   4.998   4.393   5.343
   15G       C4  483   5.104   4.308   5.310
   15G      C3'  484   5.177   4.011   5.620
   15G      H3'  485   5.228   3.973   5.531
   15G      C2'  486   5.070   4.122   5.584
   15G      H2'  487   5.003   4.096   5.503
   15G      O2'  488   5.009   4.173   5.698
   15G     HO2'  489   4.957   4.102   5.735
   15G      O3'  490   5.125   3.909   5.711
   16U        P  491   5.080   3.765   5.638
   16U      OP1  492   5.030   3.680   5.745
   16U      OP2  493   5.200   3.718   5.564
   16U      O5'  494   4.975   3.821   5.534
   16U      C5'  495   4.836   3.811   5.560
   16U      H5'  496   4.803   3.858   5.653
   16U     H5''  497   4.798   3.709   5.575
   16U      C4'  498   4.743   3.882   5.459
   16U      H4'  499   4.650   3.909   5.510
   16U      O4'  500   4.803   4.002   5.395
   16U      C1'  501   4.764   4.017   5.259
   16U      H1'  502   4.706   4.108   5.248
   16U       N1  503   4.877   4.019   5.163
   16U       C6  504   4.992   3.949   5.188
   16U       H6  505   5.020   3.905   5.283
   16U       C5  506   5.089   3.943   5.092
   16U       H5  507   5.186   3.898   5.109
   16U       C4  508   5.068   4.005   4.960
   16U       O4  509   5.152   4.009   4.874
   16U       N3  510   4.952   4.081   4.948
   16U       H3  511   4.918   4.094   4.854
   16U       C2  512   4.851   4.087   5.043
   16U       O2  513   4.758   4.163   5.026
   16U      C3'  514   4.693   3.798   5.343
   16U      H3'  515   4.777   3.741   5.304
   16U      C2'  516   4.660   3.905   5.236
   16U      H2'  517   4.678   3.853   5.142
   16U      O2'  518   4.530   3.947   5.250
   16U     HO2'  519   4.475   3.890   5.196
   16U      O3'  520   4.579   3.712   5.378
   17U        P  521   4.534   3.598   5.277
   17U      OP1  522   4.445   3.505   5.350
   17U      OP2  523   4.657   3.543   5.209
   17U      O5'  524   4.451   3.682   5.170
   17U      C5'  525   4.309   3.696   5.197
   17U      H5'  526   4.288   3.735   5.297
   17U     H5''  527   4.259   3.600   5.197
   17U      C4'  528   4.247   3.779   5.086
   17U      H4'  529   4.148   3.815   5.115
   17U      O4'  530   4.314   3.902   5.055
   17U      C1'  531   4.297   3.937   4.919
   17U      H1'  532   4.240   4.029   4.909
   17U       N1  533   4.431   3.952   4.857
   17U       C6  534   4.537   3.861   4.882
   17U       H6  535   4.507   3.776   4.940
   17U       C5  536   4.663   3.889   4.851
   17U       H5  537   4.744   3.832   4.894
   17U       C4  538   4.691   4.001   4.764
   17U       O4  539   4.807   4.017   4.718
   17U       N3  540   4.589   4.086   4.735
   17U       H3  541   4.616   4.178   4.704
   17U       C2  542   4.460   4.069   4.779
   17U       O2  543   4.375   4.148   4.739
   17U      C3'  544   4.224   3.707   4.954
   17U      H3'  545   4.310   3.640   4.948
   17U      C2'  546   4.219   3.819   4.852
   17U      H2'  547   4.253   3.787   4.753
   17U      O2'  548   4.087   3.859   4.832
   17U     HO2'  549   4.046   3.826   4.751
   17U      O3'  550   4.114   3.624   4.966
   18A        P  551   4.097   3.512   4.845
   18A      OP1  552   3.982   3.435   4.888
   18A      OP2  553   4.224   3.445   4.810
   18A      O5'  554   4.059   3.599   4.717
   18A      C5'  555   3.919   3.617   4.680
   18A      H5'  556   3.867   3.666   4.763
   18A     H5''  557   3.875   3.518   4.666
   18A      C4'  558   3.906   3.697   4.557
   18A      H4'  559   3.799   3.712   4.543
   18A      O4'  560   3.962   3.821   4.570
   18A      C1'  561   4.021   3.850   4.444
   18A      H1'  562   3.974   3.941   4.409
   18A       N9  563   4.171   3.867   4.461
   18A       C8  564   4.266   3.767   4.495
   18A       H8  565   4.243   3.669   4.534
   18A       N7  566   4.389   3.809   4.485
   18A       C5  567   4.374   3.938   4.433
   18A       C6  568   4.465   4.044   4.391
   18A       N6  569   4.595   4.038   4.407
   18A      H61  570   4.647   4.117   4.371
   18A      H62  571   4.624   3.970   4.476
   18A       N1  572   4.430   4.149   4.316
   18A       C2  573   4.305   4.156   4.296
   18A       H2  574   4.273   4.243   4.241
   18A       N3  575   4.204   4.081   4.346
   18A       C4  576   4.245   3.974   4.410
   18A      C3'  577   3.964   3.616   4.443
   18A      H3'  578   4.058   3.571   4.473
   18A      C2'  579   3.994   3.732   4.346
   18A      H2'  580   4.085   3.713   4.291
   18A      O2'  581   3.891   3.761   4.253
   18A     HO2'  582   3.875   3.686   4.195
   18A      O3'  583   3.863   3.522   4.400
   19G        P  584   3.898   3.399   4.307
   19G      OP1  585   3.813   3.284   4.327
   19G      OP2  586   4.042   3.366   4.296
   19G      O5'  587   3.857   3.457   4.162
   19G      C5'  588   3.727   3.453   4.109
   19G      H5'  589   3.669   3.515   4.177
   19G     H5''  590   3.708   3.346   4.099
   19G      C4'  591   3.738   3.521   3.971
   19G      H4'  592   3.640   3.542   3.927
   19G      O4'  593   3.800   3.647   3.978
   19G      C1'  594   3.888   3.668   3.869
   19G      H1'  595   3.879   3.767   3.825
   19G       N9  596   4.025   3.678   3.925
   19G       C8  597   4.097   3.582   3.997
   19G       H8  598   4.057   3.483   4.012
   19G       N7  599   4.213   3.614   4.047
   19G       C5  600   4.216   3.752   4.008
   19G       C6  601   4.306   3.857   4.045
   19G       O6  602   4.413   3.841   4.106
   19G       N1  603   4.277   3.982   3.997
   19G       H1  604   4.350   4.051   4.008
   19G       C2  605   4.160   4.009   3.942
   19G       N2  606   4.130   4.136   3.921
   19G      H21  607   4.196   4.209   3.944
   19G      H22  608   4.047   4.161   3.870
   19G       N3  609   4.073   3.919   3.901
   19G       C4  610   4.109   3.788   3.933
   19G      C3'  611   3.808   3.453   3.848
   19G      H3'  612   3.889   3.395   3.891
   19G      C2'  613   3.875   3.557   3.762
   19G      H2'  614   3.968   3.520   3.719
   19G      O2'  615   3.782   3.604   3.663
   19G     HO2'  616   3.789   3.547   3.587
   19G      O3'  617   3.733   3.363   3.771
   20G        P  618   3.790   3.250   3.676
   20G      OP1  619   3.678   3.162   3.640
   20G      OP2  620   3.910   3.186   3.731
   20G      O5'  621   3.833   3.314   3.534
   20G      C5'  622   3.729   3.361   3.444
   20G      H5'  623   3.645   3.411   3.493
   20G     H5''  624   3.689   3.271   3.399
   20G      C4'  625   3.787   3.448   3.335
   20G      H4'  626   3.694   3.465   3.281
   20G      O4'  627   3.823   3.570   3.398
   20G      C1'  628   3.940   3.616   3.331
   20G      H1'  629   3.938   3.723   3.308
   20G       N9  630   4.049   3.601   3.429
   20G       C8  631   4.100   3.485   3.486
   20G       H8  632   4.055   3.389   3.465
   20G       N7  633   4.190   3.502   3.578
   20G       C5  634   4.204   3.638   3.583
   20G       C6  635   4.292   3.715   3.662
   20G       O6  636   4.383   3.681   3.737
   20G       N1  637   4.279   3.855   3.638
   20G       H1  638   4.337   3.924   3.683
   20G       C2  639   4.188   3.906   3.557
   20G       N2  640   4.158   4.037   3.570
   20G      H21  641   4.219   4.086   3.633
   20G      H22  642   4.085   4.083   3.517
   20G       N3  643   4.099   3.835   3.488
   20G       C4  644   4.115   3.701   3.502
   20G      C3'  645   3.893   3.404   3.234
   20G      H3'  646   3.971   3.346   3.283
   20G      C2'  647   3.962   3.536   3.200
   20G      H2'  648   4.064   3.509   3.176
   20G      O2'  649   3.897   3.605   3.096
   20G     HO2'  650   3.858   3.535   3.042
   20G      O3'  651   3.833   3.351   3.116
   21G3       P  652   3.910   3.250   3.022
   21G3     OP1  653   3.801   3.164   2.967
   21G3     OP2  654   4.021   3.188   3.102
   21G3     O5'  655   3.964   3.341   2.911
   21G3     C5'  656   3.891   3.391   2.802
   21G3     H5'  657   3.802   3.448   2.828
   21G3    H5''  658   3.876   3.314   2.726
   21G3     C4'  659   3.984   3.490   2.731
   21G3     H4'  660   3.927   3.551   2.660
   21G3     O4'  661   4.043   3.581   2.821
   21G3     C1'  662   4.183   3.612   2.801
   21G3     H1'  663   4.201   3.719   2.790
   21G3      N9  664   4.250   3.572   2.924
   21G3      C8  665   4.281   3.446   2.972
   21G3      H8  666   4.252   3.354   2.924
   21G3      N7  667   4.318   3.445   3.100
   21G3      C5  668   4.321   3.582   3.137
   21G3      C6  669   4.368   3.639   3.261
   21G3      O6  670   4.414   3.582   3.360
   21G3      N1  671   4.345   3.775   3.263
   21G3      H1  672   4.374   3.829   3.343
   21G3      C2  673   4.281   3.846   3.160
   21G3      N2  674   4.278   3.976   3.175
   21G3     H21  675   4.303   4.015   3.264
   21G3     H22  676   4.204   4.018   3.119
   21G3      N3  677   4.253   3.791   3.039
   21G3      C4  678   4.270   3.655   3.032
   21G3     C3'  679   4.099   3.422   2.664
   21G3     H3'  680   4.127   3.329   2.713
   21G3     C2'  681   4.218   3.525   2.675
   21G3     H2'  682   4.317   3.479   2.685
   21G3     O2'  683   4.229   3.609   2.559
   21G3    HO2'  684   4.150   3.590   2.509
   21G3     O3'  685   4.070   3.403   2.530
   21G3    HO3'  686   4.030   3.317   2.520
   22Cl-    Cl-  687   2.896   6.351   9.079
   23Cl-    Cl-  688   6.100   3.951   6.969
   24Cl-    Cl-  689   3.709   8.465   1.930
   25Cl-    Cl-  690   4.733   4.440   1.421
   26Cl-    Cl-  691   5.105   8.383   5.476
   27Cl-    Cl-  692   8.219   2.247   1.577
   28Cl-    Cl-  693   2.319   0.250   0.723
   29Cl-    Cl-  694   3.839   7.964   3.644
   30Cl-    Cl-  695   3.703   1.231   7.815
   31Cl-    Cl-  696   0.421   2.429   6.568
   32Cl-    Cl-  697   6.245   6.134   0.275
   33Cl-    Cl-  698   3.240   0.856   9.804
   34Cl-    Cl-  699   3.536   8.576   6.592
   35Cl-    Cl-  700   7.562   4.660   3.307
   36Cl-    Cl-  701   4.453   2.014   8.944
   37Cl-    Cl-  702   7.845   6.704   3.167
   38Cl-    Cl-  703   0.728   4.481   2.588
   39Cl-    Cl-  704   4.085   8.634   0.540
   40Cl-    Cl-  705   7.096   3.044   9.284
   41Cl-    Cl-  706   5.000   1.019   3.496
   42Cl-    Cl-  707   3.870   3.073   9.821
   43Cl-    Cl-  708   2.968   2.062   8.463
   44Cl-    Cl-  709   7.665   0.335   4.973
   45Cl-    Cl-  710   1.121   4.962   0.283
   46Cl-    Cl-  711   0.671   0.019   4.820
   47Cl-    Cl-  712   4.146   6.428   3.942
   48Cl-    Cl-  713   2.052   9.653   1.192
   49Cl-    Cl-  714   0.927   7.962   2.747
   50Cl-    Cl-  715   9.466   2.049   8.877
   51Cl-    Cl-  716   6.353   7.375   7.029
   52Cl-    Cl-  717   0.099   9.497   7.078
   53Cl-    Cl-  718   4.013   6.995   9.830
   54Cl-    Cl-  719   1.979   7.237   4.412
   55Cl-    Cl-  720   5.766   9.745   0.166
   56Cl-    Cl-  721   6.637   2.147   6.905
   57Cl-    Cl-  722   4.828   7.271   2.813
   58Cl-    Cl-  723   2.529   5.184   5.168
   59Cl-    Cl-  724   7.013   9.125   3.131
   60Cl-    Cl-  725   6.185   6.975   1.690
   61Cl-    Cl-  726   3.540   2.192   6.856
   62Cl-    Cl-  727   9.215   9.574   2.262
   63Cl-    Cl-  728   9.609   9.283   8.256
   64Cl-    Cl-  729   5.256   7.841   7.679
   65Cl-    Cl-  730   9.308   0.860   2.156
   66Cl-    Cl-  731   6.799   2.224   8.436
   67Cl-    Cl-  732   5.653   5.710   2.937
   68Cl-    Cl-  733   0.840   7.843   6.641
   69Cl-    Cl-  734   2.080   2.957   8.319
   70Cl-    Cl-  735   2.751   8.111   6.574
   71Cl-    Cl-  736   6.205   7.563   1.459
   72Cl-    Cl-  737   3.818   2.137   9.344
   73Cl-    Cl-  738   8.981   8.681   9.538
   74Cl-    Cl-  739   4.933   9.414   3.002
   75Cl-    Cl-  740   8.518   4.734   1.305
   76Cl-    Cl-  741   1.092   5.905   7.921
   77Cl-    Cl-  742   0.495   6.515   2.832
   78Cl-    Cl-  743   6.092   4.523   2.610
   79Cl-    Cl-  744   9.278   7.576   4.536
   80Cl-    Cl-  745   0.904   9.343   3.815
   81Cl-    Cl-  746   5.207   7.143   6.390
   82Cl-    Cl-  747   7.255   0.982   1.877
   83Cl-    Cl-  748   8.451   4.420   8.772
   84Cl-    Cl-  749   4.414   2.936   1.752
   85Cl-    Cl-  750   4.572   4.933   9.847
   86Cl-    Cl-  751   4.739   8.566   6.358
   87Cl-    Cl-  752   8.789   7.561   1.657
   88Cl-    Cl-  753   4.253   4.130   9.493
   89Cl-    Cl-  754   8.716   1.275   4.386
   90Cl-    Cl-  755   1.046   7.982   8.630
   91Cl-    Cl-  756   0.890   9.475   4.579
   92Cl-    Cl-  757   7.366   8.967   6.408
   93Cl-    Cl-  758   9.620   1.767   4.869
   94Cl-    Cl-  759   8.745   5.694   5.690
   95Cl-    Cl-  760   3.102   1.078   1.785
   96Cl-    Cl-  761   2.484   1.610   5.677
   97Cl-    Cl-  762   2.966   7.835   9.025
   98Cl-    Cl-  763   3.980   5.335   9.766
   99Cl-    Cl-  764   2.373   0.871   8.744
  100Cl-    Cl-  765   8.091   4.888   6.238
  101Cl-    Cl-  766   6.722   1.086   7.676
  102Cl-    Cl-  767   2.585   3.735   0.138
  103Cl-    Cl-  768   3.548   7.083   6.335
  104Cl-    Cl-  769   7.358   6.250   3.627
  105Cl-    Cl-  770   6.369   5.653   1.225
  106Cl-    Cl-  771   2.679   6.057   2.995
  107K+      K+  772   5.998   7.678   1.668
  108K+      K+  773   1.313   9.319   1.133
  109K+      K+  774   7.985   1.238   4.492
  110K+      K+  775   7.864   0.668   6.679
  111K+      K+  776   8.698   2.595   8.700
  112K+      K+  777   0.001   8.787   6.465
  113K+      K+  778   5.913   4.275   4.333
  114K+      K+  779   5.262   4.250   4.704
  115K+      K+  780   2.060   3.650   2.892
  116K+      K+  781   5.832   8.547   5.876
  117K+      K+  782   3.145   5.780   9.286
  118K+      K+  783   5.176   5.761   5.127
  119K+      K+  784   4.651   6.312   6.250
  120K+      K+  785   3.201   1.591   8.638
  121K+      K+  786   9.572   2.444   7.841
  122K+      K+  787   0.856   0.852   6.183
  123K+      K+  788   6.014   3.348   5.397
  124K+      K+  789   3.541   1.066   2.156
  125K+      K+  790   5.343   7.120   1.654
  126K+      K+  791   5.945   1.033   3.028
  127K+      K+  792   1.513   5.579   4.563
  128K+      K+  793   4.703   4.555   9.870
  129K+      K+  794   5.558   4.673   4.679
  130K+      K+  795   8.797   5.302   0.372
  131K+      K+  796   1.060   3.359   8.182
  132K+      K+  797   2.792   4.688   7.303
  133K+      K+  798   1.246   7.765   3.135
  134K+      K+  799   4.374   3.430   5.596
  135K+      K+  800   5.472   3.669   5.149
  136K+      K+  801   2.243   4.836   5.418
  137K+      K+  802   0.921   9.483   5.077
  138K+      K+  803   8.335   7.348   1.838
  139K+      K+  804   0.111   1.026   5.048
  140K+      K+  805   1.664   2.504   8.682
  141K+      K+  806   5.481   5.163   4.993
  142K+      K+  807   1.226   2.661   5.669
  143K+      K+  808   2.480   0.362   3.286
  144K+      K+  809   5.628   5.080   2.077
  145K+      K+  810   5.005   7.362   2.283
  146K+      K+  811   5.107   8.592   0.867
  147K+      K+  812   6.794   2.601   9.686
  148K+      K+  813   8.948   6.366   3.869
  149K+      K+  814   5.667   4.081   4.855
  150K+      K+  815   0.798   6.987   1.207
  151K+      K+  816   6.999   7.171   2.141
  152K+      K+  817   3.085   8.214   8.643
  153K+      K+  818   8.165   2.980   1.408
  154K+      K+  819   4.681   8.947   4.768
  155K+      K+  820   0.658   1.409   1.650
  156K+      K+  821   5.579   8.728   6.723
  157K+      K+  822   3.573   7.402   9.197
  158K+      K+  823   6.743   5.020   4.174
  159K+      K+  824   3.369   0.269   2.186
  160K+      K+  825   2.098   7.569   8.721
  161K+      K+  826   5.515   6.749   0.287
  162K+      K+  827   6.380   1.530   0.233
  163K+      K+  828   5.082   6.293   0.762
  164K+      K+  829   7.928   1.052   0.430
  165K+      K+  830   7.055   2.713   9.028
  166K+      K+  831   9.848   2.722   8.062
  167K+      K+  832   4.727   4.433   7.576
  168K+      K+  833   2.041   9.550   5.068
  169K+      K+  834   6.350   3.031   3.633
  170K+      K+  835   7.779   0.464   3.808
  171K+      K+  836   9.463   0.030   8.335
  172K+      K+  837   3.068   1.912   1.973
  173K+      K+  838   3.153   0.726   3.949
  174K+      K+  839   9.391   1.764   3.623
  175K+      K+  840   9.068   7.138   4.711
  176K+      K+  841   5.893   9.368   3.293
  177K+      K+  842   4.079   3.229   5.101
  178K+      K+  843   9.851   7.470   7.086
  179K+      K+  844   1.092   9.216   9.252
  180K+      K+  845   4.186   8.521   3.689
  181K+      K+  846   4.542   5.552   6.188
  182K+      K+  847   7.596   4.639   8.873
  183K+      K+  848   4.337   2.987   9.882
  184K+      K+  849   5.509   4.286   1.809
  185K+      K+  850   3.625   8.523   2.439
  186K+      K+  851   9.229   3.813   4.235
  187K+      K+  852   7.078   9.207   1.962
  188K+      K+  853   3.190   2.448   9.166
  189K+      K+  854   6.516   3.510   6.428
  190K+      K+  855   6.368   4.137   2.249
  191K+      K+  856   3.068   9.314   8.316
  192K+      K+  857   5.714   2.761   7.320
  193K+      K+  858   7.791   5.665   8.657
  194K+      K+  859   1.157   8.919   4.448
  195K+      K+  860   1.032   6.201   6.870
  196K+      K+  861   2.837   5.625   7.060
  197K+      K+  862   1.427   2.623   0.064
  198K+      K+  863   7.728   4.156   2.110
  199K+      K+  864   5.465   5.576   4.874
  200K+      K+  865   4.510   5.881   5.100
  201K+      K+  866   5.927   8.714   9.638
  202K+      K+  867   4.500   3.540   3.997
  203K+      K+  868   2.866   0.419   9.840
  204K+      K+  869   5.008   6.303   6.260
  205K+      K+  870   5.982   7.543   7.604
  206K+      K+  871   1.425   4.641   0.659
  207K+      K+  872   5.509   6.669   9.341
  208K+      K+  873   9.658   8.924   5.195
  209K+      K+  874   3.512   1.488   0.750
  210K+      K+  875   2.849   7.442   4.210
  211K+      K+  876   4.294   3.183   4.736
  212WAT      O  877   6.810   2.236   3.060
  212WAT     H1  878   6.829   2.157   3.118
  212WAT     H2  879   6.713   2.259   3.065
  213WAT      O  880   5.318   6.377   3.790
  213WAT     H1  881   5.243   6.421   3.839
  213WAT     H2  882   5.286   6.291   3.749
  214WAT      O  883   5.302   3.308   5.997
  214WAT     H1  884   5.289   3.372   5.920
  214WAT     H2  885   5.377   3.341   6.054
  215WAT      O  886   9.269   7.414   7.735
  215WAT     H1  887   9.178   7.373   7.735
  215WAT     H2  888   9.262   7.513   7.731
  216WAT      O  889   5.325   7.790   2.454
  216WAT     H1  890   5.284   7.699   2.454
  216WAT     H2  891   5.425   7.781   2.449
  217WAT      O  892   4.090   2.927   8.960
  217WAT     H1  893   4.031   2.976   8.896
  217WAT     H2  894   4.034   2.878   9.027
  218WAT      O  895   3.635   5.938   6.064
  218WAT     H1  896   3.671   5.950   6.156
  218WAT     H2  897   3.590   5.849   6.057
  219WAT      O  898   1.103   1.937   0.348
  219WAT     H1  899   1.198   1.917   0.373
  219WAT     H2  900   1.077   2.027   0.383
  220WAT      O  901   6.408   6.090   0.559
  220WAT     H1  902   6.347   6.082   0.480
  220WAT     H2  903   6.482   6.023   0.550
  221WAT      O  904   4.047   5.127   2.297
  221WAT     H1  905   4.020   5.097   2.205
  221WAT     H2  906   4.146   5.129   2.303
  222WAT      O  907   0.901   1.528   2.053
  222WAT     H1  908   0.989   1.489   2.080
  222WAT     H2  909   0.867   1.588   2.126
  223WAT      O  910   3.538   1.419   4.283
  223WAT     H1  911   3.572   1.470   4.363
  223WAT     H2  912   3.598   1.342   4.264
  224WAT      O  913   2.586   8.695   9.136
  224WAT     H1  914   2.513   8.661   9.195
  224WAT     H2  915   2.670   8.644   9.155
  225WAT      O  916   2.359   5.548   9.558
  225WAT     H1  917   2.334   5.545   9.655
  225WAT     H2  918   2.457   5.562   9.549
  226WAT      O  919   4.815   7.568   2.962
  226WAT     H1  920   4.884   7.578   3.034
  226WAT     H2  921   4.823   7.478   2.920
  227WAT      O  922   4.031   2.225   1.381
  227WAT     H1  923   3.971   2.225   1.462
  227WAT     H2  924   4.036   2.132   1.344
  228WAT      O  925   9.629   8.248   5.425
  228WAT     H1  926   9.665   8.165   5.382
  228WAT     H2  927   9.703   8.314   5.436
  229WAT      O  928   1.288   2.207   0.087
  229WAT     H1  929   1.254   2.216  -0.007
  229WAT     H2  930   1.311   2.111   0.105
  230WAT      O  931   5.131   0.714   2.083
  230WAT     H1  932   5.180   0.685   2.165
  230WAT     H2  933   5.196   0.754   2.018
  231WAT      O  934   7.234   3.669   9.559
  231WAT     H1  935   7.160   3.731   9.532
  231WAT     H2  936   7.319   3.696   9.513
  232WAT      O  937   3.118   5.141   4.497
  232WAT     H1  938   3.095   5.200   4.420
  232WAT     H2  939   3.046   5.146   4.566
  233WAT      O  940   0.202   1.701   5.158
  233WAT     H1  941   0.290   1.733   5.121
  233WAT     H2  942   0.139   1.684   5.083
  234WAT      O  943   2.047   6.399   3.497
  234WAT     H1  944   2.099   6.346   3.430
  234WAT     H2  945   1.971   6.345   3.531
  235WAT      O  946   8.483   0.910   5.625
  235WAT     H1  947   8.492   0.887   5.528
  235WAT     H2  948   8.567   0.953   5.658
  236WAT      O  949   1.971   2.868   4.079
  236WAT     H1  950   1.978   2.922   4.163
  236WAT     H2  951   1.879   2.830   4.072
  237WAT      O  952   3.520   0.988   4.102
  237WAT     H1  953   3.506   0.952   4.194
  237WAT     H2  954   3.462   1.068   4.089
  238WAT      O  955   0.882   6.363   3.526
  238WAT     H1  956   0.914   6.280   3.481
  238WAT     H2  957   0.911   6.443   3.474
  239WAT      O  958   5.071   0.290   6.570
  239WAT     H1  959   4.984   0.330   6.538
  239WAT     H2  960   5.145   0.355   6.553
  240WAT      O  961   6.443   8.637   9.663
  240WAT     H1  962   6.486   8.612   9.749
  240WAT     H2  963   6.502   8.610   9.587
  241WAT      O  964   3.352   4.513   5.330
  241WAT     H1  965   3.346   4.550   5.423
  241WAT     H2  966   3.446   4.525   5.296
  242WAT      O  967   5.024   8.261   8.148
  242WAT     H1  968   5.064   8.224   8.232
  242WAT     H2  969   4.952   8.327   8.172
  243WAT      O  970   1.559   2.161   3.234
  243WAT     H1  971   1.520   2.204   3.153
  243WAT     H2  972   1.545   2.222   3.313
  244WAT      O  973   2.096   5.099   6.661
  244WAT     H1  974   2.189   5.113   6.629
  244WAT     H2  975   2.087   5.006   6.698
  245WAT      O  976   1.938   0.782   4.604
  245WAT     H1  977   1.924   0.780   4.505
  245WAT     H2  978   1.963   0.690   4.636
  246WAT      O  979   0.575   7.230   0.184
  246WAT     H1  980   0.486   7.261   0.152
  246WAT     H2  981   0.571   7.213   0.283
  247WAT      O  982   5.282   6.599   4.418
  247WAT     H1  983   5.267   6.694   4.392
  247WAT     H2  984   5.323   6.595   4.510
  248WAT      O  985   3.760   5.161   2.466
  248WAT     H1  986   3.825   5.223   2.422
  248WAT     H2  987   3.787   5.146   2.561
  249WAT      O  988   4.264   5.153   6.168
  249WAT     H1  989   4.250   5.072   6.111
  249WAT     H2  990   4.226   5.233   6.123
  250WAT      O  991   4.864   4.614   4.170
  250WAT     H1  992   4.873   4.692   4.108
  250WAT     H2  993   4.939   4.614   4.236
  251WAT      O  994   2.893   6.239   1.901
  251WAT     H1  995   2.862   6.151   1.864
  251WAT     H2  996   2.932   6.294   1.828
  252WAT      O  997   7.304   3.216   6.799
  252WAT     H1  998   7.258   3.305   6.799
  252WAT     H2  999   7.319   3.186   6.893
  253WAT      O 1000   5.215   7.793   0.343
  253WAT     H1 1001   5.116   7.786   0.356
  253WAT     H2 1002   5.244   7.885   0.367
  254WAT      O 1003   4.567   9.005   6.675
  254WAT     H1 1004   4.662   9.036   6.667
  254WAT     H2 1005   4.564   8.905   6.668
  255WAT      O 1006   7.482   0.258   0.855
  255WAT     H1 1007   7.534   0.182   0.815
  255WAT     H2 1008   7.541   0.310   0.917
  256WAT      O 1009   6.830   2.749   6.113
  256WAT     H1 1010   6.831   2.684   6.037
  256WAT     H2 1011   6.823   2.699   6.199
  257WAT      O 1012   4.412   5.959   7.081
  257WAT     H1 1013   4.348   5.941   7.156
  257WAT     H2 1014   4.406   5.883   7.015
  258WAT      O 1015   5.119   9.000   8.000
  258WAT     H1 1016   5.064   8.966   8.076
  258WAT     H2 1017   5.119   8.933   7.926
  259WAT      O 1018   1.962   1.173   5.452
  259WAT     H1 1019   2.047   1.197   5.497
  259WAT     H2 1020   1.977   1.094   5.392
  260WAT      O 1021   7.923   0.436   0.839
  260WAT     H1 1022   7.925   0.521   0.786
  260WAT     H2 1023   7.988   0.371   0.800
  261WAT      O 1024   3.251   7.292   0.281
  261WAT     H1 1025   3.237   7.355   0.205
  261WAT     H2 1026   3.265   7.343   0.366
  262WAT      O 1027   5.552   1.346   0.856
  262WAT     H1 1028   5.480   1.383   0.914
  262WAT     H2 1029   5.514   1.322   0.766
  263WAT      O 1030   6.761   8.930   5.394
  263WAT     H1 1031   6.783   8.899   5.486
  263WAT     H2 1032   6.842   8.973   5.353
  264WAT      O 1033   2.541   4.296   7.830
  264WAT     H1 1034   2.450   4.279   7.792
  264WAT     H2 1035   2.608   4.297   7.755
  265WAT      O 1036   0.521   7.141   3.733
  265WAT     H1 1037   0.532   7.042   3.725
  265WAT     H2 1038   0.426   7.163   3.755
  266WAT      O 1039   3.677   1.116   2.641
  266WAT     H1 1040   3.703   1.074   2.728
  266WAT     H2 1041   3.647   1.210   2.657
  267WAT      O 1042   3.709   0.919   5.971
  267WAT     H1 1043   3.707   0.861   6.052
  267WAT     H2 1044   3.616   0.948   5.948
  268WAT      O 1045   1.885   3.367   4.118
  268WAT     H1 1046   1.809   3.395   4.177
  268WAT     H2 1047   1.865   3.392   4.023
  269WAT      O 1048   6.492   5.573   2.317
  269WAT     H1 1049   6.584   5.542   2.291
  269WAT     H2 1050   6.461   5.524   2.398
  270WAT      O 1051   2.886   3.440   4.708
  270WAT     H1 1052   2.797   3.447   4.662
  270WAT     H2 1053   2.872   3.450   4.807
  271WAT      O 1054   1.436   6.744   5.426
  271WAT     H1 1055   1.467   6.651   5.444
  271WAT     H2 1056   1.427   6.757   5.327
  272WAT      O 1057   9.768   1.380   8.812
  272WAT     H1 1058   9.824   1.307   8.771
  272WAT     H2 1059   9.784   1.466   8.763
  273WAT      O 1060   3.561   8.306   1.085
  273WAT     H1 1061   3.465   8.294   1.060
  273WAT     H2 1062   3.569   8.383   1.149
  274WAT      O 1063   8.562   2.930   6.262
  274WAT     H1 1064   8.546   3.002   6.194
  274WAT     H2 1065   8.493   2.936   6.334
  275WAT      O 1066   9.077   3.581   0.810
  275WAT     H1 1067   9.028   3.542   0.888
  275WAT     H2 1068   9.172   3.551   0.812
  276WAT      O 1069   5.461   2.953   9.593
  276WAT     H1 1070   5.557   2.981   9.599
  276WAT     H2 1071   5.444   2.912   9.503
  277WAT      O 1072   8.866   8.712   5.010
  277WAT     H1 1073   8.915   8.795   5.036
  277WAT     H2 1074   8.816   8.728   4.924
  278WAT      O 1075   9.465   7.510   7.521
  278WAT     H1 1076   9.418   7.524   7.434
  278WAT     H2 1077   9.421   7.434   7.570
  279WAT      O 1078   5.263   4.978   7.291
  279WAT     H1 1079   5.248   5.006   7.197
  279WAT     H2 1080   5.175   4.973   7.339
  280WAT      O 1081   4.564   8.836   8.737
  280WAT     H1 1082   4.498   8.774   8.694
  280WAT     H2 1083   4.524   8.873   8.821
  281WAT      O 1084   2.494   2.651   1.691
  281WAT     H1 1085   2.395   2.635   1.691
  281WAT     H2 1086   2.512   2.749   1.682
  282WAT      O 1087   6.498   5.302   6.667
  282WAT     H1 1088   6.438   5.227   6.694
  282WAT     H2 1089   6.443   5.374   6.624
  283WAT      O 1090   1.019   7.373   4.746
  283WAT     H1 1091   0.958   7.448   4.771
  283WAT     H2 1092   0.973   7.313   4.681
  284WAT      O 1093   6.517   2.625   3.357
  284WAT     H1 1094   6.525   2.724   3.347
  284WAT     H2 1095   6.599   2.581   3.320
  285WAT      O 1096   8.943   2.378   5.301
  285WAT     H1 1097   8.902   2.404   5.213
  285WAT     H2 1098   8.878   2.394   5.375
  286WAT      O 1099   5.957   0.281   5.285
  286WAT     H1 1100   5.904   0.296   5.368
  286WAT     H2 1101   5.909   0.215   5.226
  287WAT      O 1102   0.105   8.315   7.883
  287WAT     H1 1103   0.081   8.285   7.791
  287WAT     H2 1104   0.202   8.298   7.899
  288WAT      O 1105   8.480   4.972   1.108
  288WAT     H1 1106   8.492   4.877   1.137
  288WAT     H2 1107   8.554   5.028   1.145
  289WAT      O 1108   1.601   1.233   7.672
  289WAT     H1 1109   1.538   1.288   7.617
  289WAT     H2 1110   1.683   1.286   7.693
  290WAT      O 1111   2.923   4.165   4.880
  290WAT     H1 1112   2.823   4.161   4.882
  290WAT     H2 1113   2.952   4.210   4.795
  291WAT      O 1114   9.873   6.447   3.627
  291WAT     H1 1115   9.823   6.534   3.623
  291WAT     H2 1116   9.859   6.397   3.541
  292WAT      O 1117   6.761   8.644   3.746
  292WAT     H1 1118   6.743   8.552   3.710
  292WAT     H2 1119   6.789   8.637   3.842
  293WAT      O 1120   0.119   1.102   9.713
  293WAT     H1 1121   0.108   1.018   9.766
  293WAT     H2 1122   0.200   1.151   9.744
  294WAT      O 1123   1.643   5.666   4.349
  294WAT     H1 1124   1.594   5.615   4.278
  294WAT     H2 1125   1.733   5.692   4.315
  295WAT      O 1126   2.144   1.326   2.038
  295WAT     H1 1127   2.180   1.311   1.945
  295WAT     H2 1128   2.163   1.245   2.094
  296WAT      O 1129   5.193   5.606   6.024
  296WAT     H1 1130   5.179   5.636   5.929
  296WAT     H2 1131   5.237   5.516   6.024
  297WAT      O 1132   8.357   0.419   1.320
  297WAT     H1 1133   8.265   0.449   1.346
  297WAT     H2 1134   8.377   0.449   1.227
  298WAT      O 1135   8.720   6.454   0.351
  298WAT     H1 1136   8.732   6.459   0.251
  298WAT     H2 1137   8.717   6.358   0.379
  299WAT      O 1138   6.424   8.200   4.321
  299WAT     H1 1139   6.384   8.120   4.276
  299WAT     H2 1140   6.404   8.282   4.267
  300WAT      O 1141   5.667   6.517   0.290
  300WAT     H1 1142   5.730   6.577   0.241
  300WAT     H2 1143   5.704   6.497   0.381
  301WAT      O 1144   6.192   9.826   2.091
  301WAT     H1 1145   6.135   9.750   2.059
  301WAT     H2 1146   6.147   9.873   2.166
  302WAT      O 1147   1.394   7.010   6.254
  302WAT     H1 1148   1.338   7.092   6.240
  302WAT     H2 1149   1.371   6.969   6.343
  303WAT      O 1150   5.012   5.403   2.317
  303WAT     H1 1151   5.088   5.362   2.368
  303WAT     H2 1152   4.948   5.445   2.381
  304WAT      O 1153   4.640   0.332   7.403
  304WAT     H1 1154   4.669   0.419   7.443
  304WAT     H2 1155   4.702   0.308   7.329
  305WAT      O 1156   5.300   6.564   6.934
  305WAT     H1 1157   5.388   6.542   6.893
  305WAT     H2 1158   5.272   6.490   6.995
  306WAT      O 1159   8.907   1.516   4.478
  306WAT     H1 1160   8.848   1.438   4.456
  306WAT     H2 1161   9.000   1.483   4.497
  307WAT      O 1162   0.441   8.088   0.150
  307WAT     H1 1163   0.470   7.997   0.120
  307WAT     H2 1164   0.348   8.083   0.187
  308WAT      O 1165   4.143   5.557   1.297
  308WAT     H1 1166   4.122   5.584   1.203
  308WAT     H2 1167   4.204   5.478   1.297
  309WAT      O 1168   8.132   6.975   5.649
  309WAT     H1 1169   8.084   6.915   5.585
  309WAT     H2 1170   8.102   7.069   5.634
  310WAT      O 1171   4.040   9.061   5.575
  310WAT     H1 1172   4.067   9.123   5.648
  310WAT     H2 1173   3.965   9.003   5.607
  311WAT      O 1174   6.705   5.447   1.793
  311WAT     H1 1175   6.695   5.404   1.882
  311WAT     H2 1176   6.627   5.508   1.776
  312WAT      O 1177   3.394   3.175   8.819
  312WAT     H1 1178   3.470   3.158   8.756
  312WAT     H2 1179   3.313   3.125   8.788
  313WAT      O 1180   6.951   4.886   0.891
  313WAT     H1 1181   6.977   4.970   0.844
  313WAT     H2 1182   6.862   4.856   0.858
  314WAT      O 1183   1.682   9.392   1.475
  314WAT     H1 1184   1.696   9.466   1.541
  314WAT     H2 1185   1.767   9.376   1.424
  315WAT      O 1186   9.879   2.805   3.716
  315WAT     H1 1187   9.861   2.893   3.760
  315WAT     H2 1188   9.827   2.799   3.631
  316WAT      O 1189   7.040   0.815   5.631
  316WAT     H1 1190   7.045   0.912   5.653
  316WAT     H2 1191   6.952   0.778   5.660
  317WAT      O 1192   6.436   3.354   5.091
  317WAT     H1 1193   6.489   3.297   5.153
  317WAT     H2 1194   6.495   3.424   5.051
  318WAT      O 1195   1.785   7.357   4.616
  318WAT     H1 1196   1.692   7.326   4.598
  318WAT     H2 1197   1.846   7.322   4.546
  319WAT      O 1198   2.189   5.117   8.186
  319WAT     H1 1199   2.155   5.197   8.236
  319WAT     H2 1200   2.286   5.130   8.165
  320WAT      O 1201   5.828   3.027   6.222
  320WAT     H1 1202   5.770   3.107   6.234
  320WAT     H2 1203   5.772   2.944   6.218
  321WAT      O 1204   9.281   2.867   2.218
  321WAT     H1 1205   9.186   2.891   2.196
  321WAT     H2 1206   9.342   2.936   2.179
  322WAT      O 1207   3.421   2.181   0.302
  322WAT     H1 1208   3.504   2.158   0.252
  322WAT     H2 1209   3.437   2.261   0.359
  323WAT      O 1210   2.504   4.259   6.284
  323WAT     H1 1211   2.506   4.231   6.188
  323WAT     H2 1212   2.426   4.320   6.299
  324WAT      O 1213   7.064   6.460   2.668
  324WAT     H1 1214   7.117   6.405   2.733
  324WAT     H2 1215   7.043   6.405   2.587
  325WAT      O 1216   0.785   7.491   5.770
  325WAT     H1 1217   0.820   7.417   5.828
  325WAT     H2 1218   0.770   7.457   5.677
  326WAT      O 1219   2.959   3.845   5.242
  326WAT     H1 1220   3.025   3.781   5.280
  326WAT     H2 1221   3.007   3.919   5.194
  327WAT      O 1222   1.288   6.275   4.853
  327WAT     H1 1223   1.313   6.185   4.888
  327WAT     H2 1224   1.188   6.285   4.854
  328WAT      O 1225   5.767   4.006   3.573
  328WAT     H1 1226   5.686   3.999   3.515
  328WAT     H2 1227   5.778   3.921   3.626
  329WAT      O 1228   3.842   7.695   0.925
  329WAT     H1 1229   3.883   7.642   0.851
  329WAT     H2 1230   3.787   7.635   0.983
  330WAT      O 1231   7.169   7.547   1.388
  330WAT     H1 1232   7.150   7.513   1.480
  330WAT     H2 1233   7.241   7.616   1.392
  331WAT      O 1234   9.453   2.452   3.375
  331WAT     H1 1235   9.450   2.503   3.461
  331WAT     H2 1236   9.544   2.461   3.334
  332WAT      O 1237   9.553   9.389   3.753
  332WAT     H1 1238   9.501   9.344   3.680
  332WAT     H2 1239   9.561   9.486   3.732
  333WAT      O 1240   9.402   7.854   3.834
  333WAT     H1 1241   9.413   7.934   3.775
  333WAT     H2 1242   9.492   7.818   3.859
  334WAT      O 1243   5.329   3.014   0.588
  334WAT     H1 1244   5.258   3.060   0.535
  334WAT     H2 1245   5.361   2.934   0.538
  335WAT      O 1246   8.500   5.717   6.281
  335WAT     H1 1247   8.531   5.789   6.343
  335WAT     H2 1248   8.462   5.758   6.198
  336WAT      O 1249   9.368   3.750   4.510
  336WAT     H1 1250   9.377   3.685   4.434
  336WAT     H2 1251   9.431   3.724   4.583
  337WAT      O 1252   0.734   3.064   5.864
  337WAT     H1 1253   0.792   3.047   5.785
  337WAT     H2 1254   0.650   3.010   5.857
  338WAT      O 1255   1.331   9.531   8.871
  338WAT     H1 1256   1.288   9.586   8.799
  338WAT     H2 1257   1.370   9.591   8.940
  339WAT      O 1258   2.953   7.295   2.461
  339WAT     H1 1259   2.909   7.320   2.375
  339WAT     H2 1260   2.971   7.196   2.462
  340WAT      O 1261   3.100   8.798   0.698
  340WAT     H1 1262   3.072   8.826   0.790
  340WAT     H2 1263   3.040   8.725   0.665
  341WAT      O 1264   7.961   0.566   4.153
  341WAT     H1 1265   7.929   0.551   4.247
  341WAT     H2 1266   8.061   0.567   4.152
  342WAT      O 1267   6.456   2.554   7.190
  342WAT     H1 1268   6.530   2.621   7.194
  342WAT     H2 1269   6.410   2.549   7.279
  343WAT      O 1270   2.308   4.158   7.733
  343WAT     H1 1271   2.258   4.080   7.771
  343WAT     H2 1272   2.380   4.126   7.673
  344WAT      O 1273   2.342   8.378   5.755
  344WAT     H1 1274   2.332   8.280   5.741
  344WAT     H2 1275   2.313   8.402   5.848
  345WAT      O 1276   7.430   2.918   5.976
  345WAT     H1 1277   7.409   2.834   6.025
  345WAT     H2 1278   7.362   2.988   5.999
  346WAT      O 1279   7.773   7.119   7.496
  346WAT     H1 1280   7.830   7.070   7.563
  346WAT     H2 1281   7.724   7.053   7.439
  347WAT      O 1282   9.711   6.208   7.070
  347WAT     H1 1283   9.767   6.260   7.005
  347WAT     H2 1284   9.643   6.155   7.020
  348WAT      O 1285   0.344   3.467   1.555
  348WAT     H1 1286   0.275   3.522   1.602
  348WAT     H2 1287   0.335   3.371   1.582
  349WAT      O 1288   4.968   1.396   3.924
  349WAT     H1 1289   5.059   1.373   3.889
  349WAT     H2 1290   4.905   1.322   3.905
  350WAT      O 1291   0.610   9.497   0.576
  350WAT     H1 1292   0.640   9.576   0.629
  350WAT     H2 1293   0.679   9.477   0.506
  351WAT      O 1294   6.029   6.040   4.453
  351WAT     H1 1295   6.039   6.054   4.354
  351WAT     H2 1296   6.003   5.945   4.470
  352WAT      O 1297   4.688   2.260   3.976
  352WAT     H1 1298   4.731   2.316   4.046
  352WAT     H2 1299   4.643   2.181   4.020
  353WAT      O 1300   4.111   1.937   2.145
  353WAT     H1 1301   4.125   1.840   2.165
  353WAT     H2 1302   4.034   1.971   2.199
  354WAT      O 1303   4.423   8.029   9.363
  354WAT     H1 1304   4.400   8.124   9.386
  354WAT     H2 1305   4.386   8.008   9.272
  355WAT      O 1306   0.315   7.076   1.314
  355WAT     H1 1307   0.328   7.124   1.227
  355WAT     H2 1308   0.370   7.119   1.385
  356WAT      O 1309   1.710   3.159   2.774
  356WAT     H1 1310   1.754   3.239   2.734
  356WAT     H2 1311   1.752   3.139   2.863
  357WAT      O 1312   5.965   0.055   1.857
  357WAT     H1 1313   5.898   0.041   1.930
  357WAT     H2 1314   5.948  -0.011   1.784
  358WAT      O 1315   2.619   6.101   7.511
  358WAT     H1 1316   2.610   6.169   7.584
  358WAT     H2 1317   2.531   6.054   7.499
  359WAT      O 1318   9.025   1.561   8.743
  359WAT     H1 1319   9.114   1.605   8.746
  359WAT     H2 1320   8.975   1.593   8.662
  360WAT      O 1321   7.385   3.773   8.518
  360WAT     H1 1322   7.343   3.725   8.440
  360WAT     H2 1323   7.365   3.723   8.602
  361WAT      O 1324   0.017   3.967   2.981
  361WAT     H1 1325  -0.075   3.975   2.942
  361WAT     H2 1326   0.085   3.982   2.909
  362WAT      O 1327   6.925   1.224   4.796
  362WAT     H1 1328   6.880   1.135   4.786
  362WAT     H2 1329   6.919   1.274   4.710
  363WAT      O 1330   7.472   2.651   6.424
  363WAT     H1 1331   7.477   2.749   6.403
  363WAT     H2 1332   7.398   2.634   6.488
  364WAT      O 1333   2.510   5.617   3.615
  364WAT     H1 1334   2.496   5.579   3.523
  364WAT     H2 1335   2.423   5.613   3.665
  365WAT      O 1336   2.826   7.032   4.536
  365WAT     H1 1337   2.779   6.949   4.567
  365WAT     H2 1338   2.764   7.088   4.481
  366WAT      O 1339   9.720   8.523   8.197
  366WAT     H1 1340   9.654   8.511   8.123
  366WAT     H2 1341   9.702   8.609   8.244
  367WAT      O 1342   6.460   2.700   5.262
  367WAT     H1 1343   6.452   2.775   5.328
  367WAT     H2 1344   6.456   2.737   5.169
  368WAT      O 1345   9.039   7.193   7.095
  368WAT     H1 1346   9.032   7.226   7.000
  368WAT     H2 1347   8.969   7.124   7.111
  369WAT      O 1348   1.715   5.404   7.013
  369WAT     H1 1349   1.807   5.363   7.015
  369WAT     H2 1350   1.661   5.368   7.089
  370WAT      O 1351   4.672   4.437   2.998
  370WAT     H1 1352   4.772   4.445   2.992
  370WAT     H2 1353   4.643   4.448   3.093
  371WAT      O 1354   4.473   7.054   2.096
  371WAT     H1 1355   4.563   7.014   2.111
  371WAT     H2 1356   4.403   6.989   2.126
  372WAT      O 1357   0.199   8.856   3.077
  372WAT     H1 1358   0.164   8.940   3.034
  372WAT     H2 1359   0.288   8.833   3.039
  373WAT      O 1360   9.450   7.226   7.861
  373WAT     H1 1361   9.404   7.169   7.929
  373WAT     H2 1362   9.382   7.277   7.808
  374WAT      O 1363   2.150   7.820   9.404
  374WAT     H1 1364   2.122   7.915   9.393
  374WAT     H2 1365   2.085   7.760   9.356
  375WAT      O 1366   9.591   5.481   7.610
  375WAT     H1 1367   9.546   5.569   7.626
  375WAT     H2 1368   9.545   5.434   7.535
  376WAT      O 1369   9.401   7.735   8.932
  376WAT     H1 1370   9.351   7.679   8.866
  376WAT     H2 1371   9.338   7.771   9.000
  377WAT      O 1372   5.180   6.877   0.244
  377WAT     H1 1373   5.252   6.920   0.298
  377WAT     H2 1374   5.134   6.946   0.188
  378WAT      O 1375   8.109   6.296   0.830
  378WAT     H1 1376   8.031   6.236   0.842
  378WAT     H2 1377   8.113   6.328   0.735
  379WAT      O 1378   0.659   9.297   6.142
  379WAT     H1 1379   0.624   9.351   6.219
  379WAT     H2 1380   0.677   9.204   6.172
  380WAT      O 1381   4.107   7.589   5.413
  380WAT     H1 1382   4.115   7.490   5.428
  380WAT     H2 1383   4.059   7.630   5.491
  381WAT      O 1384   5.531   0.172   9.119
  381WAT     H1 1385   5.442   0.131   9.141
  381WAT     H2 1386   5.602   0.129   9.174
  382WAT      O 1387   4.408   3.453   1.802
  382WAT     H1 1388   4.471   3.449   1.879
  382WAT     H2 1389   4.458   3.433   1.717
  383WAT      O 1390   7.809   4.765   6.575
  383WAT     H1 1391   7.790   4.825   6.498
  383WAT     H2 1392   7.740   4.693   6.580
  384WAT      O 1393   7.368   8.070   3.282
  384WAT     H1 1394   7.326   7.979   3.276
  384WAT     H2 1395   7.465   8.064   3.260
  385WAT      O 1396   1.553   9.405   1.037
  385WAT     H1 1397   1.560   9.445   1.129
  385WAT     H2 1398   1.633   9.433   0.984
  386WAT      O 1399   8.883   2.072   8.783
  386WAT     H1 1400   8.927   2.115   8.863
  386WAT     H2 1401   8.790   2.044   8.807
  387WAT      O 1402   3.953   4.748   3.661
  387WAT     H1 1403   4.030   4.685   3.670
  387WAT     H2 1404   3.867   4.697   3.668
  388WAT      O 1405   5.180   2.202   1.715
  388WAT     H1 1406   5.245   2.185   1.789
  388WAT     H2 1407   5.088   2.176   1.744
  389WAT      O 1408   8.874   8.858   8.500
  389WAT     H1 1409   8.947   8.922   8.521
  389WAT     H2 1410   8.851   8.804   8.581
  390WAT      O 1411   5.224   3.939   6.422
  390WAT     H1 1412   5.180   3.994   6.493
  390WAT     H2 1413   5.275   3.864   6.464
  391WAT      O 1414   3.997   2.872   7.072
  391WAT     H1 1415   3.921   2.852   7.134
  391WAT     H2 1416   4.082   2.838   7.112
  392WAT      O 1417   2.008   5.041   2.707
  392WAT     H1 1418   2.029   5.031   2.610
  392WAT     H2 1419   2.080   5.096   2.750
  393WAT      O 1420   9.252   6.633   8.865
  393WAT     H1 1421   9.339   6.624   8.817
  393WAT     H2 1422   9.242   6.726   8.900
  394WAT      O 1423   3.265   8.491   0.840
  394WAT     H1 1424   3.167   8.502   0.855
  394WAT     H2 1425   3.286   8.395   0.820
  395WAT      O 1426   4.255   9.296   8.829
  395WAT     H1 1427   4.344   9.300   8.784
  395WAT     H2 1428   4.248   9.211   8.882
  396WAT      O 1429   6.609   7.731   7.814
  396WAT     H1 1430   6.537   7.676   7.772
  396WAT     H2 1431   6.579   7.826   7.820
  397WAT      O 1432   7.187   5.146   5.310
  397WAT     H1 1433   7.233   5.233   5.289
  397WAT     H2 1434   7.098   5.143   5.265
  398WAT      O 1435   7.776   6.495   3.466
  398WAT     H1 1436   7.816   6.555   3.396
  398WAT     H2 1437   7.723   6.422   3.421
  399WAT      O 1438   9.764   1.579   5.205
  399WAT     H1 1439   9.758   1.605   5.109
  399WAT     H2 1440   9.696   1.509   5.224
  400WAT      O 1441   1.598   1.493   5.590
  400WAT     H1 1442   1.695   1.483   5.611
  400WAT     H2 1443   1.588   1.541   5.503
  401WAT      O 1444   5.822   6.254   4.147
  401WAT     H1 1445   5.892   6.322   4.126
  401WAT     H2 1446   5.792   6.210   4.063
  402WAT      O 1447   3.327   7.639   3.868
  402WAT     H1 1448   3.323   7.739   3.871
  402WAT     H2 1449   3.244   7.601   3.909
  403WAT      O 1450   6.349   7.706   4.247
  403WAT     H1 1451   6.394   7.709   4.158
  403WAT     H2 1452   6.419   7.699   4.319
  404WAT      O 1453   0.630   7.336   1.170
  404WAT     H1 1454   0.694   7.305   1.240
  404WAT     H2 1455   0.644   7.434   1.154
  405WAT      O 1456   9.370   1.098   0.137
  405WAT     H1 1457   9.332   1.010   0.167
  405WAT     H2 1458   9.433   1.083   0.061
  406WAT      O 1459   7.502   9.088   1.144
  406WAT     H1 1460   7.428   9.058   1.205
  406WAT     H2 1461   7.565   9.147   1.195
  407WAT      O 1462   6.021   6.797   4.231
  407WAT     H1 1463   5.933   6.761   4.200
  407WAT     H2 1464   6.079   6.721   4.261
  408WAT      O 1465   5.564   3.850   6.824
  408WAT     H1 1466   5.649   3.865   6.873
  408WAT     H2 1467   5.542   3.931   6.770
  409WAT      O 1468   3.589   1.014   9.052
  409WAT     H1 1469   3.619   1.074   8.978
  409WAT     H2 1470   3.664   0.999   9.116
  410WAT      O 1471   0.539   0.597   5.836
  410WAT     H1 1472   0.517   0.652   5.755
  410WAT     H2 1473   0.571   0.507   5.807
  411WAT      O 1474   0.436   3.868   7.638
  411WAT     H1 1475   0.339   3.850   7.626
  411WAT     H2 1476   0.480   3.879   7.549
  412WAT      O 1477   5.757   5.124   6.370
  412WAT     H1 1478   5.723   5.061   6.301
  412WAT     H2 1479   5.855   5.138   6.357
  413WAT      O 1480   1.706   9.760   1.150
  413WAT     H1 1481   1.788   9.711   1.179
  413WAT     H2 1482   1.625   9.714   1.186
  414WAT      O 1483   0.524   7.614   4.092
  414WAT     H1 1484   0.470   7.536   4.061
  414WAT     H2 1485   0.473   7.663   4.164
  415WAT      O 1486   5.861   4.790   6.187
  415WAT     H1 1487   5.873   4.724   6.261
  415WAT     H2 1488   5.902   4.755   6.103
  416WAT      O 1489   5.779   4.304   6.279
  416WAT     H1 1490   5.729   4.218   6.289
  416WAT     H2 1491   5.737   4.359   6.207
  417WAT      O 1492   3.729   8.869   0.723
  417WAT     H1 1493   3.777   8.783   0.743
  417WAT     H2 1494   3.750   8.897   0.629
  418WAT      O 1495   3.332   9.392   3.917
  418WAT     H1 1496   3.305   9.367   3.824
  418WAT     H2 1497   3.282   9.336   3.983
  419WAT      O 1498   9.763   8.588   9.148
  419WAT     H1 1499   9.703   8.524   9.196
  419WAT     H2 1500   9.803   8.652   9.213
  420WAT      O 1501   1.770   2.963   7.484
  420WAT     H1 1502   1.817   3.044   7.520
  420WAT     H2 1503   1.725   2.915   7.558
  421WAT      O 1504   5.963   8.171   6.607
  421WAT     H1 1505   5.941   8.209   6.697
  421WAT     H2 1506   5.904   8.092   6.588
  422WAT      O 1507   6.794   3.589   9.697
  422WAT     H1 1508   6.717   3.639   9.737
  422WAT     H2 1509   6.797   3.607   9.598
  423WAT      O 1510   5.744   8.254   8.287
  423WAT     H1 1511   5.664   8.313   8.291
  423WAT     H2 1512   5.777   8.235   8.380
  424WAT      O 1513   7.332   7.704   1.131
  424WAT     H1 1514   7.346   7.801   1.154
  424WAT     H2 1515   7.234   7.686   1.121
  425WAT      O 1516   9.682   8.395   5.845
  425WAT     H1 1517   9.641   8.314   5.805
  425WAT     H2 1518   9.773   8.410   5.806
  426WAT      O 1519   6.179   6.215   5.059
  426WAT     H1 1520   6.199   6.271   5.140
  426WAT     H2 1521   6.091   6.170   5.069
  427WAT      O 1522   8.466   7.957   0.167
  427WAT     H1 1523   8.517   7.917   0.244
  427WAT     H2 1524   8.476   7.898   0.087
  428WAT      O 1525   0.332   5.351   8.911
  428WAT     H1 1526   0.417   5.368   8.960
  428WAT     H2 1527   0.259   5.332   8.976
  429WAT      O 1528   1.292   3.137   7.396
  429WAT     H1 1529   1.264   3.224   7.438
  429WAT     H2 1530   1.350   3.086   7.459
  430WAT      O 1531   8.317   7.229   1.573
  430WAT     H1 1532   8.393   7.291   1.593
  430WAT     H2 1533   8.279   7.251   1.483
  431WAT      O 1534   6.262   0.926   8.307
  431WAT     H1 1535   6.325   0.855   8.340
  431WAT     H2 1536   6.252   0.917   8.208
  432WAT      O 1537   3.459   7.072   3.595
  432WAT     H1 1538   3.457   7.011   3.516
  432WAT     H2 1539   3.550   7.113   3.603
  433WAT      O 1540   0.233   3.889   3.300
  433WAT     H1 1541   0.259   3.794   3.279
  433WAT     H2 1542   0.138   3.904   3.273
  434WAT      O 1543   4.572   1.287   7.953
  434WAT     H1 1544   4.487   1.303   8.003
  434WAT     H2 1545   4.553   1.232   7.872
  435WAT      O 1546   6.790   2.996   9.313
  435WAT     H1 1547   6.794   3.033   9.406
  435WAT     H2 1548   6.875   3.017   9.265
  436WAT      O 1549   0.113   1.312   1.791
  436WAT     H1 1550   0.180   1.240   1.775
  436WAT     H2 1551   0.104   1.327   1.889
  437WAT      O 1552   2.482   4.045   7.557
  437WAT     H1 1553   2.431   3.992   7.489
  437WAT     H2 1554   2.563   4.084   7.515
  438WAT      O 1555   3.571   0.840   8.461
  438WAT     H1 1556   3.557   0.834   8.560
  438WAT     H2 1557   3.590   0.749   8.424
  439WAT      O 1558   4.467   5.908   3.684
  439WAT     H1 1559   4.562   5.919   3.714
  439WAT     H2 1560   4.411   5.982   3.723
  440WAT      O 1561   8.055   6.215   4.796
  440WAT     H1 1562   8.030   6.200   4.892
  440WAT     H2 1563   8.138   6.164   4.775
  441WAT      O 1564   0.199   4.050   7.404
  441WAT     H1 1565   0.125   4.105   7.442
  441WAT     H2 1566   0.242   4.100   7.328
  442WAT      O 1567   6.613   6.633   9.746
  442WAT     H1 1568   6.690   6.692   9.721
  442WAT     H2 1569   6.552   6.625   9.668
  443WAT      O 1570   8.997   7.550   0.144
  443WAT     H1 1571   9.073   7.610   0.118
  443WAT     H2 1572   8.984   7.480   0.074
  444WAT      O 1573   9.712   2.494   9.604
  444WAT     H1 1574   9.662   2.420   9.647
  444WAT     H2 1575   9.754   2.461   9.519
  445WAT      O 1576   4.136   0.068   1.182
  445WAT     H1 1577   4.087  -0.017   1.165
  445WAT     H2 1578   4.071   0.144   1.192
  446WAT      O 1579   8.884   7.801   7.549
  446WAT     H1 1580   8.861   7.757   7.636
  446WAT     H2 1581   8.921   7.892   7.565
  447WAT      O 1582   8.863   5.126   8.638
  447WAT     H1 1583   8.819   5.186   8.705
  447WAT     H2 1584   8.938   5.174   8.593
  448WAT      O 1585   5.192   7.559   0.140
  448WAT     H1 1586   5.199   7.616   0.058
  448WAT     H2 1587   5.207   7.616   0.221
  449WAT      O 1588   7.277   2.275   7.228
  449WAT     H1 1589   7.287   2.179   7.256
  449WAT     H2 1590   7.268   2.279   7.128
  450WAT      O 1591   0.634   4.132   7.266
  450WAT     H1 1592   0.616   4.173   7.355
  450WAT     H2 1593   0.630   4.203   7.195
  451WAT      O 1594   4.321   2.242   3.971
  451WAT     H1 1595   4.386   2.244   3.895
  451WAT     H2 1596   4.311   2.334   4.009
  452WAT      O 1597   3.967   1.083   4.979
  452WAT     H1 1598   3.898   1.154   4.967
  452WAT     H2 1599   4.041   1.118   5.038
  453WAT      O 1600   0.602   7.989   2.446
  453WAT     H1 1601   0.508   8.006   2.477
  453WAT     H2 1602   0.664   8.050   2.496
  454WAT      O 1603   2.514   8.310   3.033
  454WAT     H1 1604   2.604   8.269   3.016
  454WAT     H2 1605   2.478   8.275   3.119
  455WAT      O 1606   4.138   0.073   2.827
  455WAT     H1 1607   4.163  -0.010   2.878
  455WAT     H2 1608   4.220   0.127   2.809
  456WAT      O 1609   1.139   7.755   8.412
  456WAT     H1 1610   1.164   7.807   8.330
  456WAT     H2 1611   1.082   7.812   8.472
  457WAT      O 1612   1.528   3.112   1.465
  457WAT     H1 1613   1.532   3.078   1.370
  457WAT     H2 1614   1.587   3.192   1.474
  458WAT      O 1615   7.215   6.190   8.463
  458WAT     H1 1616   7.222   6.289   8.476
  458WAT     H2 1617   7.148   6.171   8.392
  459WAT      O 1618   4.952   4.977   3.235
  459WAT     H1 1619   4.934   5.023   3.322
  459WAT     H2 1620   4.966   4.879   3.252
  460WAT      O 1621   5.999   4.225   1.965
  460WAT     H1 1622   5.971   4.180   2.050
  460WAT     H2 1623   5.989   4.162   1.888
  461WAT      O 1624   9.196   2.416   9.564
  461WAT     H1 1625   9.227   2.415   9.469
  461WAT     H2 1626   9.098   2.436   9.568
  462WAT      O 1627   0.441   6.021   6.970
  462WAT     H1 1628   0.471   6.116   6.959
  462WAT     H2 1629   0.361   6.005   6.911
  463WAT      O 1630   2.466   9.534   5.969
  463WAT     H1 1631   2.525   9.455   5.986
  463WAT     H2 1632   2.404   9.513   5.893
  464WAT      O 1633   1.057   0.429   0.148
  464WAT     H1 1634   1.000   0.419   0.230
  464WAT     H2 1635   1.011   0.491   0.083
  465WAT      O 1636   2.705   7.052   9.213
  465WAT     H1 1637   2.646   7.094   9.282
  465WAT     H2 1638   2.650   6.999   9.149
  466WAT      O 1639   0.976   2.871   2.442
  466WAT     H1 1640   0.917   2.875   2.361
  466WAT     H2 1641   0.922   2.844   2.522
  467WAT      O 1642   2.505   4.083   3.717
  467WAT     H1 1643   2.454   4.156   3.763
  467WAT     H2 1644   2.493   3.997   3.768
  468WAT      O 1645   4.018   5.899   2.578
  468WAT     H1 1646   4.030   5.827   2.646
  468WAT     H2 1647   4.102   5.951   2.568
  469WAT      O 1648   5.653   1.177   1.637
  469WAT     H1 1649   5.737   1.156   1.688
  469WAT     H2 1650   5.574   1.163   1.696
  470WAT      O 1651   0.511   7.092   5.832
  470WAT     H1 1652   0.412   7.090   5.846
  470WAT     H2 1653   0.554   7.026   5.894
  471WAT      O 1654   4.993   1.518   5.228
  471WAT     H1 1655   5.005   1.470   5.141
  471WAT     H2 1656   4.916   1.477   5.278
  472WAT      O 1657   0.850   7.095   2.138
  472WAT     H1 1658   0.751   7.101   2.150
  472WAT     H2 1659   0.879   7.000   2.146
  473WAT      O 1660   1.444   5.989   4.249
  473WAT     H1 1661   1.523   6.051   4.258
  473WAT     H2 1662   1.368   6.039   4.208
  474WAT      O 1663   9.476   1.275   3.619
  474WAT     H1 1664   9.562   1.322   3.601
  474WAT     H2 1665   9.478   1.235   3.711
  475WAT      O 1666   6.554   5.114   3.061
  475WAT     H1 1667   6.503   5.095   3.145
  475WAT     H2 1668   6.648   5.141   3.085
  476WAT      O 1669   1.058   0.915   4.628
  476WAT     H1 1670   1.107   0.847   4.573
  476WAT     H2 1671   1.124   0.964   4.686
  477WAT      O 1672   1.656   1.795   2.683
  477WAT     H1 1673   1.646   1.727   2.756
  477WAT     H2 1674   1.594   1.774   2.608
  478WAT      O 1675   4.539   1.397   4.124
  478WAT     H1 1676   4.635   1.401   4.153
  478WAT     H2 1677   4.532   1.345   4.039
  479WAT      O 1678   0.468   2.581   7.731
  479WAT     H1 1679   0.380   2.630   7.738
  479WAT     H2 1680   0.535   2.639   7.685
  480WAT      O 1681   4.873   0.151   0.110
  480WAT     H1 1682   4.883   0.052   0.104
  480WAT     H2 1683   4.916   0.184   0.194
  481WAT      O 1684   2.181   5.346   2.631
  481WAT     H1 1685   2.122   5.414   2.674
  481WAT     H2 1686   2.199   5.272   2.696
  482WAT      O 1687   6.523   0.984   1.516
  482WAT     H1 1688   6.505   0.885   1.519
  482WAT     H2 1689   6.469   1.026   1.443
  483WAT      O 1690   8.460   4.412   7.746
  483WAT     H1 1691   8.559   4.420   7.760
  483WAT     H2 1692   8.414   4.408   7.835
  484WAT      O 1693   2.452   9.104   0.704
  484WAT     H1 1694   2.375   9.153   0.664
  484WAT     H2 1695   2.462   9.015   0.659
  485WAT      O 1696   2.837   0.182   0.614
  485WAT     H1 1697   2.839   0.226   0.704
  485WAT     H2 1698   2.865   0.247   0.544
  486WAT      O 1699   0.233   4.977   9.084
  486WAT     H1 1700   0.203   4.886   9.057
  486WAT     H2 1701   0.177   5.010   9.160
  487WAT      O 1702   1.449   4.518   3.199
  487WAT     H1 1703   1.413   4.435   3.156
  487WAT     H2 1704   1.544   4.531   3.171
  488WAT      O 1705   3.212   2.109   8.920
  488WAT     H1 1706   3.291   2.143   8.869
  488WAT     H2 1707   3.232   2.018   8.956
  489WAT      O 1708   0.493   1.024   4.335
  489WAT     H1 1709   0.548   1.042   4.416
  489WAT     H2 1710   0.534   1.070   4.256
  490WAT      O 1711   2.586   2.068   9.149
  490WAT     H1 1712   2.555   2.160   9.129
  490WAT     H2 1713   2.509   2.005   9.148
  491WAT      O 1714   5.403   0.282   3.453
  491WAT     H1 1715   5.395   0.318   3.360
  491WAT     H2 1716   5.452   0.348   3.510
  492WAT      O 1717   0.860   4.824   9.276
  492WAT     H1 1718   0.780   4.867   9.318
  492WAT     H2 1719   0.943   4.870   9.307
  493WAT      O 1720   0.725   0.472   2.707
  493WAT     H1 1721   0.713   0.540   2.779
  493WAT     H2 1722   0.639   0.462   2.656
  494WAT      O 1723   9.562   1.255   6.080
  494WAT     H1 1724   9.566   1.157   6.100
  494WAT     H2 1725   9.551   1.267   5.981
  495WAT      O 1726   6.995   9.598   3.061
  495WAT     H1 1727   7.025   9.550   3.144
  495WAT     H2 1728   6.942   9.678   3.087
  496WAT      O 1729   4.104   6.571   9.625
  496WAT     H1 1730   4.029   6.505   9.618
  496WAT     H2 1731   4.160   6.549   9.705
  497WAT      O 1732   9.463   0.039   6.746
  497WAT     H1 1733   9.482   0.126   6.699
  497WAT     H2 1734   9.500  -0.036   6.692
  498WAT      O 1735   5.703   1.009   8.929
  498WAT     H1 1736   5.752   0.929   8.895
  498WAT     H2 1737   5.623   1.026   8.871
  499WAT      O 1738   6.583   0.071   5.747
  499WAT     H1 1739   6.596  -0.001   5.815
  499WAT     H2 1740   6.493   0.059   5.704
  500WAT      O 1741   8.344   7.744   8.924
  500WAT     H1 1742   8.404   7.773   8.849
  500WAT     H2 1743   8.286   7.821   8.952
  501WAT      O 1744   7.789   6.179   8.362
  501WAT     H1 1745   7.748   6.109   8.304
  501WAT     H2 1746   7.871   6.215   8.318
  502WAT      O 1747   8.311   7.220   9.587
  502WAT     H1 1748   8.324   7.316   9.613
  502WAT     H2 1749   8.383   7.165   9.628
  503WAT      O 1750   0.171   6.265   7.170
  503WAT     H1 1751   0.162   6.169   7.144
  503WAT     H2 1752   0.223   6.272   7.255
  504WAT      O 1753   1.171   4.984   8.392
  504WAT     H1 1754   1.119   4.965   8.308
  504WAT     H2 1755   1.128   5.060   8.440
  505WAT      O 1756   1.150   0.184   4.863
  505WAT     H1 1757   1.112   0.241   4.790
  505WAT     H2 1758   1.243   0.213   4.882
  506WAT      O 1759   8.682   6.446   5.896
  506WAT     H1 1760   8.598   6.443   5.950
  506WAT     H2 1761   8.757   6.404   5.947
  507WAT      O 1762   6.482   0.953   5.520
  507WAT     H1 1763   6.476   1.051   5.499
  507WAT     H2 1764   6.389   0.916   5.529
  508WAT      O 1765   5.292   1.428   8.028
  508WAT     H1 1766   5.298   1.352   8.093
  508WAT     H2 1767   5.251   1.507   8.073
  509WAT      O 1768   3.409   6.505   9.315
  509WAT     H1 1769   3.320   6.483   9.354
  509WAT     H2 1770   3.464   6.422   9.310
  510WAT      O 1771   6.452   8.600   5.219
  510WAT     H1 1772   6.386   8.669   5.249
  510WAT     H2 1773   6.543   8.624   5.254
  511WAT      O 1774   5.719   0.528   4.111
  511WAT     H1 1775   5.776   0.610   4.115
  511WAT     H2 1776   5.623   0.555   4.103
  512WAT      O 1777   5.312   2.749   5.119
  512WAT     H1 1778   5.257   2.831   5.106
  512WAT     H2 1779   5.387   2.769   5.182
  513WAT      O 1780   3.208   7.133   9.038
  513WAT     H1 1781   3.137   7.076   8.996
  513WAT     H2 1782   3.291   7.079   9.050
  514WAT      O 1783   4.185   9.011   2.363
  514WAT     H1 1784   4.254   9.069   2.318
  514WAT     H2 1785   4.191   9.023   2.462
  515WAT      O 1786   9.090   4.266   4.813
  515WAT     H1 1787   9.096   4.304   4.720
  515WAT     H2 1788   9.153   4.316   4.873
  516WAT      O 1789   4.311   0.617   9.780
  516WAT     H1 1790   4.224   0.572   9.796
  516WAT     H2 1791   4.307   0.711   9.813
  517WAT      O 1792   8.593   3.244   3.591
  517WAT     H1 1793   8.615   3.217   3.498
  517WAT     H2 1794   8.495   3.265   3.598
  518WAT      O 1795   6.502   6.014   4.571
  518WAT     H1 1796   6.540   5.931   4.612
  518WAT     H2 1797   6.402   6.009   4.573
  519WAT      O 1798   0.003   7.729   9.292
  519WAT     H1 1799   0.018   7.649   9.233
  519WAT     H2 1800  -0.033   7.805   9.238
  520WAT      O 1801   9.824   5.699   9.238
  520WAT     H1 1802   9.898   5.666   9.180
  520WAT     H2 1803   9.803   5.794   9.213
  521WAT      O 1804   7.716   1.060   6.768
  521WAT     H1 1805   7.632   1.010   6.788
  521WAT     H2 1806   7.722   1.142   6.826
  522WAT      O 1807   8.710   7.079   2.235
  522WAT     H1 1808   8.735   7.150   2.301
  522WAT     H2 1809   8.664   7.004   2.282
  523WAT      O 1810   1.996   7.095   8.868
  523WAT     H1 1811   1.940   7.065   8.791
  523WAT     H2 1812   2.076   7.144   8.835
  524WAT      O 1813   0.462   4.483   4.066
  524WAT     H1 1814   0.525   4.553   4.033
  524WAT     H2 1815   0.407   4.448   3.990
  525WAT      O 1816   9.654   2.515   1.925
  525WAT     H1 1817   9.584   2.445   1.939
  525WAT     H2 1818   9.687   2.547   2.014
  526WAT      O 1819   4.716   8.252   0.383
  526WAT     H1 1820   4.751   8.341   0.353
  526WAT     H2 1821   4.616   8.251   0.375
  527WAT      O 1822   8.535   7.115   3.698
  527WAT     H1 1823   8.498   7.106   3.605
  527WAT     H2 1824   8.635   7.109   3.694
  528WAT      O 1825   8.407   4.419   0.789
  528WAT     H1 1826   8.379   4.354   0.860
  528WAT     H2 1827   8.431   4.369   0.705
  529WAT      O 1828   2.334   2.509   8.796
  529WAT     H1 1829   2.339   2.471   8.704
  529WAT     H2 1830   2.331   2.609   8.791
  530WAT      O 1831   5.058   0.360   2.585
  530WAT     H1 1832   5.072   0.452   2.550
  530WAT     H2 1833   5.108   0.349   2.671
  531WAT      O 1834   2.706   1.948   2.750
  531WAT     H1 1835   2.624   1.938   2.806
  531WAT     H2 1836   2.691   2.018   2.680
  532WAT      O 1837   7.839   3.578   8.282
  532WAT     H1 1838   7.785   3.663   8.279
  532WAT     H2 1839   7.850   3.548   8.377
  533WAT      O 1840   0.556   8.115   6.347
  533WAT     H1 1841   0.622   8.190   6.344
  533WAT     H2 1842   0.466   8.148   6.316
  534WAT      O 1843   9.493   3.859   8.387
  534WAT     H1 1844   9.491   3.836   8.289
  534WAT     H2 1845   9.497   3.776   8.441
  535WAT      O 1846   1.893   2.170   5.830
  535WAT     H1 1847   1.970   2.230   5.854
  535WAT     H2 1848   1.919   2.112   5.753
  536WAT      O 1849   4.419   6.553   9.729
  536WAT     H1 1850   4.394   6.645   9.759
  536WAT     H2 1851   4.412   6.547   9.630
  537WAT      O 1852   2.514   5.945   9.214
  537WAT     H1 1853   2.528   5.947   9.115
  537WAT     H2 1854   2.418   5.929   9.235
  538WAT      O 1855   7.408   5.409   1.464
  538WAT     H1 1856   7.384   5.428   1.559
  538WAT     H2 1857   7.347   5.339   1.427
  539WAT      O 1858   3.999   3.287   6.202
  539WAT     H1 1859   4.007   3.349   6.280
  539WAT     H2 1860   3.937   3.212   6.225
  540WAT      O 1861   7.298   2.120   9.250
  540WAT     H1 1862   7.216   2.173   9.271
  540WAT     H2 1863   7.318   2.125   9.153
  541WAT      O 1864   5.392   5.296   1.638
  541WAT     H1 1865   5.486   5.308   1.606
  541WAT     H2 1866   5.351   5.217   1.592
  542WAT      O 1867   7.779   6.931   1.928
  542WAT     H1 1868   7.772   7.027   1.955
  542WAT     H2 1869   7.863   6.917   1.876
  543WAT      O 1870   0.183   6.763   1.675
  543WAT     H1 1871   0.171   6.809   1.587
  543WAT     H2 1872   0.164   6.828   1.749
  544WAT      O 1873   3.127   5.853   0.852
  544WAT     H1 1874   3.147   5.869   0.949
  544WAT     H2 1875   3.075   5.768   0.842
  545WAT      O 1876   1.467   8.704   3.034
  545WAT     H1 1877   1.560   8.739   3.049
  545WAT     H2 1878   1.469   8.638   2.959
  546WAT      O 1879   8.868   4.532   4.870
  546WAT     H1 1880   8.797   4.584   4.918
  546WAT     H2 1881   8.863   4.436   4.897
  547WAT      O 1882   0.524   1.043   8.197
  547WAT     H1 1883   0.546   1.133   8.158
  547WAT     H2 1884   0.516   0.976   8.124
  548WAT      O 1885   9.219   4.407   3.882
  548WAT     H1 1886   9.220   4.310   3.903
  548WAT     H2 1887   9.124   4.439   3.879
  549WAT      O 1888   1.332   3.252   3.500
  549WAT     H1 1889   1.313   3.193   3.579
  549WAT     H2 1890   1.249   3.300   3.474
  550WAT      O 1891   0.388   6.847   9.488
  550WAT     H1 1892   0.485   6.822   9.500
  550WAT     H2 1893   0.361   6.913   9.558
  551WAT      O 1894   4.309   4.619   9.091
  551WAT     H1 1895   4.300   4.519   9.089
  551WAT     H2 1896   4.393   4.643   9.139
  552WAT      O 1897   8.157   5.417   0.504
  552WAT     H1 1898   8.197   5.327   0.489
  552WAT     H2 1899   8.224   5.488   0.479
  553WAT      O 1900   5.503   0.664   1.893
  553WAT     H1 1901   5.440   0.738   1.916
  553WAT     H2 1902   5.583   0.701   1.845
  554WAT      O 1903   3.044   5.029   5.717
  554WAT     H1 1904   3.134   4.997   5.687
  554WAT     H2 1905   3.039   5.025   5.817
  555WAT      O 1906   0.143   1.109   9.246
  555WAT     H1 1907   0.054   1.110   9.291
  555WAT     H2 1908   0.151   1.028   9.189
  556WAT      O 1909   9.201   3.253   2.536
  556WAT     H1 1910   9.257   3.322   2.583
  556WAT     H2 1911   9.193   3.172   2.593
  557WAT      O 1912   5.882   1.153   1.811
  557WAT     H1 1913   5.923   1.244   1.813
  557WAT     H2 1914   5.927   1.098   1.741
  558WAT      O 1915   3.763   4.859   3.398
  558WAT     H1 1916   3.761   4.940   3.457
  558WAT     H2 1917   3.835   4.870   3.330
  559WAT      O 1918   2.817   1.307   5.059
  559WAT     H1 1919   2.757   1.315   5.139
  559WAT     H2 1920   2.786   1.370   4.988
  560WAT      O 1921   3.509   2.596   4.361
  560WAT     H1 1922   3.468   2.686   4.375
  560WAT     H2 1923   3.596   2.606   4.313
  561WAT      O 1924   1.513   2.564   6.692
  561WAT     H1 1925   1.584   2.498   6.666
  561WAT     H2 1926   1.533   2.600   6.784
  562WAT      O 1927   6.070   9.762   8.514
  562WAT     H1 1928   5.997   9.698   8.540
  562WAT     H2 1929   6.151   9.710   8.486
  563WAT      O 1930   0.437   5.515   3.357
  563WAT     H1 1931   0.488   5.430   3.342
  563WAT     H2 1932   0.445   5.542   3.453
  564WAT      O 1933   4.282   5.918   4.069
  564WAT     H1 1934   4.372   5.940   4.033
  564WAT     H2 1935   4.258   5.984   4.140
  565WAT      O 1936   7.198   9.558   6.904
  565WAT     H1 1937   7.099   9.560   6.917
  565WAT     H2 1938   7.239   9.642   6.939
  566WAT      O 1939   2.691   3.645   1.448
  566WAT     H1 1940   2.706   3.698   1.365
  566WAT     H2 1941   2.710   3.548   1.430
  567WAT      O 1942   5.358   8.625   4.403
  567WAT     H1 1943   5.290   8.665   4.342
  567WAT     H2 1944   5.312   8.585   4.483
  568WAT      O 1945   2.113   7.064   7.444
  568WAT     H1 1946   2.165   6.981   7.423
  568WAT     H2 1947   2.030   7.066   7.389
  569WAT      O 1948   2.522   4.323   8.464
  569WAT     H1 1949   2.429   4.348   8.492
  569WAT     H2 1950   2.520   4.277   8.376
  570WAT      O 1951   2.752   8.471   5.810
  570WAT     H1 1952   2.824   8.402   5.812
  570WAT     H2 1953   2.714   8.481   5.902
  571WAT      O 1954   9.303   1.703   4.187
  571WAT     H1 1955   9.217   1.655   4.202
  571WAT     H2 1956   9.286   1.788   4.138
  572WAT      O 1957   8.965   7.545   5.978
  572WAT     H1 1958   8.970   7.638   6.012
  572WAT     H2 1959   9.051   7.497   5.998
  573WAT      O 1960   3.963   6.667   3.858
  573WAT     H1 1961   4.021   6.706   3.786
  573WAT     H2 1962   4.009   6.588   3.898
  574WAT      O 1963   0.967   0.151   2.567
  574WAT     H1 1964   0.962   0.198   2.479
  574WAT     H2 1965   1.014   0.063   2.555
  575WAT      O 1966   2.508   4.626   4.425
  575WAT     H1 1967   2.547   4.696   4.484
  575WAT     H2 1968   2.458   4.670   4.350
  576WAT      O 1969   6.789   8.777   8.929
  576WAT     H1 1970   6.809   8.751   9.023
  576WAT     H2 1971   6.690   8.771   8.913
  577WAT      O 1972   7.794   0.852   0.074
  577WAT     H1 1973   7.864   0.924   0.074
  577WAT     H2 1974   7.757   0.842  -0.018
  578WAT      O 1975   9.525   6.849   0.545
  578WAT     H1 1976   9.578   6.866   0.628
  578WAT     H2 1977   9.578   6.878   0.465
  579WAT      O 1978   5.536   9.055   2.164
  579WAT     H1 1979   5.456   9.076   2.109
  579WAT     H2 1980   5.538   9.112   2.246
  580WAT      O 1981   8.035   5.460   7.532
  580WAT     H1 1982   8.029   5.560   7.532
  580WAT     H2 1983   7.961   5.423   7.476
  581WAT      O 1984   6.182   2.920   6.829
  581WAT     H1 1985   6.199   3.018   6.830
  581WAT     H2 1986   6.269   2.872   6.839
  582WAT      O 1987   3.054   4.800   3.129
  582WAT     H1 1988   3.144   4.756   3.133
  582WAT     H2 1989   3.063   4.891   3.089
  583WAT      O 1990   4.623   2.621   8.587
  583WAT     H1 1991   4.649   2.524   8.594
  583WAT     H2 1992   4.689   2.677   8.636
  584WAT      O 1993   0.531   0.178   1.806
  584WAT     H1 1994   0.562   0.237   1.881
  584WAT     H2 1995   0.444   0.212   1.771
  585WAT      O 1996   3.853   6.270   3.322
  585WAT     H1 1997   3.855   6.308   3.415
  585WAT     H2 1998   3.780   6.202   3.315
  586WAT      O 1999   1.383   6.351   0.836
  586WAT     H1 2000   1.453   6.282   0.854
  586WAT     H2 2001   1.421   6.423   0.779
  587WAT      O 2002   7.067   0.698   2.440
  587WAT     H1 2003   7.042   0.791   2.468
  587WAT     H2 2004   7.137   0.662   2.502
  588WAT      O 2005   6.741   8.654   0.759
  588WAT     H1 2006   6.705   8.654   0.853
  588WAT     H2 2007   6.756   8.749   0.730
  589WAT      O 2008   9.366   6.391   1.567
  589WAT     H1 2009   9.351   6.299   1.531
  589WAT     H2 2010   9.337   6.459   1.499
  590WAT      O 2011   9.708   1.605   2.479
  590WAT     H1 2012   9.799   1.615   2.520
  590WAT     H2 2013   9.649   1.679   2.511
  591WAT      O 2014   3.140   8.188   7.097
  591WAT     H1 2015   3.070   8.118   7.084
  591WAT     H2 2016   3.106   8.259   7.158
  592WAT      O 2017   7.751   7.521   6.910
  592WAT     H1 2018   7.731   7.616   6.887
  592WAT     H2 2019   7.819   7.484   6.846
  593WAT      O 2020   7.871   9.751   1.764
  593WAT     H1 2021   7.816   9.833   1.780
  593WAT     H2 2022   7.829   9.698   1.690
  594WAT      O 2023   0.955   9.318   6.992
  594WAT     H1 2024   0.874   9.261   7.002
  594WAT     H2 2025   0.990   9.343   7.083
  595WAT      O 2026   2.452   6.797   6.386
  595WAT     H1 2027   2.353   6.786   6.374
  595WAT     H2 2028   2.493   6.824   6.298
  596WAT      O 2029   8.417   1.512   9.873
  596WAT     H1 2030   8.466   1.521   9.786
  596WAT     H2 2031   8.319   1.521   9.858
  597WAT      O 2032   7.201   2.626   4.130
  597WAT     H1 2033   7.143   2.705   4.113
  597WAT     H2 2034   7.297   2.654   4.128
  598WAT      O 2035   6.916   8.927   4.462
  598WAT     H1 2036   6.947   9.011   4.418
  598WAT     H2 2037   6.834   8.946   4.517
  599WAT      O 2038   1.655   6.594   3.234
  599WAT     H1 2039   1.674   6.500   3.261
  599WAT     H2 2040   1.557   6.605   3.217
  600WAT      O 2041   5.593   8.491   2.535
  600WAT     H1 2042   5.610   8.498   2.437
  600WAT     H2 2043   5.569   8.396   2.557
  601WAT      O 2044   3.216   8.845   9.039
  601WAT     H1 2045   3.196   8.936   9.075
  601WAT     H2 2046   3.160   8.777   9.086
  602WAT      O 2047   4.700   9.785   3.837
  602WAT     H1 2048   4.797   9.794   3.816
  602WAT     H2 2049   4.660   9.875   3.851
  603WAT      O 2050   9.017   3.094   0.799
  603WAT     H1 2051   9.085   3.021   0.797
  603WAT     H2 2052   9.054   3.174   0.845
  604WAT      O 2053   1.735   3.919   7.388
  604WAT     H1 2054   1.810   3.976   7.357
  604WAT     H2 2055   1.659   3.977   7.418
  605WAT      O 2056   5.740   5.980   9.397
  605WAT     H1 2057   5.655   5.994   9.447
  605WAT     H2 2058   5.807   5.935   9.456
  606WAT      O 2059   6.127   3.955   4.703
  606WAT     H1 2060   6.130   4.034   4.764
  606WAT     H2 2061   6.055   3.893   4.732
  607WAT      O 2062   2.340   8.976   6.670
  607WAT     H1 2063   2.360   8.891   6.622
  607WAT     H2 2064   2.424   9.030   6.679
  608WAT      O 2065   4.830   5.101   9.830
  608WAT     H1 2066   4.754   5.036   9.841
  608WAT     H2 2067   4.828   5.140   9.738
  609WAT      O 2068   3.580   5.870   0.712
  609WAT     H1 2069   3.651   5.891   0.645
  609WAT     H2 2070   3.493   5.851   0.665
  610WAT      O 2071   3.227   4.064   8.118
  610WAT     H1 2072   3.310   4.119   8.113
  610WAT     H2 2073   3.241   3.978   8.070
  611WAT      O 2074   2.398   7.032   0.336
  611WAT     H1 2075   2.307   7.044   0.296
  611WAT     H2 2076   2.467   7.033   0.263
  612WAT      O 2077   9.832   5.398   0.586
  612WAT     H1 2078   9.757   5.400   0.652
  612WAT     H2 2079   9.796   5.415   0.494
  613WAT      O 2080   4.945   7.932   9.198
  613WAT     H1 2081   4.894   7.951   9.282
  613WAT     H2 2082   4.885   7.945   9.119
  614WAT      O 2083   4.604   6.989   9.751
  614WAT     H1 2084   4.579   6.971   9.656
  614WAT     H2 2085   4.551   7.067   9.785
  615WAT      O 2086   4.699   0.598   9.098
  615WAT     H1 2087   4.650   0.598   9.011
  615WAT     H2 2088   4.641   0.639   9.169
  616WAT      O 2089   7.555   4.563   8.325
  616WAT     H1 2090   7.597   4.556   8.416
  616WAT     H2 2091   7.606   4.629   8.270
  617WAT      O 2092   1.233   3.511   8.059
  617WAT     H1 2093   1.257   3.606   8.080
  617WAT     H2 2094   1.235   3.498   7.960
  618WAT      O 2095   5.077   0.854   3.762
  618WAT     H1 2096   5.136   0.774   3.769
  618WAT     H2 2097   5.057   0.872   3.666
  619WAT      O 2098   3.800   6.189   9.075
  619WAT     H1 2099   3.731   6.139   9.128
  619WAT     H2 2100   3.775   6.285   9.071
  620WAT      O 2101   9.537   3.649   3.791
  620WAT     H1 2102   9.613   3.605   3.744
  620WAT     H2 2103   9.452   3.632   3.741
  621WAT      O 2104   6.676   5.892   6.746
  621WAT     H1 2105   6.734   5.911   6.825
  621WAT     H2 2106   6.697   5.801   6.711
  622WAT      O 2107   1.054   2.558   6.850
  622WAT     H1 2108   1.087   2.520   6.764
  622WAT     H2 2109   0.959   2.529   6.865
  623WAT      O 2110   8.704   9.589   9.292
  623WAT     H1 2111   8.685   9.597   9.194
  623WAT     H2 2112   8.628   9.544   9.338
  624WAT      O 2113   7.738   8.726   6.421
  624WAT     H1 2114   7.676   8.676   6.361
  624WAT     H2 2115   7.695   8.739   6.511
  625WAT      O 2116   2.113   4.605   2.349
  625WAT     H1 2117   2.209   4.583   2.333
  625WAT     H2 2118   2.056   4.557   2.283
  626WAT      O 2119   3.823   9.669   1.840
  626WAT     H1 2120   3.802   9.580   1.879
  626WAT     H2 2121   3.835   9.736   1.913
  627WAT      O 2122   0.626   9.680   6.720
  627WAT     H1 2123   0.553   9.624   6.758
  627WAT     H2 2124   0.598   9.716   6.631
  628WAT      O 2125   4.031   3.888   2.603
  628WAT     H1 2126   4.010   3.831   2.524
  628WAT     H2 2127   3.964   3.872   2.675
  629WAT      O 2128   4.261   8.407   6.110
  629WAT     H1 2129   4.348   8.414   6.158
  629WAT     H2 2130   4.201   8.481   6.139
  630WAT      O 2131   1.990   1.140   7.304
  630WAT     H1 2132   1.940   1.226   7.293
  630WAT     H2 2133   2.052   1.128   7.226
  631WAT      O 2134   1.476   8.600   3.936
  631WAT     H1 2135   1.451   8.693   3.909
  631WAT     H2 2136   1.405   8.536   3.906
  632WAT      O 2137   7.825   3.000   2.061
  632WAT     H1 2138   7.828   2.902   2.079
  632WAT     H2 2139   7.911   3.042   2.086
  633WAT      O 2140   6.747   6.739   7.687
  633WAT     H1 2141   6.820   6.671   7.693
  633WAT     H2 2142   6.712   6.742   7.593
  634WAT      O 2143   1.523   1.975   9.167
  634WAT     H1 2144   1.441   1.960   9.112
  634WAT     H2 2145   1.601   1.930   9.123
  635WAT      O 2146   4.059   6.586   0.039
  635WAT     H1 2147   3.961   6.601   0.054
  635WAT     H2 2148   4.096   6.662  -0.016
  636WAT      O 2149   1.219   1.069   4.783
  636WAT     H1 2150   1.241   1.166   4.780
  636WAT     H2 2151   1.295   1.019   4.826
  637WAT      O 2152   0.521   6.756   7.575
  637WAT     H1 2153   0.542   6.810   7.656
  637WAT     H2 2154   0.589   6.774   7.504
  638WAT      O 2155   2.379   3.757   8.621
  638WAT     H1 2156   2.349   3.785   8.530
  638WAT     H2 2157   2.477   3.772   8.630
  639WAT      O 2158   7.839   7.823   5.213
  639WAT     H1 2159   7.885   7.832   5.302
  639WAT     H2 2160   7.898   7.861   5.142
  640WAT      O 2161   3.913   4.240   0.825
  640WAT     H1 2162   3.818   4.236   0.858
  640WAT     H2 2163   3.968   4.173   0.875
  641WAT      O 2164   0.981   8.342   6.531
  641WAT     H1 2165   0.906   8.303   6.585
  641WAT     H2 2166   1.061   8.282   6.538
  642WAT      O 2167   1.483   1.781   7.054
  642WAT     H1 2168   1.518   1.853   6.994
  642WAT     H2 2169   1.385   1.768   7.037
  643WAT      O 2170   8.806   0.919   5.986
  643WAT     H1 2171   8.853   0.922   6.074
  643WAT     H2 2172   8.734   0.989   5.984
  644WAT      O 2173   9.683   3.788   7.917
  644WAT     H1 2174   9.762   3.730   7.934
  644WAT     H2 2175   9.658   3.782   7.820
  645WAT      O 2176   5.845   7.128   0.880
  645WAT     H1 2177   5.770   7.080   0.836
  645WAT     H2 2178   5.916   7.062   0.905
  646WAT      O 2179   7.664   9.787   5.346
  646WAT     H1 2180   7.658   9.690   5.320
  646WAT     H2 2181   7.599   9.804   5.420
  647WAT      O 2182   8.980   8.228   9.429
  647WAT     H1 2183   9.071   8.253   9.396
  647WAT     H2 2184   8.987   8.194   9.523
  648WAT      O 2185   8.618   6.762   9.180
  648WAT     H1 2186   8.583   6.672   9.209
  648WAT     H2 2187   8.674   6.801   9.253
  649WAT      O 2188   6.511   1.112   6.219
  649WAT     H1 2189   6.570   1.072   6.150
  649WAT     H2 2190   6.543   1.204   6.242
  650WAT      O 2191   3.508   5.046   5.824
  650WAT     H1 2192   3.553   5.131   5.849
  650WAT     H2 2193   3.571   4.989   5.771
  651WAT      O 2194   3.448   4.555   2.708
  651WAT     H1 2195   3.495   4.496   2.774
  651WAT     H2 2196   3.471   4.525   2.616
  652WAT      O 2197   4.758   2.874   0.041
  652WAT     H1 2198   4.772   2.780   0.070
  652WAT     H2 2199   4.726   2.928   0.118
  653WAT      O 2200   4.866   0.069   8.641
  653WAT     H1 2201   4.855  -0.017   8.691
  653WAT     H2 2202   4.870   0.144   8.706
  654WAT      O 2203   7.464   4.315   9.163
  654WAT     H1 2204   7.423   4.407   9.169
  654WAT     H2 2205   7.399   4.253   9.120
  655WAT      O 2206   3.088   8.328   2.382
  655WAT     H1 2207   3.086   8.427   2.392
  655WAT     H2 2208   3.008   8.288   2.428
  656WAT      O 2209   9.868   8.153   0.857
  656WAT     H1 2210   9.954   8.106   0.835
  656WAT     H2 2211   9.799   8.086   0.884
  657WAT      O 2212   1.208   3.441   7.796
  657WAT     H1 2213   1.270   3.392   7.734
  657WAT     H2 2214   1.194   3.534   7.762
  658WAT      O 2215   1.755   7.450   2.246
  658WAT     H1 2216   1.838   7.475   2.195
  658WAT     H2 2217   1.697   7.530   2.256
  659WAT      O 2218   5.430   3.819   8.644
  659WAT     H1 2219   5.434   3.743   8.580
  659WAT     H2 2220   5.334   3.839   8.666
  660WAT      O 2221   7.600   8.283   3.528
  660WAT     H1 2222   7.603   8.333   3.614
  660WAT     H2 2223   7.647   8.195   3.538
  661WAT      O 2224   2.816   7.561   8.814
  661WAT     H1 2225   2.741   7.622   8.838
  661WAT     H2 2226   2.819   7.484   8.878
  662WAT      O 2227   0.047   9.500   5.558
  662WAT     H1 2228   0.125   9.541   5.512
  662WAT     H2 2229  -0.032   9.561   5.552
  663WAT      O 2230   8.085   3.991   6.798
  663WAT     H1 2231   8.077   4.089   6.781
  663WAT     H2 2232   8.080   3.941   6.711
  664WAT      O 2233   3.159   0.965   9.266
  664WAT     H1 2234   3.101   1.036   9.225
  664WAT     H2 2235   3.142   0.878   9.221
  665WAT      O 2236   4.197   1.077   8.894
  665WAT     H1 2237   4.267   1.025   8.942
  665WAT     H2 2238   4.120   1.017   8.872
  666WAT      O 2239   9.683   0.735   9.628
  666WAT     H1 2240   9.669   0.683   9.712
  666WAT     H2 2241   9.720   0.675   9.557
  667WAT      O 2242   0.868   1.206   6.774
  667WAT     H1 2243   0.837   1.128   6.721
  667WAT     H2 2244   0.798   1.277   6.773
  668WAT      O 2245   2.523   1.602   6.401
  668WAT     H1 2246   2.503   1.506   6.380
  668WAT     H2 2247   2.531   1.654   6.315
  669WAT      O 2248   2.983   1.395   8.529
  669WAT     H1 2249   2.924   1.459   8.480
  669WAT     H2 2250   3.013   1.322   8.467
  670WAT      O 2251   6.793   1.482   5.152
  670WAT     H1 2252   6.746   1.417   5.092
  670WAT     H2 2253   6.725   1.537   5.202
  671WAT      O 2254   7.790   5.912   4.997
  671WAT     H1 2255   7.717   5.854   5.032
  671WAT     H2 2256   7.873   5.897   5.051
  672WAT      O 2257   2.919   4.221   4.352
  672WAT     H1 2258   2.948   4.206   4.257
  672WAT     H2 2259   2.866   4.142   4.383
  673WAT      O 2260   9.471   3.360   7.866
  673WAT     H1 2261   9.537   3.382   7.794
  673WAT     H2 2262   9.518   3.316   7.943
  674WAT      O 2263   3.688   1.900   2.123
  674WAT     H1 2264   3.618   1.952   2.172
  674WAT     H2 2265   3.727   1.958   2.051
  675WAT      O 2266   0.679   9.305   9.557
  675WAT     H1 2267   0.631   9.239   9.499
  675WAT     H2 2268   0.620   9.385   9.571
  676WAT      O 2269   5.390   8.309   7.234
  676WAT     H1 2270   5.455   8.246   7.277
  676WAT     H2 2271   5.298   8.272   7.240
  677WAT      O 2272   2.456   4.344   0.605
  677WAT     H1 2273   2.404   4.268   0.565
  677WAT     H2 2274   2.484   4.407   0.533
  678WAT      O 2275   7.261   2.281   5.527
  678WAT     H1 2276   7.171   2.307   5.562
  678WAT     H2 2277   7.251   2.207   5.461
  679WAT      O 2278   5.379   2.063   3.629
  679WAT     H1 2279   5.295   2.031   3.672
  679WAT     H2 2280   5.358   2.104   3.540
  680WAT      O 2281   2.051   3.479   2.660
  680WAT     H1 2282   1.965   3.438   2.631
  680WAT     H2 2283   2.068   3.563   2.608
  681WAT      O 2284   7.812   5.464   1.904
  681WAT     H1 2285   7.787   5.475   2.000
  681WAT     H2 2286   7.831   5.554   1.864
  682WAT      O 2287   6.783   2.497   0.332
  682WAT     H1 2288   6.838   2.518   0.413
  682WAT     H2 2289   6.826   2.423   0.281
  683WAT      O 2290   2.648   4.092   3.475
  683WAT     H1 2291   2.572   4.089   3.540
  683WAT     H2 2292   2.723   4.145   3.514
  684WAT      O 2293   8.740   5.308   8.775
  684WAT     H1 2294   8.737   5.395   8.727
  684WAT     H2 2295   8.646   5.274   8.788
  685WAT      O 2296   5.059   4.227   6.318
  685WAT     H1 2297   5.010   4.147   6.285
  685WAT     H2 2298   4.994   4.296   6.350
  686WAT      O 2299   4.297   5.163   2.351
  686WAT     H1 2300   4.383   5.115   2.334
  686WAT     H2 2301   4.256   5.128   2.435
  687WAT      O 2302   1.748   0.525   3.182
  687WAT     H1 2303   1.657   0.490   3.205
  687WAT     H2 2304   1.740   0.601   3.117
  688WAT      O 2305   7.061   1.488   4.377
  688WAT     H1 2306   7.005   1.457   4.301
  688WAT     H2 2307   7.122   1.414   4.406
  689WAT      O 2308   1.054   0.220   1.255
  689WAT     H1 2309   0.984   0.148   1.253
  689WAT     H2 2310   1.107   0.217   1.170
  690WAT      O 2311   6.651   8.976   6.561
  690WAT     H1 2312   6.589   8.898   6.565
  690WAT     H2 2313   6.617   9.043   6.496
  691WAT      O 2314   3.573   0.236   9.046
  691WAT     H1 2315   3.510   0.301   9.090
  691WAT     H2 2316   3.667   0.262   9.068
  692WAT      O 2317   4.593   2.133   0.137
  692WAT     H1 2318   4.660   2.166   0.204
  692WAT     H2 2319   4.610   2.176   0.049
  693WAT      O 2320   7.291   0.298   6.730
  693WAT     H1 2321   7.315   0.367   6.662
  693WAT     H2 2322   7.325   0.327   6.820
  694WAT      O 2323   8.539   9.651   7.214
  694WAT     H1 2324   8.578   9.740   7.188
  694WAT     H2 2325   8.613   9.589   7.242
  695WAT      O 2326   2.624   5.614   0.895
  695WAT     H1 2327   2.674   5.658   0.970
  695WAT     H2 2328   2.639   5.666   0.811
  696WAT      O 2329   7.941   1.304   0.485
  696WAT     H1 2330   7.969   1.375   0.420
  696WAT     H2 2331   7.863   1.337   0.538
  697WAT      O 2332   3.536   9.104   4.711
  697WAT     H1 2333   3.443   9.076   4.687
  697WAT     H2 2334   3.535   9.194   4.754
  698WAT      O 2335   3.650   0.485   6.133
  698WAT     H1 2336   3.694   0.452   6.049
  698WAT     H2 2337   3.551   0.490   6.118
  699WAT      O 2338   6.778   3.666   9.440
  699WAT     H1 2339   6.754   3.571   9.421
  699WAT     H2 2340   6.708   3.727   9.402
  700WAT      O 2341   0.130   0.077   0.661
  700WAT     H1 2342   0.194   0.013   0.617
  700WAT     H2 2343   0.037   0.044   0.648
  701WAT      O 2344   0.620   4.827   8.551
  701WAT     H1 2345   0.701   4.884   8.567
  701WAT     H2 2346   0.582   4.799   8.639
  702WAT      O 2347   3.704   6.473   4.718
  702WAT     H1 2348   3.774   6.526   4.767
  702WAT     H2 2349   3.653   6.534   4.657
  703WAT      O 2350   9.455   2.613   5.417
  703WAT     H1 2351   9.503   2.662   5.344
  703WAT     H2 2352   9.364   2.651   5.430
  704WAT      O 2353   9.616   8.896   8.567
  704WAT     H1 2354   9.540   8.867   8.626
  704WAT     H2 2355   9.621   8.995   8.566
  705WAT      O 2356   4.345   3.033   4.312
  705WAT     H1 2357   4.369   2.955   4.255
  705WAT     H2 2358   4.265   3.079   4.274
  706WAT      O 2359   7.716   7.955   9.179
  706WAT     H1 2360   7.813   7.929   9.177
  706WAT     H2 2361   7.705   8.033   9.242
  707WAT      O 2362   1.249   2.672   3.216
  707WAT     H1 2363   1.186   2.604   3.180
  707WAT     H2 2364   1.262   2.745   3.148
  708WAT      O 2365   3.500   0.888   9.664
  708WAT     H1 2366   3.405   0.878   9.695
  708WAT     H2 2367   3.518   0.823   9.590
  709WAT      O 2368   7.966   4.158   4.542
  709WAT     H1 2369   7.967   4.237   4.603
  709WAT     H2 2370   7.992   4.076   4.594
  710WAT      O 2371   1.096   6.421   2.610
  710WAT     H1 2372   1.094   6.473   2.524
  710WAT     H2 2373   1.189   6.418   2.645
  711WAT      O 2374   3.999   9.338   8.700
  711WAT     H1 2375   4.077   9.301   8.750
  711WAT     H2 2376   3.944   9.394   8.762
  712WAT      O 2377   9.120   0.945   9.427
  712WAT     H1 2378   9.061   1.025   9.425
  712WAT     H2 2379   9.216   0.973   9.430
  713WAT      O 2380   4.499   1.121   5.846
  713WAT     H1 2381   4.547   1.182   5.908
  713WAT     H2 2382   4.404   1.152   5.835
  714WAT      O 2383   2.339   7.312   0.932
  714WAT     H1 2384   2.373   7.364   0.854
  714WAT     H2 2385   2.354   7.214   0.916
  715WAT      O 2386   4.059   2.452   3.368
  715WAT     H1 2387   3.998   2.530   3.361
  715WAT     H2 2388   4.092   2.427   3.277
  716WAT      O 2389   7.396   5.103   8.283
  716WAT     H1 2390   7.437   5.168   8.220
  716WAT     H2 2391   7.407   5.010   8.248
  717WAT      O 2392   4.414   5.895   9.286
  717WAT     H1 2393   4.432   5.946   9.370
  717WAT     H2 2394   4.319   5.865   9.284
  718WAT      O 2395   6.032   9.222   0.555
  718WAT     H1 2396   6.052   9.174   0.469
  718WAT     H2 2397   6.116   9.263   0.590
  719WAT      O 2398   3.949   2.852   1.289
  719WAT     H1 2399   3.891   2.773   1.268
  719WAT     H2 2400   4.036   2.843   1.241
  720WAT      O 2401   9.591   3.419   2.311
  720WAT     H1 2402   9.626   3.391   2.221
  720WAT     H2 2403   9.523   3.491   2.300
  721WAT      O 2404   5.342   5.422   1.887
  721WAT     H1 2405   5.245   5.437   1.910
  721WAT     H2 2406   5.348   5.368   1.803
  722WAT      O 2407   7.428   3.600   9.885
  722WAT     H1 2408   7.334   3.632   9.870
  722WAT     H2 2409   7.449   3.526   9.821
  723WAT      O 2410   2.179   3.029   7.489
  723WAT     H1 2411   2.248   3.089   7.450
  723WAT     H2 2412   2.090   3.075   7.487
  724WAT      O 2413   5.008   4.329   1.726
  724WAT     H1 2414   5.017   4.312   1.628
  724WAT     H2 2415   4.922   4.378   1.744
  725WAT      O 2416   1.277   1.854   8.202
  725WAT     H1 2417   1.277   1.866   8.301
  725WAT     H2 2418   1.347   1.788   8.176
  726WAT      O 2419   1.137   8.150   7.640
  726WAT     H1 2420   1.100   8.236   7.677
  726WAT     H2 2421   1.063   8.083   7.632
  727WAT      O 2422   7.016   3.821   9.507
  727WAT     H1 2423   6.924   3.783   9.522
  727WAT     H2 2424   7.009   3.902   9.448
  728WAT      O 2425   9.273   0.165   4.726
  728WAT     H1 2426   9.297   0.135   4.633
  728WAT     H2 2427   9.186   0.214   4.723
  729WAT      O 2428   3.750   5.549   7.814
  729WAT     H1 2429   3.739   5.628   7.755
  729WAT     H2 2430   3.680   5.551   7.886
  730WAT      O 2431   4.909   0.330   2.158
  730WAT     H1 2432   5.008   0.318   2.160
  730WAT     H2 2433   4.874   0.330   2.252
  731WAT      O 2434   3.240   8.851   3.918
  731WAT     H1 2435   3.311   8.921   3.924
  731WAT     H2 2436   3.167   8.883   3.857
  732WAT      O 2437   8.070   2.911   7.886
  732WAT     H1 2438   8.055   2.959   7.972
  732WAT     H2 2439   8.024   2.822   7.888
  733WAT      O 2440   5.006   4.227   9.725
  733WAT     H1 2441   5.050   4.182   9.803
  733WAT     H2 2442   4.952   4.160   9.674
  734WAT      O 2443   2.228   4.859   7.267
  734WAT     H1 2444   2.327   4.861   7.281
  734WAT     H2 2445   2.195   4.765   7.276
  735WAT      O 2446   2.741   0.978   7.961
  735WAT     H1 2447   2.790   1.048   7.908
  735WAT     H2 2448   2.724   1.012   8.053
  736WAT      O 2449   7.891   7.439   3.156
  736WAT     H1 2450   7.813   7.479   3.203
  736WAT     H2 2451   7.866   7.351   3.116
  737WAT      O 2452   5.698   0.637   5.383
  737WAT     H1 2453   5.671   0.706   5.316
  737WAT     H2 2454   5.627   0.629   5.453
  738WAT      O 2455   2.748   5.135   9.356
  738WAT     H1 2456   2.650   5.116   9.356
  738WAT     H2 2457   2.782   5.135   9.450
  739WAT      O 2458   7.102   8.303   2.066
  739WAT     H1 2459   7.101   8.403   2.076
  739WAT     H2 2460   7.159   8.278   1.988
  740WAT      O 2461   9.505   0.115   1.068
  740WAT     H1 2462   9.513   0.016   1.082
  740WAT     H2 2463   9.563   0.142   0.991
  741WAT      O 2464   4.339   1.128   2.967
  741WAT     H1 2465   4.391   1.105   2.885
  741WAT     H2 2466   4.365   1.220   2.998
  742WAT      O 2467   6.870   1.944   5.632
  742WAT     H1 2468   6.849   2.011   5.704
  742WAT     H2 2469   6.967   1.947   5.611
  743WAT      O 2470   6.163   8.212   8.180
  743WAT     H1 2471   6.218   8.135   8.147
  743WAT     H2 2472   6.172   8.289   8.117
  744WAT      O 2473   4.554   8.739   8.177
  744WAT     H1 2474   4.610   8.692   8.108
  744WAT     H2 2475   4.584   8.834   8.184
  745WAT      O 2476   3.570   4.508   0.846
  745WAT     H1 2477   3.491   4.562   0.874
  745WAT     H2 2478   3.654   4.552   0.879
  746WAT      O 2479   0.492   7.451   4.380
  746WAT     H1 2480   0.392   7.460   4.375
  746WAT     H2 2481   0.533   7.542   4.384
  747WAT      O 2482   3.387   7.437   7.621
  747WAT     H1 2483   3.296   7.409   7.589
  747WAT     H2 2484   3.378   7.495   7.701
  748WAT      O 2485   9.737   2.586   3.366
  748WAT     H1 2486   9.734   2.581   3.267
  748WAT     H2 2487   9.832   2.593   3.397
  749WAT      O 2488   4.973   5.249   9.315
  749WAT     H1 2489   4.975   5.347   9.334
  749WAT     H2 2490   4.948   5.199   9.398
  750WAT      O 2491   7.880   1.371   6.739
  750WAT     H1 2492   7.980   1.378   6.738
  750WAT     H2 2493   7.846   1.375   6.645
  751WAT      O 2494   8.486   5.234   8.779
  751WAT     H1 2495   8.463   5.141   8.749
  751WAT     H2 2496   8.440   5.300   8.720
  752WAT      O 2497   3.870   9.470   2.425
  752WAT     H1 2498   3.901   9.392   2.370
  752WAT     H2 2499   3.883   9.554   2.372
  753WAT      O 2500   6.052   0.585   4.680
  753WAT     H1 2501   6.010   0.525   4.611
  753WAT     H2 2502   6.019   0.678   4.668
  754WAT      O 2503   8.224   3.759   1.283
  754WAT     H1 2504   8.138   3.804   1.308
  754WAT     H2 2505   8.300   3.823   1.295
  755WAT      O 2506   6.821   0.081   2.884
  755WAT     H1 2507   6.738   0.038   2.849
  755WAT     H2 2508   6.900   0.051   2.831
  756WAT      O 2509   3.435   4.369   4.130
  756WAT     H1 2510   3.380   4.371   4.046
  756WAT     H2 2511   3.457   4.274   4.153
  757WAT      O 2512   0.636   5.118   1.903
  757WAT     H1 2513   0.680   5.069   1.978
  757WAT     H2 2514   0.705   5.163   1.847
  758WAT      O 2515   0.312   7.460   9.324
  758WAT     H1 2516   0.292   7.543   9.375
  758WAT     H2 2517   0.350   7.391   9.385
  759WAT      O 2518   2.222   9.373   6.791
  759WAT     H1 2519   2.161   9.294   6.790
  759WAT     H2 2520   2.284   9.367   6.869
  760WAT      O 2521   9.022   1.399   2.042
  760WAT     H1 2522   8.937   1.349   2.026
  760WAT     H2 2523   9.018   1.488   1.996
  761WAT      O 2524   5.056   1.025   4.596
  761WAT     H1 2525   5.093   1.058   4.683
  761WAT     H2 2526   5.030   1.103   4.540
  762WAT      O 2527   1.539   5.439   1.536
  762WAT     H1 2528   1.572   5.459   1.628
  762WAT     H2 2529   1.491   5.352   1.536
  763WAT      O 2530   9.005   8.910   5.870
  763WAT     H1 2531   9.038   8.998   5.835
  763WAT     H2 2532   8.905   8.913   5.878
  764WAT      O 2533   6.214   6.367   4.429
  764WAT     H1 2534   6.258   6.285   4.392
  764WAT     H2 2535   6.271   6.406   4.501
  765WAT      O 2536   4.199   7.089   4.211
  765WAT     H1 2537   4.145   7.005   4.209
  765WAT     H2 2538   4.137   7.168   4.211
  766WAT      O 2539   5.204   9.310   8.643
  766WAT     H1 2540   5.283   9.269   8.689
  766WAT     H2 2541   5.236   9.378   8.576
  767WAT      O 2542   6.962   5.238   0.429
  767WAT     H1 2543   7.045   5.184   0.410
  767WAT     H2 2544   6.907   5.243   0.345
  768WAT      O 2545   2.728   7.899   5.765
  768WAT     H1 2546   2.723   7.803   5.737
  768WAT     H2 2547   2.658   7.917   5.834
  769WAT      O 2548   7.407   7.817   7.382
  769WAT     H1 2549   7.393   7.873   7.300
  769WAT     H2 2550   7.421   7.722   7.356
  770WAT      O 2551   5.199   8.380   7.514
  770WAT     H1 2552   5.206   8.315   7.439
  770WAT     H2 2553   5.189   8.472   7.478
  771WAT      O 2554   4.470   2.791   5.190
  771WAT     H1 2555   4.514   2.706   5.217
  771WAT     H2 2556   4.412   2.774   5.109
  772WAT      O 2557   7.820   0.833   0.337
  772WAT     H1 2558   7.864   0.744   0.350
  772WAT     H2 2559   7.783   0.839   0.244
  773WAT      O 2560   5.670   5.817   9.169
  773WAT     H1 2561   5.700   5.878   9.242
  773WAT     H2 2562   5.572   5.828   9.155
  774WAT      O 2563   8.522   2.363   7.909
  774WAT     H1 2564   8.595   2.308   7.869
  774WAT     H2 2565   8.485   2.316   7.989
  775WAT      O 2566   0.571   6.128   4.820
  775WAT     H1 2567   0.630   6.199   4.782
  775WAT     H2 2568   0.529   6.161   4.904
  776WAT      O 2569   8.445   0.306   0.321
  776WAT     H1 2570   8.451   0.281   0.417
  776WAT     H2 2571   8.352   0.335   0.299
  777WAT      O 2572   4.703   4.570   0.525
  777WAT     H1 2573   4.743   4.661   0.515
  777WAT     H2 2574   4.620   4.576   0.580
  778WAT      O 2575   1.335   9.821   5.709
  778WAT     H1 2576   1.242   9.792   5.686
  778WAT     H2 2577   1.332   9.912   5.750
  779WAT      O 2578   5.442   4.086   6.671
  779WAT     H1 2579   5.461   4.126   6.581
  779WAT     H2 2580   5.346   4.056   6.675
  780WAT      O 2581   4.229   0.179   6.489
  780WAT     H1 2582   4.312   0.232   6.508
  780WAT     H2 2583   4.210   0.183   6.391
  781WAT      O 2584   9.063   6.118   2.446
  781WAT     H1 2585   9.072   6.218   2.443
  781WAT     H2 2586   8.977   6.091   2.402
  782WAT      O 2587   9.814   9.413   3.616
  782WAT     H1 2588   9.860   9.325   3.616
  782WAT     H2 2589   9.730   9.407   3.670
  783WAT      O 2590   1.444   9.191   8.617
  783WAT     H1 2591   1.381   9.208   8.541
  783WAT     H2 2592   1.473   9.278   8.656
  784WAT      O 2593   4.651   1.101   1.776
  784WAT     H1 2594   4.664   1.003   1.759
  784WAT     H2 2595   4.554   1.124   1.762
  785WAT      O 2596   2.817   4.319   3.842
  785WAT     H1 2597   2.790   4.310   3.747
  785WAT     H2 2598   2.897   4.378   3.849
  786WAT      O 2599   0.888   6.290   4.153
  786WAT     H1 2600   0.916   6.372   4.203
  786WAT     H2 2601   0.876   6.312   4.056
  787WAT      O 2602   0.587   0.808   6.231
  787WAT     H1 2603   0.575   0.904   6.205
  787WAT     H2 2604   0.576   0.798   6.330
  788WAT      O 2605   0.830   6.109   9.319
  788WAT     H1 2606   0.747   6.062   9.290
  788WAT     H2 2607   0.842   6.098   9.417
  789WAT      O 2608   8.179   7.945   8.976
  789WAT     H1 2609   8.204   8.021   9.035
  789WAT     H2 2610   8.089   7.961   8.936
  790WAT      O 2611   9.593   0.777   1.959
  790WAT     H1 2612   9.509   0.790   1.906
  790WAT     H2 2613   9.577   0.806   2.053
  791WAT      O 2614   4.463   4.188   8.495
  791WAT     H1 2615   4.514   4.103   8.484
  791WAT     H2 2616   4.480   4.225   8.587
  792WAT      O 2617   2.733   5.807   7.527
  792WAT     H1 2618   2.654   5.751   7.501
  792WAT     H2 2619   2.727   5.831   7.624
  793WAT      O 2620   2.695   1.129   6.721
  793WAT     H1 2621   2.740   1.040   6.734
  793WAT     H2 2622   2.710   1.161   6.627
  794WAT      O 2623   2.298   4.768   2.973
  794WAT     H1 2624   2.327   4.825   3.050
  794WAT     H2 2625   2.378   4.737   2.922
  795WAT      O 2626   8.181   9.843   9.763
  795WAT     H1 2627   8.231   9.765   9.801
  795WAT     H2 2628   8.083   9.825   9.765
  796WAT      O 2629   1.799   3.213   6.401
  796WAT     H1 2630   1.797   3.285   6.332
  796WAT     H2 2631   1.797   3.255   6.493
  797WAT      O 2632   7.264   6.015   4.273
  797WAT     H1 2633   7.211   6.078   4.330
  797WAT     H2 2634   7.357   6.009   4.309
  798WAT      O 2635   9.330   7.246   4.722
  798WAT     H1 2636   9.345   7.319   4.656
  798WAT     H2 2637   9.379   7.163   4.693
  799WAT      O 2638   5.804   6.181   0.611
  799WAT     H1 2639   5.900   6.173   0.587
  799WAT     H2 2640   5.795   6.201   0.709
  800WAT      O 2641   2.574   3.224   2.137
  800WAT     H1 2642   2.617   3.255   2.222
  800WAT     H2 2643   2.645   3.185   2.077
  801WAT      O 2644   2.779   2.372   5.395
  801WAT     H1 2645   2.775   2.344   5.491
  801WAT     H2 2646   2.693   2.416   5.370
  802WAT      O 2647   3.507   5.552   0.071
  802WAT     H1 2648   3.590   5.497   0.068
  802WAT     H2 2649   3.493   5.585   0.165
  803WAT      O 2650   6.664   7.723   9.386
  803WAT     H1 2651   6.722   7.731   9.305
  803WAT     H2 2652   6.712   7.671   9.456
  804WAT      O 2653   5.222   5.834   6.489
  804WAT     H1 2654   5.166   5.756   6.462
  804WAT     H2 2655   5.172   5.919   6.472
  805WAT      O 2656   0.323   8.966   7.847
  805WAT     H1 2657   0.371   8.883   7.817
  805WAT     H2 2658   0.229   8.964   7.814
  806WAT      O 2659   5.856   3.581   2.960
  806WAT     H1 2660   5.900   3.571   2.871
  806WAT     H2 2661   5.885   3.666   3.003
  807WAT      O 2662   1.167   9.403   0.071
  807WAT     H1 2663   1.118   9.480   0.031
  807WAT     H2 2664   1.108   9.322   0.069
  808WAT      O 2665   0.866   8.809   6.894
  808WAT     H1 2666   0.895   8.714   6.883
  808WAT     H2 2667   0.917   8.867   6.829
  809WAT      O 2668   0.938   2.114   6.174
  809WAT     H1 2669   0.873   2.187   6.151
  809WAT     H2 2670   0.906   2.028   6.135
  810WAT      O 2671   0.409   7.990   9.148
  810WAT     H1 2672   0.469   7.959   9.074
  810WAT     H2 2673   0.324   7.936   9.147
  811WAT      O 2674   9.595   7.366   9.501
  811WAT     H1 2675   9.552   7.383   9.589
  811WAT     H2 2676   9.675   7.426   9.491
  812WAT      O 2677   0.347   2.150   1.955
  812WAT     H1 2678   0.339   2.182   2.049
  812WAT     H2 2679   0.301   2.062   1.945
  813WAT      O 2680   3.264   2.546   8.004
  813WAT     H1 2681   3.304   2.454   8.003
  813WAT     H2 2682   3.170   2.540   8.037
  814WAT      O 2683   1.252   3.860   4.176
  814WAT     H1 2684   1.289   3.808   4.253
  814WAT     H2 2685   1.315   3.853   4.098
  815WAT      O 2686   3.104   8.424   1.559
  815WAT     H1 2687   3.181   8.385   1.510
  815WAT     H2 2688   3.128   8.514   1.594
  816WAT      O 2689   1.486   5.421   4.309
  816WAT     H1 2690   1.441   5.333   4.326
  816WAT     H2 2691   1.561   5.408   4.245
  817WAT      O 2692   0.355   3.808   5.808
  817WAT     H1 2693   0.350   3.811   5.907
  817WAT     H2 2694   0.404   3.888   5.774
  818WAT      O 2695   7.873   6.531   5.713
  818WAT     H1 2696   7.812   6.532   5.793
  818WAT     H2 2697   7.827   6.574   5.635
  819WAT      O 2698   6.760   7.797   0.025
  819WAT     H1 2699   6.668   7.760   0.010
  819WAT     H2 2700   6.763   7.892  -0.006
  820WAT      O 2701   4.276   9.325   1.574
  820WAT     H1 2702   4.244   9.234   1.548
  820WAT     H2 2703   4.235   9.394   1.514
  821WAT      O 2704   0.580   1.528   9.396
  821WAT     H1 2705   0.536   1.465   9.460
  821WAT     H2 2706   0.661   1.484   9.356
  822WAT      O 2707   2.669   5.245   7.965
  822WAT     H1 2708   2.767   5.237   7.982
  822WAT     H2 2709   2.621   5.167   8.006
  823WAT      O 2710   9.446   9.704   4.000
  823WAT     H1 2711   9.528   9.702   3.943
  823WAT     H2 2712   9.449   9.629   4.066
  824WAT      O 2713   3.177   5.382   1.902
  824WAT     H1 2714   3.163   5.336   1.989
  824WAT     H2 2715   3.172   5.481   1.914
  825WAT      O 2716   9.053   0.938   8.232
  825WAT     H1 2717   9.152   0.934   8.223
  825WAT     H2 2718   9.029   0.988   8.315
  826WAT      O 2719   6.277   2.119   1.511
  826WAT     H1 2720   6.223   2.177   1.572
  826WAT     H2 2721   6.348   2.175   1.467
  827WAT      O 2722   1.279   7.646   5.197
  827WAT     H1 2723   1.361   7.703   5.190
  827WAT     H2 2724   1.236   7.662   5.286
  828WAT      O 2725   8.386   7.556   6.798
  828WAT     H1 2726   8.362   7.653   6.796
  828WAT     H2 2727   8.303   7.501   6.783
  829WAT      O 2728   5.130   5.629   8.379
  829WAT     H1 2729   5.177   5.605   8.294
  829WAT     H2 2730   5.103   5.545   8.427
  830WAT      O 2731   1.543   5.313   1.930
  830WAT     H1 2732   1.444   5.300   1.943
  830WAT     H2 2733   1.593   5.253   1.992
  831WAT      O 2734   6.188   2.679   1.013
  831WAT     H1 2735   6.098   2.637   0.998
  831WAT     H2 2736   6.258   2.626   0.965
  832WAT      O 2737   0.233   1.588   0.223
  832WAT     H1 2738   0.323   1.632   0.233
  832WAT     H2 2739   0.162   1.658   0.216
  833WAT      O 2740   6.175   2.518   2.336
  833WAT     H1 2741   6.141   2.441   2.282
  833WAT     H2 2742   6.176   2.601   2.280
  834WAT      O 2743   6.975   5.016   4.460
  834WAT     H1 2744   6.892   4.963   4.442
  834WAT     H2 2745   6.955   5.088   4.527
  835WAT      O 2746   2.638   9.470   2.229
  835WAT     H1 2747   2.567   9.482   2.298
  835WAT     H2 2748   2.595   9.457   2.139
  836WAT      O 2749   7.413   7.569   9.721
  836WAT     H1 2750   7.412   7.648   9.783
  836WAT     H2 2751   7.464   7.593   9.639
  837WAT      O 2752   0.567   0.351   9.770
  837WAT     H1 2753   0.493   0.390   9.716
  837WAT     H2 2754   0.584   0.257   9.741
  838WAT      O 2755   2.842   1.594   5.362
  838WAT     H1 2756   2.784   1.600   5.444
  838WAT     H2 2757   2.906   1.518   5.372
  839WAT      O 2758   0.340   7.018   7.418
  839WAT     H1 2759   0.365   7.105   7.377
  839WAT     H2 2760   0.241   7.007   7.417
  840WAT      O 2761   0.017   3.208   8.006
  840WAT     H1 2762   0.103   3.260   8.003
  840WAT     H2 2763  -0.035   3.236   8.086
  841WAT      O 2764   8.590   2.353   5.342
  841WAT     H1 2765   8.623   2.366   5.435
  841WAT     H2 2766   8.508   2.409   5.327
  842WAT      O 2767   1.013   7.128   1.273
  842WAT     H1 2768   1.056   7.218   1.285
  842WAT     H2 2769   0.976   7.098   1.361
  843WAT      O 2770   5.476   3.422   4.446
  843WAT     H1 2771   5.430   3.333   4.454
  843WAT     H2 2772   5.573   3.408   4.426
  844WAT      O 2773   7.505   1.187   2.142
  844WAT     H1 2774   7.479   1.230   2.228
  844WAT     H2 2775   7.595   1.145   2.151
  845WAT      O 2776   4.904   0.329   8.785
  845WAT     H1 2777   4.984   0.351   8.841
  845WAT     H2 2778   4.830   0.295   8.843
  846WAT      O 2779   2.613   2.595   0.258
  846WAT     H1 2780   2.612   2.566   0.162
  846WAT     H2 2781   2.520   2.616   0.287
  847WAT      O 2782   1.657   5.456   4.121
  847WAT     H1 2783   1.751   5.472   4.089
  847WAT     H2 2784   1.601   5.425   4.045
  848WAT      O 2785   7.519   1.667   6.294
  848WAT     H1 2786   7.528   1.587   6.233
  848WAT     H2 2787   7.440   1.721   6.267
  849WAT      O 2788   8.992   1.062   8.489
  849WAT     H1 2789   9.026   1.075   8.582
  849WAT     H2 2790   8.892   1.053   8.490
  850WAT      O 2791   0.079   3.163   5.514
  850WAT     H1 2792  -0.003   3.181   5.569
  850WAT     H2 2793   0.113   3.250   5.477
  851WAT      O 2794   9.791   2.775   2.468
  851WAT     H1 2795   9.754   2.859   2.428
  851WAT     H2 2796   9.718   2.706   2.474
  852WAT      O 2797   8.428   0.558   7.535
  852WAT     H1 2798   8.380   0.503   7.603
  852WAT     H2 2799   8.455   0.500   7.459
  853WAT      O 2800   2.296   9.809   3.493
  853WAT     H1 2801   2.369   9.776   3.553
  853WAT     H2 2802   2.310   9.774   3.400
  854WAT      O 2803   7.803   3.720   4.995
  854WAT     H1 2804   7.753   3.640   4.962
  854WAT     H2 2805   7.900   3.696   5.006
  855WAT      O 2806   0.502   0.461   5.484
  855WAT     H1 2807   0.417   0.472   5.536
  855WAT     H2 2808   0.498   0.376   5.431
  856WAT      O 2809   7.662   1.418   9.713
  856WAT     H1 2810   7.613   1.330   9.708
  856WAT     H2 2811   7.744   1.414   9.657
  857WAT      O 2812   5.193   1.274   5.111
  857WAT     H1 2813   5.131   1.227   5.174
  857WAT     H2 2814   5.267   1.211   5.085
  858WAT      O 2815   8.724   5.263   2.357
  858WAT     H1 2816   8.814   5.236   2.322
  858WAT     H2 2817   8.658   5.266   2.283
  859WAT      O 2818   1.501   4.931   1.396
  859WAT     H1 2819   1.582   4.908   1.343
  859WAT     H2 2820   1.428   4.961   1.333
  860WAT      O 2821   3.989   0.880   2.253
  860WAT     H1 2822   4.011   0.966   2.299
  860WAT     H2 2823   4.053   0.809   2.283
  861WAT      O 2824   2.154   7.059   6.971
  861WAT     H1 2825   2.173   6.965   6.999
  861WAT     H2 2826   2.066   7.061   6.923
  862WAT      O 2827   4.475   8.457   6.291
  862WAT     H1 2828   4.570   8.485   6.305
  862WAT     H2 2829   4.450   8.389   6.360
  863WAT      O 2830   9.164   6.099   8.773
  863WAT     H1 2831   9.145   6.055   8.685
  863WAT     H2 2832   9.216   6.183   8.757
  864WAT      O 2833   9.756   6.840   5.984
  864WAT     H1 2834   9.809   6.923   5.965
  864WAT     H2 2835   9.678   6.864   6.042
  865WAT      O 2836   6.067   5.741   5.340
  865WAT     H1 2837   6.023   5.741   5.250
  865WAT     H2 2838   6.109   5.830   5.357
  866WAT      O 2839   5.496   7.957   0.199
  866WAT     H1 2840   5.444   7.990   0.278
  866WAT     H2 2841   5.437   7.955   0.118
  867WAT      O 2842   3.306   0.114   7.162
  867WAT     H1 2843   3.259   0.028   7.181
  867WAT     H2 2844   3.248   0.190   7.194
  868WAT      O 2845   6.078   0.795   3.568
  868WAT     H1 2846   5.998   0.738   3.589
  868WAT     H2 2847   6.159   0.754   3.610
  869WAT      O 2848   3.703   3.407   5.881
  869WAT     H1 2849   3.790   3.358   5.884
  869WAT     H2 2850   3.714   3.496   5.925
  870WAT      O 2851   4.996   3.909   9.116
  870WAT     H1 2852   4.935   3.862   9.179
  870WAT     H2 2853   4.942   3.966   9.053
  871WAT      O 2854   4.835   7.784   4.635
  871WAT     H1 2855   4.874   7.843   4.706
  871WAT     H2 2856   4.905   7.762   4.568
  872WAT      O 2857   4.083   1.822   0.975
  872WAT     H1 2858   4.025   1.850   1.051
  872WAT     H2 2859   4.164   1.881   0.971
  873WAT      O 2860   7.908   0.695   5.451
  873WAT     H1 2861   7.981   0.763   5.463
  873WAT     H2 2862   7.915   0.655   5.359
  874WAT      O 2863   3.207   6.455   4.779
  874WAT     H1 2864   3.289   6.510   4.794
  874WAT     H2 2865   3.234   6.366   4.741
  875WAT      O 2866   8.423   2.664   3.747
  875WAT     H1 2867   8.479   2.735   3.789
  875WAT     H2 2868   8.377   2.611   3.818
  876WAT      O 2869   8.853   4.384   0.174
  876WAT     H1 2870   8.764   4.348   0.145
  876WAT     H2 2871   8.883   4.336   0.256
  877WAT      O 2872   5.827   3.657   2.328
  877WAT     H1 2873   5.923   3.628   2.329
  877WAT     H2 2874   5.819   3.746   2.283
  878WAT      O 2875   7.271   1.357   8.028
  878WAT     H1 2876   7.218   1.424   8.079
  878WAT     H2 2877   7.288   1.391   7.935
  879WAT      O 2878   3.773   5.988   7.870
  879WAT     H1 2879   3.764   6.078   7.912
  879WAT     H2 2880   3.866   5.954   7.883
  880WAT      O 2881   0.067   7.763   1.852
  880WAT     H1 2882   0.088   7.848   1.803
  880WAT     H2 2883  -0.027   7.736   1.831
  881WAT      O 2884   5.246   8.650   8.002
  881WAT     H1 2885   5.174   8.677   8.065
  881WAT     H2 2886   5.220   8.676   7.909
  882WAT      O 2887   4.244   8.752   7.826
  882WAT     H1 2888   4.207   8.760   7.733
  882WAT     H2 2889   4.342   8.732   7.821
  883WAT      O 2890   3.481   3.626   4.883
  883WAT     H1 2891   3.561   3.591   4.930
  883WAT     H2 2892   3.398   3.585   4.923
  884WAT      O 2893   4.345   7.418   0.285
  884WAT     H1 2894   4.430   7.377   0.251
  884WAT     H2 2895   4.267   7.375   0.240
  885WAT      O 2896   6.275   3.214   0.308
  885WAT     H1 2897   6.351   3.150   0.321
  885WAT     H2 2898   6.200   3.167   0.261
  886WAT      O 2899   4.805   5.447   0.573
  886WAT     H1 2900   4.753   5.532   0.580
  886WAT     H2 2901   4.759   5.375   0.624
  887WAT      O 2902   0.905   2.946   5.355
  887WAT     H1 2903   0.843   3.010   5.310
  887WAT     H2 2904   0.996   2.986   5.363
  888WAT      O 2905   3.576   9.193   8.825
  888WAT     H1 2906   3.556   9.273   8.768
  888WAT     H2 2907   3.656   9.145   8.788
  889WAT      O 2908   0.874   1.404   4.774
  889WAT     H1 2909   0.855   1.313   4.736
  889WAT     H2 2910   0.969   1.429   4.753
  890WAT      O 2911   3.391   8.780   3.540
  890WAT     H1 2912   3.421   8.788   3.445
  890WAT     H2 2913   3.464   8.812   3.601
  891WAT      O 2914   2.261   5.910   9.288
  891WAT     H1 2915   2.186   5.877   9.345
  891WAT     H2 2916   2.270   5.851   9.207
  892WAT      O 2917   9.136   4.521   7.353
  892WAT     H1 2918   9.175   4.510   7.261
  892WAT     H2 2919   9.208   4.552   7.416
  893WAT      O 2920   1.067   5.329   3.715
  893WAT     H1 2921   1.099   5.424   3.712
  893WAT     H2 2922   1.057   5.301   3.811
  894WAT      O 2923   0.267   4.039   2.807
  894WAT     H1 2924   0.284   4.098   2.886
  894WAT     H2 2925   0.345   4.044   2.744
  895WAT      O 2926   0.806   0.697   1.343
  895WAT     H1 2927   0.734   0.756   1.306
  895WAT     H2 2928   0.766   0.611   1.373
  896WAT      O 2929   5.824   1.339   6.273
  896WAT     H1 2930   5.798   1.422   6.225
  896WAT     H2 2931   5.890   1.361   6.345
  897WAT      O 2932   0.119   7.195   8.138
  897WAT     H1 2933   0.129   7.290   8.166
  897WAT     H2 2934   0.022   7.171   8.136
  898WAT      O 2935   3.387   0.088   1.147
  898WAT     H1 2936   3.469   0.032   1.136
  898WAT     H2 2937   3.308   0.038   1.112
  899WAT      O 2938   5.205   0.092   4.080
  899WAT     H1 2939   5.291   0.041   4.081
  899WAT     H2 2940   5.210   0.164   4.010
  900WAT      O 2941   5.518   8.888   0.791
  900WAT     H1 2942   5.549   8.953   0.721
  900WAT     H2 2943   5.592   8.873   0.858
  901WAT      O 2944   8.460   3.558   3.698
  901WAT     H1 2945   8.453   3.571   3.797
  901WAT     H2 2946   8.396   3.487   3.669
  902WAT      O 2947   8.064   1.076   6.497
  902WAT     H1 2948   8.113   1.107   6.578
  902WAT     H2 2949   7.979   1.032   6.524
  903WAT      O 2950   2.707   3.036   1.321
  903WAT     H1 2951   2.743   3.061   1.231
  903WAT     H2 2952   2.632   3.097   1.345
  904WAT      O 2953   7.255   8.417   0.076
  904WAT     H1 2954   7.215   8.475   0.005
  904WAT     H2 2955   7.223   8.447   0.166
  905WAT      O 2956   3.383   5.712   4.316
  905WAT     H1 2957   3.333   5.789   4.278
  905WAT     H2 2958   3.443   5.673   4.246
  906WAT      O 2959   9.770   7.164   0.845
  906WAT     H1 2960   9.721   7.242   0.883
  906WAT     H2 2961   9.853   7.148   0.898
  907WAT      O 2962   0.740   4.743   1.005
  907WAT     H1 2963   0.742   4.650   0.969
  907WAT     H2 2964   0.692   4.803   0.942
  908WAT      O 2965   2.679   7.965   3.220
  908WAT     H1 2966   2.731   7.891   3.178
  908WAT     H2 2967   2.691   8.049   3.167
  909WAT      O 2968   0.990   8.332   1.931
  909WAT     H1 2969   1.065   8.272   1.960
  909WAT     H2 2970   0.939   8.362   2.011
  910WAT      O 2971   0.102   1.090   4.542
  910WAT     H1 2972   0.101   1.107   4.641
  910WAT     H2 2973   0.170   1.020   4.521
  911WAT      O 2974   0.987   6.619   6.926
  911WAT     H1 2975   1.074   6.574   6.944
  911WAT     H2 2976   0.924   6.602   7.002
  912WAT      O 2977   2.485   4.423   5.971
  912WAT     H1 2978   2.454   4.328   5.960
  912WAT     H2 2979   2.444   4.461   6.054
  913WAT      O 2980   7.099   8.945   4.931
  913WAT     H1 2981   7.172   8.882   4.906
  913WAT     H2 2982   7.130   9.007   5.003
  914WAT      O 2983   7.586   2.146   9.638
  914WAT     H1 2984   7.595   2.122   9.542
  914WAT     H2 2985   7.671   2.189   9.670
  915WAT      O 2986   5.130   6.123   5.387
  915WAT     H1 2987   5.162   6.037   5.426
  915WAT     H2 2988   5.193   6.152   5.314
  916WAT      O 2989   4.446   7.467   4.350
  916WAT     H1 2990   4.546   7.474   4.351
  916WAT     H2 2991   4.420   7.371   4.355
  917WAT      O 2992   4.739   5.463   0.918
  917WAT     H1 2993   4.772   5.549   0.879
  917WAT     H2 2994   4.721   5.398   0.845
  918WAT      O 2995   1.283   9.827   5.189
  918WAT     H1 2996   1.308   9.782   5.103
  918WAT     H2 2997   1.185   9.847   5.188
  919WAT      O 2998   4.275   4.375   2.355
  919WAT     H1 2999   4.248   4.322   2.435
  919WAT     H2 3000   4.338   4.448   2.382
  920WAT      O 3001   2.128   9.736   6.528
  920WAT     H1 3002   2.220   9.758   6.495
  920WAT     H2 3003   2.130   9.724   6.627
  921WAT      O 3004   3.528   2.024   0.707
  921WAT     H1 3005   3.545   2.120   0.727
  921WAT     H2 3006   3.476   1.983   0.781
  922WAT      O 3007   2.796   1.628   3.656
  922WAT     H1 3008   2.707   1.646   3.616
  922WAT     H2 3009   2.856   1.706   3.642
  923WAT      O 3010   4.985   3.479   6.508
  923WAT     H1 3011   5.061   3.414   6.501
  923WAT     H2 3012   4.911   3.450   6.448
  924WAT      O 3013   6.759   4.008   9.269
  924WAT     H1 3014   6.700   4.006   9.188
  924WAT     H2 3015   6.855   4.007   9.241
  925WAT      O 3016   0.542   3.885   7.330
  925WAT     H1 3017   0.561   3.810   7.267
  925WAT     H2 3018   0.568   3.972   7.287
  926WAT      O 3019   4.600   6.045   1.137
  926WAT     H1 3020   4.513   6.053   1.088
  926WAT     H2 3021   4.674   6.032   1.070
  927WAT      O 3022   4.993   9.716   0.154
  927WAT     H1 3023   5.082   9.717   0.199
  927WAT     H2 3024   5.004   9.738   0.057
  928WAT      O 3025   1.282   0.675   5.652
  928WAT     H1 3026   1.230   0.756   5.623
  928WAT     H2 3027   1.218   0.602   5.678
  929WAT      O 3028   4.356   0.374   9.218
  929WAT     H1 3029   4.347   0.433   9.138
  929WAT     H2 3030   4.309   0.287   9.202
  930WAT      O 3031   8.842   6.152   6.996
  930WAT     H1 3032   8.801   6.073   7.041
  930WAT     H2 3033   8.770   6.214   6.964
  931WAT      O 3034   2.346   2.406   8.564
  931WAT     H1 3035   2.407   2.420   8.485
  931WAT     H2 3036   2.259   2.453   8.547
  932WAT      O 3037   1.191   4.188   5.603
  932WAT     H1 3038   1.284   4.214   5.628
  932WAT     H2 3039   1.127   4.225   5.670
  933WAT      O 3040   1.893   0.640   0.010
  933WAT     H1 3041   1.964   0.582   0.050
  933WAT     H2 3042   1.875   0.717   0.072
  934WAT      O 3043   6.105   0.771   8.556
  934WAT     H1 3044   6.023   0.729   8.518
  934WAT     H2 3045   6.080   0.832   8.631
  935WAT      O 3046   8.184   3.055   1.660
  935WAT     H1 3047   8.188   2.987   1.733
  935WAT     H2 3048   8.246   3.130   1.680
  936WAT      O 3049   7.612   0.150   4.325
  936WAT     H1 3050   7.623   0.243   4.357
  936WAT     H2 3051   7.552   0.100   4.388
  937WAT      O 3052   6.008   0.284   4.174
  937WAT     H1 3053   6.089   0.225   4.180
  937WAT     H2 3054   6.036   0.377   4.150
  938WAT      O 3055   4.156   8.588   4.241
  938WAT     H1 3056   4.078   8.560   4.297
  938WAT     H2 3057   4.221   8.513   4.234
  939WAT      O 3058   8.004   6.192   7.493
  939WAT     H1 3059   8.097   6.205   7.459
  939WAT     H2 3060   7.995   6.099   7.531
  940WAT      O 3061   6.660   8.563   5.521
  940WAT     H1 3062   6.691   8.586   5.429
  940WAT     H2 3063   6.565   8.532   5.518
  941WAT      O 3064   3.163   9.786   1.038
  941WAT     H1 3065   3.175   9.720   0.964
  941WAT     H2 3066   3.067   9.811   1.045
  942WAT      O 3067   5.946   7.313   6.348
  942WAT     H1 3068   5.976   7.294   6.255
  942WAT     H2 3069   5.874   7.247   6.374
  943WAT      O 3070   7.449   3.470   2.632
  943WAT     H1 3071   7.397   3.548   2.668
  943WAT     H2 3072   7.498   3.499   2.550
  944WAT      O 3073   2.004   0.471   9.473
  944WAT     H1 3074   2.029   0.567   9.490
  944WAT     H2 3075   2.083   0.412   9.492
  945WAT      O 3076   6.998   5.554   9.743
  945WAT     H1 3077   6.987   5.502   9.658
  945WAT     H2 3078   6.914   5.604   9.762
  946WAT      O 3079   7.319   0.373   3.312
  946WAT     H1 3080   7.291   0.298   3.372
  946WAT     H2 3081   7.238   0.415   3.272
  947WAT      O 3082   8.073   5.820   1.027
  947WAT     H1 3083   8.054   5.863   0.939
  947WAT     H2 3084   8.164   5.779   1.025
  948WAT      O 3085   5.406   4.455   0.776
  948WAT     H1 3086   5.461   4.418   0.851
  948WAT     H2 3087   5.399   4.386   0.703
  949WAT      O 3088   9.479   1.680   8.653
  949WAT     H1 3089   9.566   1.722   8.679
  949WAT     H2 3090   9.479   1.584   8.683
  950WAT      O 3091   3.239   7.920   1.922
  950WAT     H1 3092   3.283   8.005   1.947
  950WAT     H2 3093   3.238   7.858   2.000
  951WAT      O 3094   3.737   5.062   3.586
  951WAT     H1 3095   3.825   5.027   3.620
  951WAT     H2 3096   3.741   5.162   3.582
  952WAT      O 3097   5.589   5.383   6.499
  952WAT     H1 3098   5.606   5.469   6.546
  952WAT     H2 3099   5.520   5.396   6.428
  953WAT      O 3100   8.535   8.781   2.874
  953WAT     H1 3101   8.476   8.741   2.804
  953WAT     H2 3102   8.623   8.806   2.834
  954WAT      O 3103   5.905   8.350   4.678
  954WAT     H1 3104   5.938   8.442   4.702
  954WAT     H2 3105   5.951   8.282   4.736
  955WAT      O 3106   9.550   5.025   1.888
  955WAT     H1 3107   9.530   4.987   1.798
  955WAT     H2 3108   9.464   5.032   1.940
  956WAT      O 3109   0.275   7.185   0.371
  956WAT     H1 3110   0.216   7.238   0.432
  956WAT     H2 3111   0.228   7.170   0.284
  957WAT      O 3112   0.418   7.998   7.148
  957WAT     H1 3113   0.472   8.065   7.097
  957WAT     H2 3114   0.474   7.916   7.164
  958WAT      O 3115   3.042   9.190   3.850
  958WAT     H1 3116   3.081   9.227   3.766
  958WAT     H2 3117   3.104   9.211   3.927
  959WAT      O 3118   1.856   6.061   7.184
  959WAT     H1 3119   1.793   6.095   7.114
  959WAT     H2 3120   1.897   5.976   7.153
  960WAT      O 3121   7.213   2.310   2.805
  960WAT     H1 3122   7.117   2.296   2.779
  960WAT     H2 3123   7.230   2.408   2.814
  961WAT      O 3124   4.005   7.101   6.261
  961WAT     H1 3125   4.015   7.054   6.174
  961WAT     H2 3126   4.081   7.163   6.275
  962WAT      O 3127   8.820   2.955   3.507
  962WAT     H1 3128   8.905   3.005   3.525
  962WAT     H2 3129   8.821   2.869   3.559
  963WAT      O 3130   6.662   0.256   4.394
  963WAT     H1 3131   6.737   0.227   4.454
  963WAT     H2 3132   6.646   0.354   4.405
  964WAT      O 3133   8.399   7.991   7.559
  964WAT     H1 3134   8.406   7.966   7.656
  964WAT     H2 3135   8.332   7.932   7.514
  965WAT      O 3136   9.041   9.674   8.546
  965WAT     H1 3137   9.078   9.591   8.504
  965WAT     H2 3138   9.103   9.706   8.618
  966WAT      O 3139   1.416   1.254   0.699
  966WAT     H1 3140   1.319   1.246   0.721
  966WAT     H2 3141   1.447   1.348   0.718
  967WAT      O 3142   9.139   0.202   3.546
  967WAT     H1 3143   9.183   0.287   3.516
  967WAT     H2 3144   9.063   0.224   3.608
  968WAT      O 3145   1.712   2.484   5.345
  968WAT     H1 3146   1.776   2.526   5.282
  968WAT     H2 3147   1.737   2.507   5.439
  969WAT      O 3148   3.558   7.175   5.428
  969WAT     H1 3149   3.561   7.198   5.525
  969WAT     H2 3150   3.477   7.216   5.386
  970WAT      O 3151   8.544   0.034   0.452
  970WAT     H1 3152   8.449   0.004   0.444
  970WAT     H2 3153   8.550   0.107   0.520
  971WAT      O 3154   1.500   1.516   1.370
  971WAT     H1 3155   1.597   1.512   1.392
  971WAT     H2 3156   1.448   1.464   1.437
  972WAT      O 3157   6.173   9.233   7.866
  972WAT     H1 3158   6.084   9.255   7.907
  972WAT     H2 3159   6.163   9.223   7.767
  973WAT      O 3160   1.301   0.410   9.630
  973WAT     H1 3161   1.337   0.429   9.721
  973WAT     H2 3162   1.247   0.489   9.599
  974WAT      O 3163   6.572   1.298   3.506
  974WAT     H1 3164   6.526   1.375   3.460
  974WAT     H2 3165   6.512   1.218   3.506
  975WAT      O 3166   1.182   9.461   9.146
  975WAT     H1 3167   1.180   9.559   9.164
  975WAT     H2 3168   1.192   9.445   9.048
  976WAT      O 3169   4.357   0.008   0.885
  976WAT     H1 3170   4.405  -0.014   0.970
  976WAT     H2 3171   4.298   0.087   0.900
  977WAT      O 3172   0.314   8.255   4.063
  977WAT     H1 3173   0.358   8.276   4.150
  977WAT     H2 3174   0.217   8.279   4.067
  978WAT      O 3175   5.384   2.560   0.196
  978WAT     H1 3176   5.368   2.650   0.155
  978WAT     H2 3177   5.297   2.524   0.230
  979WAT      O 3178   2.185   1.572   3.860
  979WAT     H1 3179   2.197   1.536   3.952
  979WAT     H2 3180   2.109   1.637   3.860
  980WAT      O 3181   6.451   0.020   8.177
  980WAT     H1 3182   6.435   0.104   8.229
  980WAT     H2 3183   6.511  -0.041   8.229
  981WAT      O 3184   7.465   2.374   3.753
  981WAT     H1 3185   7.520   2.342   3.676
  981WAT     H2 3186   7.464   2.304   3.825
  982WAT      O 3187   8.109   7.049   7.285
  982WAT     H1 3188   8.127   7.132   7.231
  982WAT     H2 3189   8.168   7.048   7.366
  983WAT      O 3190   5.290   0.592   1.608
  983WAT     H1 3191   5.298   0.680   1.656
  983WAT     H2 3192   5.375   0.574   1.558
  984WAT      O 3193   6.191   0.856   5.991
  984WAT     H1 3194   6.194   0.905   6.078
  984WAT     H2 3195   6.169   0.920   5.918
  985WAT      O 3196   2.292   6.639   7.954
  985WAT     H1 3197   2.345   6.723   7.963
  985WAT     H2 3198   2.195   6.659   7.966
  986WAT      O 3199   3.591   8.692   6.279
  986WAT     H1 3200   3.530   8.665   6.354
  986WAT     H2 3201   3.549   8.668   6.191
  987WAT      O 3202   0.475   0.962   3.133
  987WAT     H1 3203   0.421   0.878   3.130
  987WAT     H2 3204   0.504   0.980   3.227
  988WAT      O 3205   6.803   1.150   5.094
  988WAT     H1 3206   6.755   1.219   5.040
  988WAT     H2 3207   6.743   1.070   5.107
  989WAT      O 3208   6.788   8.051   4.899
  989WAT     H1 3209   6.719   8.120   4.881
  989WAT     H2 3210   6.755   7.988   4.969
  990WAT      O 3211   4.977   8.514   9.667
  990WAT     H1 3212   4.946   8.418   9.662
  990WAT     H2 3213   4.906   8.573   9.630
  991WAT      O 3214   2.084   2.284   5.417
  991WAT     H1 3215   2.050   2.225   5.343
  991WAT     H2 3216   2.171   2.325   5.391
  992WAT      O 3217   2.707   2.426   2.631
  992WAT     H1 3218   2.632   2.485   2.662
  992WAT     H2 3219   2.792   2.479   2.628
  993WAT      O 3220   9.135   3.863   3.803
  993WAT     H1 3221   9.046   3.831   3.833
  993WAT     H2 3222   9.142   3.855   3.704
  994WAT      O 3223   3.219   5.138   0.291
  994WAT     H1 3224   3.121   5.130   0.271
  994WAT     H2 3225   3.235   5.121   0.388
  995WAT      O 3226   4.735   0.591   3.714
  995WAT     H1 3227   4.786   0.527   3.770
  995WAT     H2 3228   4.638   0.570   3.718
  996WAT      O 3229   7.569   1.854   1.964
  996WAT     H1 3230   7.478   1.885   1.989
  996WAT     H2 3231   7.602   1.789   2.032
  997WAT      O 3232   5.189   4.801   9.084
  997WAT     H1 3233   5.252   4.861   9.133
  997WAT     H2 3234   5.217   4.706   9.095
  998WAT      O 3235   5.144   6.957   8.829
  998WAT     H1 3236   5.215   6.892   8.800
  998WAT     H2 3237   5.055   6.912   8.825
  999WAT      O 3238   0.555   0.805   3.518
  999WAT     H1 3239   0.576   0.715   3.556
  999WAT     H2 3240   0.464   0.833   3.547
 1000WAT      O 3241   4.476   6.273   7.865
 1000WAT     H1 3242   4.410   6.207   7.831
 1000WAT     H2 3243   4.568   6.245   7.839
 1001WAT      O 3244   1.330   9.732   0.053
 1001WAT     H1 3245   1.399   9.770   0.114
 1001WAT     H2 3246   1.243   9.722   0.102
 1002WAT      O 3247   6.524   5.026   8.777
 1002WAT     H1 3248   6.616   4.988   8.774
 1002WAT     H2 3249   6.476   4.992   8.858
 1003WAT      O 3250   7.553   9.758   4.729
 1003WAT     H1 3251   7.456   9.735   4.736
 1003WAT     H2 3252   7.607   9.693   4.782
 1004WAT      O 3253   5.591   5.610   7.971
 1004WAT     H1 3254   5.564   5.514   7.971
 1004WAT     H2 3255   5.687   5.618   7.999
 1005WAT      O 3256   8.548   2.693   6.862
 1005WAT     H1 3257   8.492   2.619   6.899
 1005WAT     H2 3258   8.616   2.656   6.799
 1006WAT      O 3259   4.711   5.341   6.151
 1006WAT     H1 3260   4.718   5.319   6.053
 1006WAT     H2 3261   4.738   5.261   6.205
 1007WAT      O 3262   0.493   6.729   0.190
 1007WAT     H1 3263   0.465   6.766   0.101
 1007WAT     H2 3264   0.560   6.656   0.176
 1008WAT      O 3265   0.449   8.971   0.477
 1008WAT     H1 3266   0.362   8.969   0.526
 1008WAT     H2 3267   0.439   9.026   0.394
 1009WAT      O 3268   2.149   4.337   9.071
 1009WAT     H1 3269   2.092   4.315   9.150
 1009WAT     H2 3270   2.182   4.431   9.078
 1010WAT      O 3271   7.676   1.901   5.218
 1010WAT     H1 3272   7.590   1.872   5.260
 1010WAT     H2 3273   7.670   1.886   5.119
 1011WAT      O 3274   1.074   4.162   1.029
 1011WAT     H1 3275   1.000   4.120   1.081
 1011WAT     H2 3276   1.042   4.182   0.937
 1012WAT      O 3277   8.401   6.178   9.394
 1012WAT     H1 3278   8.353   6.103   9.348
 1012WAT     H2 3279   8.342   6.259   9.395
 1013WAT      O 3280   3.700   4.059   7.137
 1013WAT     H1 3281   3.780   4.016   7.094
 1013WAT     H2 3282   3.618   4.007   7.114
 1014WAT      O 3283   7.967   7.800   6.025
 1014WAT     H1 3284   7.951   7.831   5.931
 1014WAT     H2 3285   7.909   7.853   6.088
 1015WAT      O 3286   7.073   1.883   7.530
 1015WAT     H1 3287   7.171   1.863   7.521
 1015WAT     H2 3288   7.020   1.807   7.492
 1016WAT      O 3289   7.256   2.320   0.695
 1016WAT     H1 3290   7.310   2.400   0.670
 1016WAT     H2 3291   7.229   2.327   0.792
 1017WAT      O 3292   5.204   0.620   6.704
 1017WAT     H1 3293   5.233   0.701   6.653
 1017WAT     H2 3294   5.105   0.623   6.716
 1018WAT      O 3295   9.550   4.427   5.720
 1018WAT     H1 3296   9.622   4.404   5.785
 1018WAT     H2 3297   9.467   4.453   5.769
 1019WAT      O 3298   4.886   7.560   8.497
 1019WAT     H1 3299   4.830   7.481   8.473
 1019WAT     H2 3300   4.851   7.602   8.581
 1020WAT      O 3301   7.336   4.949   5.985
 1020WAT     H1 3302   7.316   5.022   5.919
 1020WAT     H2 3303   7.315   4.982   6.077
 1021WAT      O 3304   9.722   8.274   6.308
 1021WAT     H1 3305   9.653   8.276   6.380
 1021WAT     H2 3306   9.686   8.224   6.229
 1022WAT      O 3307   1.932   8.439   9.709
 1022WAT     H1 3308   1.848   8.391   9.684
 1022WAT     H2 3309   2.007   8.408   9.651
 1023WAT      O 3310   8.222   8.378   1.627
 1023WAT     H1 3311   8.282   8.444   1.672
 1023WAT     H2 3312   8.259   8.355   1.537
 1024WAT      O 3313   6.689   3.908   7.860
 1024WAT     H1 3314   6.667   3.919   7.956
 1024WAT     H2 3315   6.762   3.972   7.835
 1025WAT      O 3316   4.286   4.019   2.243
 1025WAT     H1 3317   4.351   4.062   2.305
 1025WAT     H2 3318   4.193   4.031   2.278
 1026WAT      O 3319   4.545   4.170   6.504
 1026WAT     H1 3320   4.546   4.122   6.417
 1026WAT     H2 3321   4.607   4.249   6.500
 1027WAT      O 3322   3.053   2.006   9.353
 1027WAT     H1 3323   3.056   1.979   9.449
 1027WAT     H2 3324   3.123   1.956   9.302
 1028WAT      O 3325   8.019   8.219   1.447
 1028WAT     H1 3326   8.116   8.195   1.443
 1028WAT     H2 3327   7.993   8.236   1.542
 1029WAT      O 3328   3.846   7.580   6.387
 1029WAT     H1 3329   3.823   7.483   6.400
 1029WAT     H2 3330   3.858   7.623   6.477
 1030WAT      O 3331   8.133   1.080   1.096
 1030WAT     H1 3332   8.100   0.989   1.117
 1030WAT     H2 3333   8.088   1.147   1.156
 1031WAT      O 3334   2.790   6.657   2.777
 1031WAT     H1 3335   2.785   6.613   2.867
 1031WAT     H2 3336   2.878   6.634   2.735
 1032WAT      O 3337   5.489   3.075   2.951
 1032WAT     H1 3338   5.576   3.044   2.911
 1032WAT     H2 3339   5.502   3.164   2.994
 1033WAT      O 3340   6.562   6.617   3.792
 1033WAT     H1 3341   6.612   6.657   3.869
 1033WAT     H2 3342   6.463   6.621   3.811
 1034WAT      O 3343   6.862   0.982   1.642
 1034WAT     H1 3344   6.907   0.991   1.553
 1034WAT     H2 3345   6.874   1.067   1.694
 1035WAT      O 3346   1.025   8.324   3.084
 1035WAT     H1 3347   0.945   8.270   3.057
 1035WAT     H2 3348   1.014   8.354   3.178
 1036WAT      O 3349   4.400   7.548   3.048
 1036WAT     H1 3350   4.455   7.625   3.017
 1036WAT     H2 3351   4.449   7.462   3.031
 1037WAT      O 3352   0.783   5.553   8.092
 1037WAT     H1 3353   0.829   5.594   8.013
 1037WAT     H2 3354   0.849   5.499   8.145
 1038WAT      O 3355   1.510   0.206   0.987
 1038WAT     H1 3356   1.514   0.264   0.905
 1038WAT     H2 3357   1.585   0.230   1.049
 1039WAT      O 3358   8.718   2.764   8.496
 1039WAT     H1 3359   8.697   2.730   8.404
 1039WAT     H2 3360   8.673   2.853   8.509
 1040WAT      O 3361   6.718   8.642   7.354
 1040WAT     H1 3362   6.713   8.542   7.363
 1040WAT     H2 3363   6.719   8.683   7.445
 1041WAT      O 3364   6.152   3.710   1.120
 1041WAT     H1 3365   6.126   3.737   1.213
 1041WAT     H2 3366   6.069   3.693   1.067
 1042WAT      O 3367   6.927   7.493   7.650
 1042WAT     H1 3368   6.918   7.564   7.720
 1042WAT     H2 3369   6.891   7.527   7.564
 1043WAT      O 3370   8.737   0.008   9.869
 1043WAT     H1 3371   8.697   0.057   9.792
 1043WAT     H2 3372   8.701   0.045   9.955
 1044WAT      O 3373   1.483   9.836   7.561
 1044WAT     H1 3374   1.426   9.775   7.616
 1044WAT     H2 3375   1.577   9.801   7.559
 1045WAT      O 3376   0.792   2.174   1.661
 1045WAT     H1 3377   0.754   2.088   1.628
 1045WAT     H2 3378   0.718   2.232   1.695
 1046WAT      O 3379   3.676   5.614   5.510
 1046WAT     H1 3380   3.606   5.610   5.581
 1046WAT     H2 3381   3.658   5.543   5.442
 1047WAT      O 3382   8.177   6.087   8.149
 1047WAT     H1 3383   8.224   6.175   8.146
 1047WAT     H2 3384   8.127   6.079   8.235
 1048WAT      O 3385   2.454   8.883   0.040
 1048WAT     H1 3386   2.460   8.875   0.140
 1048WAT     H2 3387   2.449   8.792  -0.000
 1049WAT      O 3388   0.288   4.224   5.083
 1049WAT     H1 3389   0.211   4.165   5.105
 1049WAT     H2 3390   0.362   4.208   5.149
 1050WAT      O 3391   8.158   2.775   8.899
 1050WAT     H1 3392   8.087   2.791   8.830
 1050WAT     H2 3393   8.150   2.844   8.971
 1051WAT      O 3394   9.676   8.101   8.300
 1051WAT     H1 3395   9.715   8.107   8.208
 1051WAT     H2 3396   9.735   8.043   8.357
 1052WAT      O 3397   5.347   4.806   0.050
 1052WAT     H1 3398   5.447   4.799   0.045
 1052WAT     H2 3399   5.323   4.874   0.119
 1053WAT      O 3400   3.487   4.026   4.910
 1053WAT     H1 3401   3.528   4.117   4.918
 1053WAT     H2 3402   3.397   4.034   4.866
 1054WAT      O 3403   4.168   2.582   9.257
 1054WAT     H1 3404   4.200   2.491   9.285
 1054WAT     H2 3405   4.088   2.607   9.311
 1055WAT      O 3406   2.848   0.754   9.239
 1055WAT     H1 3407   2.909   0.805   9.178
 1055WAT     H2 3408   2.804   0.680   9.189
 1056WAT      O 3409   3.481   3.804   4.515
 1056WAT     H1 3410   3.439   3.891   4.490
 1056WAT     H2 3411   3.515   3.810   4.609
 1057WAT      O 3412   8.521   1.098   6.643
 1057WAT     H1 3413   8.518   1.066   6.548
 1057WAT     H2 3414   8.532   1.198   6.644
 1058WAT      O 3415   0.291   1.530   4.420
 1058WAT     H1 3416   0.359   1.469   4.380
 1058WAT     H2 3417   0.327   1.572   4.503
 1059WAT      O 3418   3.318   7.904   3.901
 1059WAT     H1 3419   3.374   7.987   3.911
 1059WAT     H2 3420   3.228   7.920   3.942
 1060WAT      O 3421   0.218   3.343   3.301
 1060WAT     H1 3422   0.178   3.351   3.392
 1060WAT     H2 3423   0.304   3.394   3.297
 1061WAT      O 3424   3.498   2.261   1.669
 1061WAT     H1 3425   3.529   2.345   1.624
 1061WAT     H2 3426   3.471   2.194   1.600
 1062WAT      O 3427   7.999   2.375   4.594
 1062WAT     H1 3428   8.023   2.286   4.631
 1062WAT     H2 3429   7.918   2.411   4.641
 1063WAT      O 3430   4.933   8.228   3.902
 1063WAT     H1 3431   4.834   8.245   3.897
 1063WAT     H2 3432   4.968   8.267   3.988
 1064WAT      O 3433   0.790   8.733   5.484
 1064WAT     H1 3434   0.764   8.793   5.408
 1064WAT     H2 3435   0.889   8.735   5.497
 1065WAT      O 3436   7.016   7.783   5.642
 1065WAT     H1 3437   6.933   7.784   5.586
 1065WAT     H2 3438   7.049   7.876   5.652
 1066WAT      O 3439   1.404   1.920   7.446
 1066WAT     H1 3440   1.311   1.883   7.446
 1066WAT     H2 3441   1.430   1.946   7.538
 1067WAT      O 3442   0.275   9.359   7.302
 1067WAT     H1 3443   0.218   9.330   7.378
 1067WAT     H2 3444   0.217   9.385   7.224
 1068WAT      O 3445   9.136   8.811   8.118
 1068WAT     H1 3446   9.131   8.845   8.212
 1068WAT     H2 3447   9.045   8.813   8.077
 1069WAT      O 3448   0.594   5.903   8.980
 1069WAT     H1 3449   0.673   5.965   8.984
 1069WAT     H2 3450   0.622   5.818   8.937
 1070WAT      O 3451   8.725   1.735   0.819
 1070WAT     H1 3452   8.665   1.666   0.778
 1070WAT     H2 3453   8.707   1.824   0.776
 1071WAT      O 3454   9.760   7.602   2.652
 1071WAT     H1 3455   9.860   7.599   2.642
 1071WAT     H2 3456   9.722   7.514   2.623
 1072WAT      O 3457   1.731   8.678   4.008
 1072WAT     H1 3458   1.632   8.660   4.009
 1072WAT     H2 3459   1.778   8.597   3.973
 1073WAT      O 3460   5.899   1.784   5.120
 1073WAT     H1 3461   5.939   1.809   5.209
 1073WAT     H2 3462   5.805   1.816   5.116
 1074WAT      O 3463   5.395   5.998   0.186
 1074WAT     H1 3464   5.411   5.916   0.131
 1074WAT     H2 3465   5.474   6.059   0.178
 1075WAT      O 3466   4.045   7.223   8.947
 1075WAT     H1 3467   4.016   7.148   8.887
 1075WAT     H2 3468   4.132   7.259   8.916
 1076WAT      O 3469   9.635   4.387   4.940
 1076WAT     H1 3470   9.679   4.414   4.854
 1076WAT     H2 3471   9.598   4.469   4.985
 1077WAT      O 3472   5.546   1.503   7.911
 1077WAT     H1 3473   5.639   1.489   7.878
 1077WAT     H2 3474   5.507   1.585   7.870
 1078WAT      O 3475   7.861   0.066   1.015
 1078WAT     H1 3476   7.934   0.029   0.958
 1078WAT     H2 3477   7.901   0.126   1.085
 1079WAT      O 3478   7.040   3.985   9.195
 1079WAT     H1 3479   7.008   4.021   9.107
 1079WAT     H2 3480   7.105   3.912   9.180
 1080WAT      O 3481   4.584   3.994   1.875
 1080WAT     H1 3482   4.665   4.048   1.854
 1080WAT     H2 3483   4.609   3.918   1.936
 1081WAT      O 3484   8.898   6.943   7.037
 1081WAT     H1 3485   8.861   6.899   6.955
 1081WAT     H2 3486   8.853   6.906   7.118
 1082WAT      O 3487   5.641   5.903   0.792
 1082WAT     H1 3488   5.558   5.910   0.848
 1082WAT     H2 3489   5.618   5.865   0.702
 1083WAT      O 3490   0.862   9.004   2.128
 1083WAT     H1 3491   0.823   9.002   2.036
 1083WAT     H2 3492   0.789   9.011   2.195
 1084WAT      O 3493   7.181   1.783   4.976
 1084WAT     H1 3494   7.101   1.762   5.033
 1084WAT     H2 3495   7.191   1.711   4.908
 1085WAT      O 3496   6.683   6.493   8.890
 1085WAT     H1 3497   6.635   6.546   8.820
 1085WAT     H2 3498   6.752   6.435   8.848
 1086WAT      O 3499   1.075   0.831   8.329
 1086WAT     H1 3500   1.130   0.820   8.412
 1086WAT     H2 3501   1.106   0.912   8.280
 1087WAT      O 3502   4.837   6.117   6.159
 1087WAT     H1 3503   4.822   6.020   6.182
 1087WAT     H2 3504   4.822   6.130   6.061
 1088WAT      O 3505   8.020   1.843   0.966
 1088WAT     H1 3506   8.036   1.756   0.920
 1088WAT     H2 3507   7.968   1.903   0.905
 1089WAT      O 3508   6.651   5.181   2.325
 1089WAT     H1 3509   6.668   5.260   2.383
 1089WAT     H2 3510   6.581   5.204   2.257
 1090WAT      O 3511   4.478   8.660   9.698
 1090WAT     H1 3512   4.455   8.583   9.759
 1090WAT     H2 3513   4.417   8.737   9.717
 1091WAT      O 3514   0.185   2.569   8.800
 1091WAT     H1 3515   0.114   2.504   8.774
 1091WAT     H2 3516   0.249   2.581   8.724
 1092WAT      O 3517   2.409   0.188   4.984
 1092WAT     H1 3518   2.436   0.266   4.927
 1092WAT     H2 3519   2.341   0.219   5.051
 1093WAT      O 3520   9.243   9.025   2.756
 1093WAT     H1 3521   9.281   8.982   2.674
 1093WAT     H2 3522   9.162   9.078   2.732
 1094WAT      O 3523   4.828   6.745   4.242
 1094WAT     H1 3524   4.757   6.813   4.261
 1094WAT     H2 3525   4.821   6.715   4.147
 1095WAT      O 3526   1.843   4.344   5.886
 1095WAT     H1 3527   1.763   4.399   5.860
 1095WAT     H2 3528   1.886   4.384   5.967
 1096WAT      O 3529   4.620   9.706   3.584
 1096WAT     H1 3530   4.620   9.740   3.679
 1096WAT     H2 3531   4.643   9.781   3.522
 1097WAT      O 3532   0.818   3.980   6.137
 1097WAT     H1 3533   0.779   4.066   6.169
 1097WAT     H2 3534   0.748   3.909   6.138
 1098WAT      O 3535   2.287   5.771   9.058
 1098WAT     H1 3536   2.323   5.766   8.964
 1098WAT     H2 3537   2.299   5.682   9.102
 1099WAT      O 3538   4.138   5.656   4.514
 1099WAT     H1 3539   4.066   5.602   4.471
 1099WAT     H2 3540   4.124   5.657   4.613
 1100WAT      O 3541   1.388   9.790   8.636
 1100WAT     H1 3542   1.411   9.827   8.546
 1100WAT     H2 3543   1.290   9.769   8.639
 1101WAT      O 3544   9.482   0.279   0.310
 1101WAT     H1 3545   9.429   0.304   0.391
 1101WAT     H2 3546   9.562   0.339   0.303
 1102WAT      O 3547   7.410   3.534   7.503
 1102WAT     H1 3548   7.453   3.616   7.465
 1102WAT     H2 3549   7.472   3.491   7.569
 1103WAT      O 3550   1.230   8.162   6.552
 1103WAT     H1 3551   1.317   8.212   6.554
 1103WAT     H2 3552   1.217   8.120   6.463
 1104WAT      O 3553   2.333   3.406   8.514
 1104WAT     H1 3554   2.305   3.344   8.440
 1104WAT     H2 3555   2.254   3.429   8.570
 1105WAT      O 3556   3.182   5.842   7.834
 1105WAT     H1 3557   3.245   5.818   7.907
 1105WAT     H2 3558   3.104   5.780   7.835
 1106WAT      O 3559   4.698   7.703   2.384
 1106WAT     H1 3560   4.681   7.613   2.424
 1106WAT     H2 3561   4.744   7.761   2.451
 1107WAT      O 3562   1.468   5.327   6.883
 1107WAT     H1 3563   1.559   5.366   6.898
 1107WAT     H2 3564   1.399   5.384   6.927
 1108WAT      O 3565   6.170   5.023   9.730
 1108WAT     H1 3566   6.127   5.044   9.642
 1108WAT     H2 3567   6.099   4.996   9.795
 1109WAT      O 3568   3.138   2.347   2.155
 1109WAT     H1 3569   3.098   2.438   2.149
 1109WAT     H2 3570   3.112   2.294   2.075
 1110WAT      O 3571   6.731   2.096   5.806
 1110WAT     H1 3572   6.751   2.189   5.837
 1110WAT     H2 3573   6.693   2.043   5.883
 1111WAT      O 3574   8.691   1.121   5.628
 1111WAT     H1 3575   8.762   1.187   5.650
 1111WAT     H2 3576   8.631   1.159   5.557
 1112WAT      O 3577   8.204   4.300   3.990
 1112WAT     H1 3578   8.213   4.365   4.064
 1112WAT     H2 3579   8.206   4.207   4.027
 1113WAT      O 3580   1.679   7.553   3.512
 1113WAT     H1 3581   1.716   7.564   3.604
 1113WAT     H2 3582   1.584   7.585   3.510
 1114WAT      O 3583   1.499   7.600   2.073
 1114WAT     H1 3584   1.423   7.578   2.011
 1114WAT     H2 3585   1.563   7.661   2.026
 1115WAT      O 3586   3.497   6.105   2.449
 1115WAT     H1 3587   3.429   6.117   2.376
 1115WAT     H2 3588   3.581   6.066   2.411
 1116WAT      O 3589   0.008   1.191   2.460
 1116WAT     H1 3590  -0.073   1.240   2.429
 1116WAT     H2 3591   0.080   1.199   2.391
 1117WAT      O 3592   1.987   8.743   4.080
 1117WAT     H1 3593   1.908   8.712   4.026
 1117WAT     H2 3594   1.973   8.719   4.176
 1118WAT      O 3595   2.494   8.618   0.004
 1118WAT     H1 3596   2.572   8.614   0.066
 1118WAT     H2 3597   2.412   8.587   0.052
 1119WAT      O 3598   2.115   5.107   7.341
 1119WAT     H1 3599   2.138   5.125   7.437
 1119WAT     H2 3600   2.146   5.015   7.316
 1120WAT      O 3601   0.409   8.493   3.915
 1120WAT     H1 3602   0.502   8.494   3.878
 1120WAT     H2 3603   0.387   8.401   3.948
 1121WAT      O 3604   9.277   7.578   4.238
 1121WAT     H1 3605   9.283   7.487   4.197
 1121WAT     H2 3606   9.264   7.569   4.337
 1122WAT      O 3607   5.883   4.039   8.127
 1122WAT     H1 3608   5.893   3.988   8.213
 1122WAT     H2 3609   5.953   4.008   8.062
 1123WAT      O 3610   8.251   2.415   7.158
 1123WAT     H1 3611   8.220   2.509   7.176
 1123WAT     H2 3612   8.305   2.382   7.236
 1124WAT      O 3613   7.028   2.709   9.598
 1124WAT     H1 3614   7.110   2.725   9.652
 1124WAT     H2 3615   6.985   2.797   9.576
 1125WAT      O 3616   5.924   1.353   4.853
 1125WAT     H1 3617   5.955   1.446   4.874
 1125WAT     H2 3618   5.993   1.287   4.882
 1126WAT      O 3619   8.535   3.907   0.700
 1126WAT     H1 3620   8.611   3.852   0.666
 1126WAT     H2 3621   8.567   3.967   0.773
 1127WAT      O 3622   7.750   9.412   8.556
 1127WAT     H1 3623   7.807   9.449   8.629
 1127WAT     H2 3624   7.655   9.441   8.568
 1128WAT      O 3625   4.169   4.331   4.537
 1128WAT     H1 3626   4.075   4.348   4.506
 1128WAT     H2 3627   4.171   4.249   4.594
 1129WAT      O 3628   1.120   6.735   7.981
 1129WAT     H1 3629   1.152   6.694   7.896
 1129WAT     H2 3630   1.190   6.797   8.017
 1130WAT      O 3631   4.398   9.335   7.434
 1130WAT     H1 3632   4.309   9.368   7.465
 1130WAT     H2 3633   4.468   9.403   7.456
 1131WAT      O 3634   2.923   9.403   6.517
 1131WAT     H1 3635   2.862   9.478   6.543
 1131WAT     H2 3636   2.909   9.381   6.421
 1132WAT      O 3637   2.542   7.904   1.182
 1132WAT     H1 3638   2.522   7.960   1.263
 1132WAT     H2 3639   2.465   7.909   1.118
 1133WAT      O 3640   3.771   2.592   0.898
 1133WAT     H1 3641   3.844   2.661   0.895
 1133WAT     H2 3642   3.810   2.502   0.914
 1134WAT      O 3643   9.139   5.563   4.880
 1134WAT     H1 3644   9.089   5.602   4.802
 1134WAT     H2 3645   9.094   5.591   4.965
 1135WAT      O 3646   8.759   8.803   8.271
 1135WAT     H1 3647   8.751   8.705   8.284
 1135WAT     H2 3648   8.801   8.845   8.352
 1136WAT      O 3649   0.300   6.046   1.841
 1136WAT     H1 3650   0.272   6.101   1.920
 1136WAT     H2 3651   0.387   6.001   1.861
 1137WAT      O 3652   5.079   2.277   4.748
 1137WAT     H1 3653   5.066   2.221   4.666
 1137WAT     H2 3654   5.005   2.259   4.813
 1138WAT      O 3655   1.592   2.315   2.378
 1138WAT     H1 3656   1.659   2.284   2.445
 1138WAT     H2 3657   1.627   2.396   2.330
 1139WAT      O 3658   1.633   2.250   4.412
 1139WAT     H1 3659   1.669   2.181   4.475
 1139WAT     H2 3660   1.692   2.257   4.332
 1140WAT      O 3661   6.431   8.237   7.816
 1140WAT     H1 3662   6.516   8.289   7.815
 1140WAT     H2 3663   6.446   8.147   7.775
 1141WAT      O 3664   0.371   1.543   3.105
 1141WAT     H1 3665   0.342   1.504   3.193
 1141WAT     H2 3666   0.454   1.497   3.074
 1142WAT      O 3667   3.663   5.690   2.383
 1142WAT     H1 3668   3.702   5.778   2.357
 1142WAT     H2 3669   3.707   5.617   2.332
 1143WAT      O 3670   8.962   3.117   3.013
 1143WAT     H1 3671   8.897   3.088   3.083
 1143WAT     H2 3672   8.926   3.095   2.922
 1144WAT      O 3673   5.757   9.775   3.153
 1144WAT     H1 3674   5.699   9.783   3.234
 1144WAT     H2 3675   5.767   9.865   3.110
 1145WAT      O 3676   5.588   8.728   1.978
 1145WAT     H1 3677   5.599   8.629   1.978
 1145WAT     H2 3678   5.677   8.772   1.966
 1146WAT      O 3679   4.557   6.308   9.820
 1146WAT     H1 3680   4.549   6.248   9.900
 1146WAT     H2 3681   4.491   6.383   9.828
 1147WAT      O 3682   4.216   9.255   6.302
 1147WAT     H1 3683   4.296   9.296   6.344
 1147WAT     H2 3684   4.219   9.269   6.203
 1148WAT      O 3685   0.293   0.761   5.972
 1148WAT     H1 3686   0.380   0.735   5.932
 1148WAT     H2 3687   0.283   0.861   5.967
 1149WAT      O 3688   9.583   8.505   7.956
 1149WAT     H1 3689   9.674   8.511   7.915
 1149WAT     H2 3690   9.514   8.490   7.885
 1150WAT      O 3691   5.859   0.577   2.358
 1150WAT     H1 3692   5.795   0.556   2.284
 1150WAT     H2 3693   5.953   0.573   2.323
 1151WAT      O 3694   0.641   8.960   2.308
 1151WAT     H1 3695   0.624   9.010   2.393
 1151WAT     H2 3696   0.614   8.864   2.320
 1152WAT      O 3697   1.633   3.761   6.616
 1152WAT     H1 3698   1.688   3.755   6.533
 1152WAT     H2 3699   1.591   3.672   6.635
 1153WAT      O 3700   6.835   2.207   7.206
 1153WAT     H1 3701   6.763   2.184   7.140
 1153WAT     H2 3702   6.810   2.290   7.256
 1154WAT      O 3703   1.164   1.240   0.796
 1154WAT     H1 3704   1.103   1.179   0.847
 1154WAT     H2 3705   1.127   1.256   0.705
 1155WAT      O 3706   4.394   6.552   0.968
 1155WAT     H1 3707   4.368   6.476   1.028
 1155WAT     H2 3708   4.478   6.529   0.919
 1156WAT      O 3709   2.668   6.312   2.004
 1156WAT     H1 3710   2.647   6.407   1.984
 1156WAT     H2 3711   2.749   6.284   1.953
 1157WAT      O 3712   4.514   7.177   2.459
 1157WAT     H1 3713   4.468   7.233   2.527
 1157WAT     H2 3714   4.448   7.116   2.415
 1158WAT      O 3715   8.600   4.893   0.864
 1158WAT     H1 3716   8.553   4.960   0.921
 1158WAT     H2 3717   8.576   4.801   0.894
 1159WAT      O 3718   3.976   4.544   9.698
 1159WAT     H1 3719   3.965   4.626   9.642
 1159WAT     H2 3720   3.886   4.504   9.716
 1160WAT      O 3721   6.546   2.317   3.128
 1160WAT     H1 3722   6.530   2.260   3.208
 1160WAT     H2 3723   6.459   2.338   3.083
 1161WAT      O 3724   5.483   7.565   9.229
 1161WAT     H1 3725   5.424   7.520   9.296
 1161WAT     H2 3726   5.558   7.504   9.204
 1162WAT      O 3727   3.159   9.730   7.817
 1162WAT     H1 3728   3.082   9.787   7.846
 1162WAT     H2 3729   3.125   9.641   7.787
 1163WAT      O 3730   2.818   0.639   1.797
 1163WAT     H1 3731   2.841   0.684   1.883
 1163WAT     H2 3732   2.819   0.540   1.810
 1164WAT      O 3733   8.983   0.881   7.971
 1164WAT     H1 3734   8.915   0.948   7.942
 1164WAT     H2 3735   9.015   0.903   8.063
 1165WAT      O 3736   8.515   2.274   1.522
 1165WAT     H1 3737   8.537   2.228   1.436
 1165WAT     H2 3738   8.416   2.271   1.538
 1166WAT      O 3739   8.573   8.514   4.268
 1166WAT     H1 3740   8.617   8.457   4.338
 1166WAT     H2 3741   8.486   8.547   4.303
 1167WAT      O 3742   6.053   7.878   0.254
 1167WAT     H1 3743   5.981   7.894   0.322
 1167WAT     H2 3744   6.029   7.926   0.169
 1168WAT      O 3745   5.313   6.791   6.742
 1168WAT     H1 3746   5.300   6.885   6.772
 1168WAT     H2 3747   5.311   6.730   6.822
 1169WAT      O 3748   1.393   4.757   3.557
 1169WAT     H1 3749   1.428   4.812   3.482
 1169WAT     H2 3750   1.460   4.755   3.631
 1170WAT      O 3751   6.928   9.738   3.466
 1170WAT     H1 3752   6.910   9.816   3.405
 1170WAT     H2 3753   6.879   9.753   3.553
 1171WAT      O 3754   8.356   2.906   6.972
 1171WAT     H1 3755   8.345   2.816   6.929
 1171WAT     H2 3756   8.270   2.933   7.015
 1172WAT      O 3757   6.121   1.901   7.345
 1172WAT     H1 3758   6.197   1.838   7.362
 1172WAT     H2 3759   6.119   1.925   7.248
 1173WAT      O 3760   0.886   8.654   0.697
 1173WAT     H1 3761   0.876   8.753   0.689
 1173WAT     H2 3762   0.797   8.610   0.689
 1174WAT      O 3763   0.980   8.361   8.454
 1174WAT     H1 3764   1.080   8.357   8.450
 1174WAT     H2 3765   0.948   8.308   8.532
 1175WAT      O 3766   3.384   8.824   7.888
 1175WAT     H1 3767   3.414   8.760   7.959
 1175WAT     H2 3768   3.287   8.844   7.900
 1176WAT      O 3769   6.152   3.938   7.427
 1176WAT     H1 3770   6.180   4.034   7.419
 1176WAT     H2 3771   6.090   3.915   7.352
 1177WAT      O 3772   3.359   9.362   0.294
 1177WAT     H1 3773   3.361   9.453   0.253
 1177WAT     H2 3774   3.320   9.368   0.386
 1178WAT      O 3775   6.060   3.580   9.248
 1178WAT     H1 3776   6.059   3.540   9.339
 1178WAT     H2 3777   6.012   3.519   9.185
 1179WAT      O 3778   2.625   1.378   6.770
 1179WAT     H1 3779   2.693   1.447   6.797
 1179WAT     H2 3780   2.666   1.287   6.778
 1180WAT      O 3781   0.700   1.421   0.617
 1180WAT     H1 3782   0.709   1.473   0.702
 1180WAT     H2 3783   0.729   1.478   0.540
 1181WAT      O 3784   2.509   2.437   8.333
 1181WAT     H1 3785   2.505   2.428   8.234
 1181WAT     H2 3786   2.563   2.517   8.358
 1182WAT      O 3787   1.368   1.339   3.641
 1182WAT     H1 3788   1.357   1.242   3.619
 1182WAT     H2 3789   1.287   1.370   3.692
 1183WAT      O 3790   0.733   5.099   2.433
 1183WAT     H1 3791   0.727   5.049   2.520
 1183WAT     H2 3792   0.678   5.052   2.364
 1184WAT      O 3793   4.435   9.595   9.043
 1184WAT     H1 3794   4.391   9.623   8.958
 1184WAT     H2 3795   4.471   9.675   9.090
 1185WAT      O 3796   7.745   8.364   4.080
 1185WAT     H1 3797   7.808   8.325   4.148
 1185WAT     H2 3798   7.656   8.318   4.088
 1186WAT      O 3799   1.410   4.740   9.244
 1186WAT     H1 3800   1.361   4.654   9.255
 1186WAT     H2 3801   1.498   4.735   9.290
 1187WAT      O 3802   5.518   7.034   3.847
 1187WAT     H1 3803   5.502   6.938   3.825
 1187WAT     H2 3804   5.611   7.059   3.822
 1188WAT      O 3805   2.896   4.629   9.335
 1188WAT     H1 3806   2.857   4.721   9.340
 1188WAT     H2 3807   2.882   4.592   9.243
 1189WAT      O 3808   1.665   2.722   9.277
 1189WAT     H1 3809   1.717   2.806   9.262
 1189WAT     H2 3810   1.591   2.716   9.211
 1190WAT      O 3811   0.243   9.726   1.097
 1190WAT     H1 3812   0.315   9.674   1.052
 1190WAT     H2 3813   0.252   9.715   1.196
 1191WAT      O 3814   0.880   8.002   8.331
 1191WAT     H1 3815   0.933   8.028   8.411
 1191WAT     H2 3816   0.919   8.045   8.250
 1192WAT      O 3817   9.205   3.314   6.910
 1192WAT     H1 3818   9.245   3.230   6.947
 1192WAT     H2 3819   9.274   3.366   6.860
 1193WAT      O 3820   4.032   9.268   9.562
 1193WAT     H1 3821   4.088   9.255   9.480
 1193WAT     H2 3822   4.078   9.332   9.624
 1194WAT      O 3823   8.783   5.356   4.683
 1194WAT     H1 3824   8.716   5.429   4.674
 1194WAT     H2 3825   8.862   5.375   4.626
 1195WAT      O 3826   1.171   5.813   1.768
 1195WAT     H1 3827   1.152   5.907   1.740
 1195WAT     H2 3828   1.102   5.752   1.729
 1196WAT      O 3829   0.194   7.286   7.883
 1196WAT     H1 3830   0.285   7.248   7.866
 1196WAT     H2 3831   0.163   7.260   7.975
 1197WAT      O 3832   4.232   0.182   5.644
 1197WAT     H1 3833   4.263   0.150   5.554
 1197WAT     H2 3834   4.142   0.224   5.635
 1198WAT      O 3835   9.882   8.413   2.231
 1198WAT     H1 3836   9.934   8.332   2.257
 1198WAT     H2 3837   9.786   8.400   2.254
 1199WAT      O 3838   2.957   4.149   0.827
 1199WAT     H1 3839   2.983   4.228   0.772
 1199WAT     H2 3840   2.867   4.166   0.869
 1200WAT      O 3841   1.513   1.317   4.744
 1200WAT     H1 3842   1.593   1.367   4.710
 1200WAT     H2 3843   1.487   1.246   4.679
 1201WAT      O 3844   7.710   2.172   2.800
 1201WAT     H1 3845   7.617   2.171   2.837
 1201WAT     H2 3846   7.775   2.159   2.874
 1202WAT      O 3847   8.824   6.463   1.652
 1202WAT     H1 3848   8.821   6.491   1.557
 1202WAT     H2 3849   8.894   6.516   1.700
 1203WAT      O 3850   8.603   1.826   8.379
 1203WAT     H1 3851   8.611   1.767   8.459
 1203WAT     H2 3852   8.622   1.773   8.296
 1204WAT      O 3853   4.539   5.240   8.433
 1204WAT     H1 3854   4.448   5.216   8.466
 1204WAT     H2 3855   4.531   5.297   8.351
 1205WAT      O 3856   5.610   2.005   3.076
 1205WAT     H1 3857   5.644   1.966   3.162
 1205WAT     H2 3858   5.652   2.095   3.062
 1206WAT      O 3859   3.664   7.301   4.212
 1206WAT     H1 3860   3.729   7.371   4.241
 1206WAT     H2 3861   3.641   7.242   4.289
 1207WAT      O 3862   4.612   4.012   3.870
 1207WAT     H1 3863   4.619   4.004   3.969
 1207WAT     H2 3864   4.693   4.061   3.835
 1208WAT      O 3865   3.341   3.060   1.598
 1208WAT     H1 3866   3.291   2.973   1.590
 1208WAT     H2 3867   3.277   3.132   1.626
 1209WAT      O 3868   5.403   8.286   1.292
 1209WAT     H1 3869   5.422   8.204   1.346
 1209WAT     H2 3870   5.415   8.266   1.195
 1210WAT      O 3871   8.828   0.478   6.944
 1210WAT     H1 3872   8.850   0.419   6.866
 1210WAT     H2 3873   8.749   0.535   6.920
 1211WAT      O 3874   9.362   1.061   9.424
 1211WAT     H1 3875   9.422   1.131   9.463
 1211WAT     H2 3876   9.399   0.970   9.445
 1212WAT      O 3877   0.628   0.878   5.062
 1212WAT     H1 3878   0.674   0.829   5.136
 1212WAT     H2 3879   0.642   0.976   5.073
 1213WAT      O 3880   4.151   9.374   7.627
 1213WAT     H1 3881   4.149   9.437   7.705
 1213WAT     H2 3882   4.169   9.282   7.659
 1214WAT      O 3883   2.881   8.828   2.489
 1214WAT     H1 3884   2.880   8.822   2.389
 1214WAT     H2 3885   2.802   8.779   2.526
 1215WAT      O 3886   2.478   6.427   4.463
 1215WAT     H1 3887   2.541   6.373   4.519
 1215WAT     H2 3888   2.485   6.398   4.368
 1216WAT      O 3889   2.724   4.399   9.434
 1216WAT     H1 3890   2.658   4.425   9.504
 1216WAT     H2 3891   2.780   4.478   9.410
 1217WAT      O 3892   3.522   3.893   9.066
 1217WAT     H1 3893   3.475   3.932   9.146
 1217WAT     H2 3894   3.566   3.966   9.014
 1218WAT      O 3895   7.831   3.876   1.944
 1218WAT     H1 3896   7.755   3.889   1.880
 1218WAT     H2 3897   7.916   3.910   1.903
 1219WAT      O 3898   6.380   0.330   1.936
 1219WAT     H1 3899   6.318   0.320   2.014
 1219WAT     H2 3900   6.474   0.342   1.969
 1220WAT      O 3901   1.809   3.200   4.899
 1220WAT     H1 3902   1.838   3.206   4.803
 1220WAT     H2 3903   1.888   3.216   4.958
 1221WAT      O 3904   1.475   6.796   8.338
 1221WAT     H1 3905   1.507   6.883   8.375
 1221WAT     H2 3906   1.554   6.741   8.310
 1222WAT      O 3907   7.332   8.983   6.968
 1222WAT     H1 3908   7.372   9.070   6.940
 1222WAT     H2 3909   7.287   8.940   6.890
 1223WAT      O 3910   4.380   7.438   0.625
 1223WAT     H1 3911   4.368   7.532   0.658
 1223WAT     H2 3912   4.351   7.433   0.529
 1224WAT      O 3913   6.681   4.621   1.030
 1224WAT     H1 3914   6.591   4.584   1.007
 1224WAT     H2 3915   6.737   4.548   1.070
 1225WAT      O 3916   8.185   7.377   6.721
 1225WAT     H1 3917   8.107   7.313   6.722
 1225WAT     H2 3918   8.243   7.358   6.642
 1226WAT      O 3919   4.915   5.618   8.939
 1226WAT     H1 3920   4.898   5.532   8.892
 1226WAT     H2 3921   4.863   5.620   9.025
 1227WAT      O 3922   7.085   9.620   4.545
 1227WAT     H1 3923   7.167   9.663   4.507
 1227WAT     H2 3924   7.050   9.677   4.620
 1228WAT      O 3925   3.585   1.471   1.862
 1228WAT     H1 3926   3.672   1.452   1.907
 1228WAT     H2 3927   3.569   1.402   1.791
 1229WAT      O 3928   3.690   6.469   3.987
 1229WAT     H1 3929   3.713   6.405   4.060
 1229WAT     H2 3930   3.602   6.444   3.947
 1230WAT      O 3931   5.775   5.910   5.888
 1230WAT     H1 3932   5.739   5.821   5.917
 1230WAT     H2 3933   5.709   5.981   5.913
 1231WAT      O 3934   0.184   6.429   2.785
 1231WAT     H1 3935   0.196   6.334   2.756
 1231WAT     H2 3936   0.274   6.470   2.803
 1232WAT      O 3937   1.434   4.758   5.306
 1232WAT     H1 3938   1.364   4.766   5.235
 1232WAT     H2 3939   1.424   4.670   5.352
 1233WAT      O 3940   9.350   8.448   1.247
 1233WAT     H1 3941   9.282   8.383   1.280
 1233WAT     H2 3942   9.421   8.459   1.316
 1234WAT      O 3943   0.229   7.821   0.305
 1234WAT     H1 3944   0.233   7.830   0.206
 1234WAT     H2 3945   0.156   7.756   0.329
 1235WAT      O 3946   1.913   1.958   2.922
 1235WAT     H1 3947   1.829   2.000   2.956
 1235WAT     H2 3948   1.916   1.964   2.823
 1236WAT      O 3949   7.249   0.916   7.674
 1236WAT     H1 3950   7.207   0.826   7.673
 1236WAT     H2 3951   7.272   0.942   7.767
 1237WAT      O 3952   0.833   1.961   8.270
 1237WAT     H1 3953   0.865   2.051   8.298
 1237WAT     H2 3954   0.755   1.970   8.208
 1238WAT      O 3955   1.299   9.164   9.439
 1238WAT     H1 3956   1.359   9.084   9.445
 1238WAT     H2 3957   1.298   9.211   9.528
 1239WAT      O 3958   7.966   9.417   3.185
 1239WAT     H1 3959   7.993   9.510   3.211
 1239WAT     H2 3960   7.894   9.421   3.116
 1240WAT      O 3961   2.764   4.828   9.617
 1240WAT     H1 3962   2.744   4.736   9.650
 1240WAT     H2 3963   2.684   4.866   9.570
 1241WAT      O 3964   3.560   0.468   0.491
 1241WAT     H1 3965   3.556   0.428   0.399
 1241WAT     H2 3966   3.489   0.427   0.548
 1242WAT      O 3967   2.306   4.303   1.586
 1242WAT     H1 3968   2.256   4.247   1.520
 1242WAT     H2 3969   2.337   4.245   1.661
 1243WAT      O 3970   6.186   8.940   7.730
 1243WAT     H1 3971   6.144   8.873   7.669
 1243WAT     H2 3972   6.284   8.920   7.739
 1244WAT      O 3973   6.761   6.326   6.868
 1244WAT     H1 3974   6.735   6.272   6.788
 1244WAT     H2 3975   6.771   6.422   6.843
 1245WAT      O 3976   4.660   0.541   0.301
 1245WAT     H1 3977   4.688   0.465   0.360
 1245WAT     H2 3978   4.722   0.548   0.223
 1246WAT      O 3979   4.422   2.670   2.718
 1246WAT     H1 3980   4.516   2.663   2.752
 1246WAT     H2 3981   4.359   2.684   2.794
 1247WAT      O 3982   2.059   9.143   7.720
 1247WAT     H1 3983   2.056   9.232   7.675
 1247WAT     H2 3984   1.977   9.091   7.697
 1248WAT      O 3985   9.267   2.098   3.196
 1248WAT     H1 3986   9.229   2.076   3.106
 1248WAT     H2 3987   9.347   2.040   3.213
 1249WAT      O 3988   8.909   4.901   9.580
 1249WAT     H1 3989   8.916   4.985   9.525
 1249WAT     H2 3990   8.829   4.850   9.551
 1250WAT      O 3991   0.528   1.845   8.816
 1250WAT     H1 3992   0.525   1.752   8.853
 1250WAT     H2 3993   0.494   1.909   8.885
 1251WAT      O 3994   1.458   1.290   3.137
 1251WAT     H1 3995   1.401   1.251   3.209
 1251WAT     H2 3996   1.517   1.220   3.098
 1252WAT      O 3997   4.546   4.558   1.188
 1252WAT     H1 3998   4.491   4.480   1.158
 1252WAT     H2 3999   4.597   4.534   1.271
 1253WAT      O 4000   8.531   0.533   1.650
 1253WAT     H1 4001   8.438   0.505   1.677
 1253WAT     H2 4002   8.593   0.456   1.660
 1254WAT      O 4003   3.796   0.692   8.698
 1254WAT     H1 4004   3.742   0.620   8.654
 1254WAT     H2 4005   3.857   0.650   8.765
 1255WAT      O 4006   1.715   6.772   4.072
 1255WAT     H1 4007   1.691   6.676   4.056
 1255WAT     H2 4008   1.632   6.824   4.092
 1256WAT      O 4009   7.878   3.209   6.169
 1256WAT     H1 4010   7.793   3.259   6.158
 1256WAT     H2 4011   7.933   3.251   6.241
 1257WAT      O 4012   0.784   3.053   3.908
 1257WAT     H1 4013   0.788   3.076   3.810
 1257WAT     H2 4014   0.843   3.116   3.959
 1258WAT      O 4015   6.817   3.014   6.232
 1258WAT     H1 4016   6.848   2.938   6.175
 1258WAT     H2 4017   6.743   2.982   6.292
 1259WAT      O 4018   6.386   2.679   0.179
 1259WAT     H1 4019   6.367   2.705   0.085
 1259WAT     H2 4020   6.361   2.583   0.193
 1260WAT      O 4021   9.817   5.738   2.020
 1260WAT     H1 4022   9.860   5.784   1.943
 1260WAT     H2 4023   9.863   5.765   2.105
 1261WAT      O 4024   5.944   6.696   6.848
 1261WAT     H1 4025   6.013   6.732   6.911
 1261WAT     H2 4026   5.859   6.749   6.859
 1262WAT      O 4027   5.165   0.038   2.263
 1262WAT     H1 4028   5.217   0.015   2.345
 1262WAT     H2 4029   5.184   0.133   2.237
 1263WAT      O 4030   4.521   5.376   8.194
 1263WAT     H1 4031   4.539   5.472   8.174
 1263WAT     H2 4032   4.470   5.335   8.118
 1264WAT      O 4033   4.132   7.797   6.928
 1264WAT     H1 4034   4.207   7.772   6.989
 1264WAT     H2 4035   4.089   7.882   6.961
 1265WAT      O 4036   8.748   2.143   2.596
 1265WAT     H1 4037   8.804   2.106   2.522
 1265WAT     H2 4038   8.707   2.068   2.648
 1266WAT      O 4039   8.375   8.260   4.338
 1266WAT     H1 4040   8.279   8.236   4.346
 1266WAT     H2 4041   8.394   8.341   4.393
 1267WAT      O 4042   5.782   0.475   7.482
 1267WAT     H1 4043   5.729   0.399   7.520
 1267WAT     H2 4044   5.736   0.561   7.503
 1268WAT      O 4045   7.743   3.972   5.877
 1268WAT     H1 4046   7.818   3.907   5.889
 1268WAT     H2 4047   7.768   4.038   5.806
 1269WAT      O 4048   8.513   4.692   2.073
 1269WAT     H1 4049   8.515   4.743   2.159
 1269WAT     H2 4050   8.507   4.594   2.093
 1270WAT      O 4051   8.008   9.594   3.975
 1270WAT     H1 4052   8.072   9.539   4.029
 1270WAT     H2 4053   7.949   9.646   4.036
 1271WAT      O 4054   8.611   0.442   3.158
 1271WAT     H1 4055   8.662   0.478   3.080
 1271WAT     H2 4056   8.669   0.376   3.207
 1272WAT      O 4057   5.730   1.386   2.162
 1272WAT     H1 4058   5.829   1.381   2.169
 1272WAT     H2 4059   5.702   1.375   2.067
 1273WAT      O 4060   8.064   0.683   6.086
 1273WAT     H1 4061   8.097   0.756   6.146
 1273WAT     H2 4062   8.116   0.600   6.103
 1274WAT      O 4063   8.473   7.432   1.634
 1274WAT     H1 4064   8.436   7.520   1.603
 1274WAT     H2 4065   8.571   7.441   1.649
 1275WAT      O 4066   6.515   5.270   8.312
 1275WAT     H1 4067   6.423   5.259   8.273
 1275WAT     H2 4068   6.516   5.234   8.405
 1276WAT      O 4069   3.287   9.784   8.064
 1276WAT     H1 4070   3.273   9.814   7.970
 1276WAT     H2 4071   3.235   9.701   8.081
 1277WAT      O 4072   6.463   0.656   4.219
 1277WAT     H1 4073   6.512   0.672   4.133
 1277WAT     H2 4074   6.506   0.581   4.269
 1278WAT      O 4075   4.781   5.329   0.180
 1278WAT     H1 4076   4.778   5.351   0.082
 1278WAT     H2 4077   4.852   5.384   0.224
 1279WAT      O 4078   1.606   3.167   2.289
 1279WAT     H1 4079   1.607   3.163   2.190
 1279WAT     H2 4080   1.682   3.112   2.325
 1280WAT      O 4081   4.620   3.370   6.499
 1280WAT     H1 4082   4.698   3.383   6.437
 1280WAT     H2 4083   4.585   3.278   6.490
 1281WAT      O 4084   0.995   2.515   2.493
 1281WAT     H1 4085   0.997   2.419   2.522
 1281WAT     H2 4086   0.907   2.555   2.518
 1282WAT      O 4087   9.450   0.085   1.337
 1282WAT     H1 4088   9.433   0.127   1.248
 1282WAT     H2 4089   9.461  -0.014   1.326
 1283WAT      O 4090   4.774   3.189   8.421
 1283WAT     H1 4091   4.813   3.099   8.442
 1283WAT     H2 4092   4.825   3.260   8.470
 1284WAT      O 4093   6.182   0.822   0.461
 1284WAT     H1 4094   6.113   0.854   0.526
 1284WAT     H2 4095   6.141   0.755   0.400
 1285WAT      O 4096   0.481   0.042   1.494
 1285WAT     H1 4097   0.532  -0.041   1.515
 1285WAT     H2 4098   0.443   0.080   1.579
 1286WAT      O 4099   5.886   8.853   5.057
 1286WAT     H1 4100   5.825   8.932   5.055
 1286WAT     H2 4101   5.962   8.871   5.120
 1287WAT      O 4102   4.112   4.158   6.229
 1287WAT     H1 4103   4.111   4.080   6.166
 1287WAT     H2 4104   4.108   4.243   6.178
 1288WAT      O 4105   5.536   7.120   7.882
 1288WAT     H1 4106   5.468   7.142   7.952
 1288WAT     H2 4107   5.513   7.165   7.796
 1289WAT      O 4108   9.404   0.908   8.861
 1289WAT     H1 4109   9.315   0.864   8.847
 1289WAT     H2 4110   9.477   0.842   8.841
 1290WAT      O 4111   4.978   9.588   3.854
 1290WAT     H1 4112   4.883   9.564   3.876
 1290WAT     H2 4113   5.021   9.630   3.933
 1291WAT      O 4114   1.373   0.491   6.036
 1291WAT     H1 4115   1.280   0.521   6.059
 1291WAT     H2 4116   1.395   0.408   6.088
 1292WAT      O 4117   1.579   1.834   8.609
 1292WAT     H1 4118   1.582   1.863   8.705
 1292WAT     H2 4119   1.520   1.754   8.600
 1293WAT      O 4120   5.542   2.066   1.357
 1293WAT     H1 4121   5.566   1.990   1.417
 1293WAT     H2 4122   5.459   2.111   1.392
 1294WAT      O 4123   6.625   0.574   0.814
 1294WAT     H1 4124   6.532   0.612   0.817
 1294WAT     H2 4125   6.627   0.496   0.752
 1295WAT      O 4126   5.788   3.678   7.660
 1295WAT     H1 4127   5.749   3.764   7.694
 1295WAT     H2 4128   5.884   3.692   7.637
 1296WAT      O 4129   0.520   5.807   1.474
 1296WAT     H1 4130   0.609   5.832   1.436
 1296WAT     H2 4131   0.483   5.884   1.525
 1297WAT      O 4132   2.258   9.105   1.100
 1297WAT     H1 4133   2.215   9.195   1.112
 1297WAT     H2 4134   2.328   9.111   1.029
 1298WAT      O 4135   8.189   8.493   1.263
 1298WAT     H1 4136   8.107   8.460   1.215
 1298WAT     H2 4137   8.232   8.418   1.313
 1299WAT      O 4138   6.331   7.817   6.589
 1299WAT     H1 4139   6.278   7.901   6.576
 1299WAT     H2 4140   6.363   7.784   6.500
 1300WAT      O 4141   8.608   8.987   0.444
 1300WAT     H1 4142   8.666   8.912   0.475
 1300WAT     H2 4143   8.523   8.987   0.497
 1301WAT      O 4144   6.171   5.263   3.085
 1301WAT     H1 4145   6.209   5.196   3.149
 1301WAT     H2 4146   6.155   5.349   3.134
 1302WAT      O 4147   1.246   7.989   1.246
 1302WAT     H1 4148   1.195   7.905   1.226
 1302WAT     H2 4149   1.182   8.065   1.259
 1303WAT      O 4150   9.671   8.022   5.282
 1303WAT     H1 4151   9.682   8.021   5.182
 1303WAT     H2 4152   9.587   7.975   5.306
 1304WAT      O 4153   1.548   4.747   9.793
 1304WAT     H1 4154   1.507   4.770   9.881
 1304WAT     H2 4155   1.622   4.681   9.806
 1305WAT      O 4156   9.254   8.602   3.668
 1305WAT     H1 4157   9.308   8.546   3.605
 1305WAT     H2 4158   9.220   8.683   3.620
 1306WAT      O 4159   0.940   0.835   2.212
 1306WAT     H1 4160   0.964   0.884   2.128
 1306WAT     H2 4161   0.985   0.746   2.213
 1307WAT      O 4162   6.729   1.346   0.653
 1307WAT     H1 4163   6.771   1.339   0.744
 1307WAT     H2 4164   6.766   1.274   0.594
 1308WAT      O 4165   9.739   1.560   6.542
 1308WAT     H1 4166   9.665   1.517   6.594
 1308WAT     H2 4167   9.710   1.649   6.508
 1309WAT      O 4168   1.160   6.901   5.856
 1309WAT     H1 4169   1.210   6.886   5.941
 1309WAT     H2 4170   1.220   6.882   5.778
 1310WAT      O 4171   6.529   6.171   3.013
 1310WAT     H1 4172   6.517   6.268   3.032
 1310WAT     H2 4173   6.574   6.127   3.090
 1311WAT      O 4174   7.972   6.199   0.361
 1311WAT     H1 4175   8.057   6.150   0.380
 1311WAT     H2 4176   7.988   6.265   0.288
 1312WAT      O 4177   4.791   2.897   1.017
 1312WAT     H1 4178   4.754   2.840   0.943
 1312WAT     H2 4179   4.731   2.890   1.097
 1313WAT      O 4180   4.655   9.079   9.026
 1313WAT     H1 4181   4.719   9.048   8.956
 1313WAT     H2 4182   4.608   9.161   8.993
 1314WAT      O 4183   1.976   1.783   0.401
 1314WAT     H1 4184   1.917   1.845   0.349
 1314WAT     H2 4185   2.068   1.821   0.405
 1315WAT      O 4186   3.527   0.698   5.639
 1315WAT     H1 4187   3.509   0.784   5.592
 1315WAT     H2 4188   3.464   0.688   5.716
 1316WAT      O 4189   3.244   7.692   7.529
 1316WAT     H1 4190   3.173   7.747   7.487
 1316WAT     H2 4191   3.292   7.639   7.459
 1317WAT      O 4192   6.688   1.368   6.751
 1317WAT     H1 4193   6.780   1.394   6.782
 1317WAT     H2 4194   6.645   1.310   6.821
 1318WAT      O 4195   6.186   9.455   7.288
 1318WAT     H1 4196   6.196   9.359   7.263
 1318WAT     H2 4197   6.271   9.487   7.331
 1319WAT      O 4198   3.049   2.696   1.918
 1319WAT     H1 4199   2.983   2.675   1.847
 1319WAT     H2 4200   3.041   2.793   1.943
 1320WAT      O 4201   4.753   1.019   9.629
 1320WAT     H1 4202   4.760   1.079   9.708
 1320WAT     H2 4203   4.768   0.924   9.658
 1321WAT      O 4204   2.682   7.439   2.993
 1321WAT     H1 4205   2.774   7.404   2.980
 1321WAT     H2 4206   2.641   7.461   2.904
 1322WAT      O 4207   2.371   4.869   3.590
 1322WAT     H1 4208   2.387   4.869   3.491
 1322WAT     H2 4209   2.338   4.959   3.619
 1323WAT      O 4210   6.841   6.810   3.197
 1323WAT     H1 4211   6.833   6.860   3.283
 1323WAT     H2 4212   6.755   6.816   3.146
 1324WAT      O 4213   3.136   7.727   3.519
 1324WAT     H1 4214   3.146   7.793   3.445
 1324WAT     H2 4215   3.223   7.678   3.532
 1325WAT      O 4216   1.112   1.571   7.230
 1325WAT     H1 4217   1.170   1.512   7.173
 1325WAT     H2 4218   1.140   1.563   7.326
 1326WAT      O 4219   3.746   1.425   0.925
 1326WAT     H1 4220   3.776   1.330   0.911
 1326WAT     H2 4221   3.806   1.486   0.874
 1327WAT      O 4222   7.858   9.512   1.997
 1327WAT     H1 4223   7.848   9.608   2.021
 1327WAT     H2 4224   7.915   9.504   1.915
 1328WAT      O 4225   6.652   8.142   2.182
 1328WAT     H1 4226   6.714   8.215   2.210
 1328WAT     H2 4227   6.671   8.115   2.088
 1329WAT      O 4228   7.608   8.602   4.097
 1329WAT     H1 4229   7.581   8.621   4.002
 1329WAT     H2 4230   7.682   8.534   4.096
 1330WAT      O 4231   4.462   6.438   3.209
 1330WAT     H1 4232   4.440   6.534   3.230
 1330WAT     H2 4233   4.469   6.427   3.110
 1331WAT      O 4234   0.115   8.358   9.684
 1331WAT     H1 4235   0.052   8.383   9.610
 1331WAT     H2 4236   0.208   8.356   9.650
 1332WAT      O 4237   6.851   0.384   8.986
 1332WAT     H1 4238   6.756   0.414   8.995
 1332WAT     H2 4239   6.872   0.316   9.056
 1333WAT      O 4240   9.433   1.791   7.092
 1333WAT     H1 4241   9.422   1.821   6.998
 1333WAT     H2 4242   9.415   1.868   7.154
 1334WAT      O 4243   8.480   2.167   8.115
 1334WAT     H1 4244   8.551   2.144   8.182
 1334WAT     H2 4245   8.450   2.083   8.068
 1335WAT      O 4246   7.240   0.913   8.963
 1335WAT     H1 4247   7.297   0.881   8.888
 1335WAT     H2 4248   7.251   0.853   9.042
 1336WAT      O 4249   1.648   8.896   3.779
 1336WAT     H1 4250   1.634   8.877   3.682
 1336WAT     H2 4251   1.560   8.895   3.827
 1337WAT      O 4252   4.331   1.527   7.821
 1337WAT     H1 4253   4.396   1.531   7.745
 1337WAT     H2 4254   4.372   1.481   7.899
 1338WAT      O 4255   9.416   4.453   9.404
 1338WAT     H1 4256   9.374   4.411   9.323
 1338WAT     H2 4257   9.482   4.391   9.444
 1339WAT      O 4258   9.244   9.093   3.477
 1339WAT     H1 4259   9.154   9.116   3.515
 1339WAT     H2 4260   9.315   9.133   3.534
 1340WAT      O 4261   7.947   4.536   3.699
 1340WAT     H1 4262   7.866   4.594   3.686
 1340WAT     H2 4263   7.968   4.488   3.614
 1341WAT      O 4264   7.479   0.636   4.209
 1341WAT     H1 4265   7.472   0.701   4.284
 1341WAT     H2 4266   7.436   0.550   4.235
 1342WAT      O 4267   0.365   6.949   0.905
 1342WAT     H1 4268   0.331   6.922   0.995
 1342WAT     H2 4269   0.302   7.015   0.863
 1343WAT      O 4270   8.182   9.134   4.336
 1343WAT     H1 4271   8.279   9.153   4.353
 1343WAT     H2 4272   8.174   9.051   4.281
 1344WAT      O 4273   0.592   0.941   9.677
 1344WAT     H1 4274   0.522   0.871   9.662
 1344WAT     H2 4275   0.567   0.997   9.756
 1345WAT      O 4276   7.778   9.654   0.412
 1345WAT     H1 4277   7.846   9.615   0.475
 1345WAT     H2 4278   7.770   9.596   0.331
 1346WAT      O 4279   6.260   4.264   0.178
 1346WAT     H1 4280   6.169   4.302   0.166
 1346WAT     H2 4281   6.326   4.338   0.194
 1347WAT      O 4282   0.260   7.374   4.785
 1347WAT     H1 4283   0.240   7.280   4.812
 1347WAT     H2 4284   0.194   7.403   4.715
 1348WAT      O 4285   4.381   3.003   3.264
 1348WAT     H1 4286   4.312   2.930   3.257
 1348WAT     H2 4287   4.335   3.090   3.283
 1349WAT      O 4288   9.132   3.574   2.894
 1349WAT     H1 4289   9.166   3.530   2.977
 1349WAT     H2 4290   9.032   3.574   2.895
 1350WAT      O 4291   4.741   1.306   0.221
 1350WAT     H1 4292   4.663   1.368   0.228
 1350WAT     H2 4293   4.746   1.249   0.303
 1351WAT      O 4294   9.139   4.550   8.575
 1351WAT     H1 4295   9.057   4.504   8.608
 1351WAT     H2 4296   9.115   4.641   8.541
 1352WAT      O 4297   8.660   4.783   9.536
 1352WAT     H1 4298   8.641   4.801   9.633
 1352WAT     H2 4299   8.675   4.685   9.523
 1353WAT      O 4300   4.526   8.866   1.265
 1353WAT     H1 4301   4.600   8.931   1.277
 1353WAT     H2 4302   4.487   8.876   1.174
 1354WAT      O 4303   0.608   4.796   3.400
 1354WAT     H1 4304   0.692   4.796   3.346
 1354WAT     H2 4305   0.563   4.707   3.393
 1355WAT      O 4306   9.231   3.437   3.896
 1355WAT     H1 4307   9.247   3.521   3.947
 1355WAT     H2 4308   9.133   3.415   3.898
 1356WAT      O 4309   5.496   6.968   6.376
 1356WAT     H1 4310   5.409   7.010   6.400
 1356WAT     H2 4311   5.504   6.879   6.422
 1357WAT      O 4312   9.100   0.487   6.631
 1357WAT     H1 4313   9.124   0.500   6.535
 1357WAT     H2 4314   9.183   0.491   6.687
 1358WAT      O 4315   7.741   0.946   7.546
 1358WAT     H1 4316   7.746   0.967   7.644
 1358WAT     H2 4317   7.648   0.966   7.513
 1359WAT      O 4318   1.546   7.880   5.861
 1359WAT     H1 4319   1.583   7.833   5.941
 1359WAT     H2 4320   1.562   7.978   5.869
 1360WAT      O 4321   5.312   9.624   2.997
 1360WAT     H1 4322   5.239   9.620   2.928
 1360WAT     H2 4323   5.401   9.626   2.952
 1361WAT      O 4324   0.346   1.827   7.635
 1361WAT     H1 4325   0.295   1.813   7.550
 1361WAT     H2 4326   0.286   1.813   7.713
 1362WAT      O 4327   4.958   3.490   8.034
 1362WAT     H1 4328   4.978   3.450   8.124
 1362WAT     H2 4329   4.864   3.523   8.032
 1363WAT      O 4330   0.371   8.180   6.914
 1363WAT     H1 4331   0.400   8.242   6.987
 1363WAT     H2 4332   0.281   8.207   6.881
 1364WAT      O 4333   8.301   2.422   2.054
 1364WAT     H1 4334   8.312   2.521   2.049
 1364WAT     H2 4335   8.362   2.385   2.124
 1365WAT      O 4336   8.836   2.566   3.243
 1365WAT     H1 4337   8.890   2.594   3.163
 1365WAT     H2 4338   8.788   2.481   3.223
 1366WAT      O 4339   3.452   6.646   0.179
 1366WAT     H1 4340   3.512   6.725   0.189
 1366WAT     H2 4341   3.368   6.661   0.230
 1367WAT      O 4342   0.160   6.175   4.046
 1367WAT     H1 4343   0.104   6.186   3.964
 1367WAT     H2 4344   0.211   6.259   4.064
 1368WAT      O 4345   0.752   4.519   4.782
 1368WAT     H1 4346   0.779   4.571   4.701
 1368WAT     H2 4347   0.654   4.498   4.777
 1369WAT      O 4348   3.671   1.455   2.349
 1369WAT     H1 4349   3.770   1.467   2.351
 1369WAT     H2 4350   3.626   1.544   2.340
 1370WAT      O 4351   1.652   3.646   7.474
 1370WAT     H1 4352   1.576   3.621   7.413
 1370WAT     H2 4353   1.687   3.736   7.448
 1371WAT      O 4354   1.134   6.970   7.515
 1371WAT     H1 4355   1.099   6.876   7.525
 1371WAT     H2 4356   1.193   6.992   7.592
 1372WAT      O 4357   6.412   4.722   7.702
 1372WAT     H1 4358   6.479   4.758   7.637
 1372WAT     H2 4359   6.449   4.728   7.795
 1373WAT      O 4360   8.727   1.606   0.436
 1373WAT     H1 4361   8.694   1.540   0.369
 1373WAT     H2 4362   8.676   1.595   0.522
 1374WAT      O 4363   0.425   1.102   7.697
 1374WAT     H1 4364   0.496   1.069   7.759
 1374WAT     H2 4365   0.456   1.186   7.652
 1375WAT      O 4366   3.603   1.413   0.222
 1375WAT     H1 4367   3.516   1.387   0.264
 1375WAT     H2 4368   3.675   1.415   0.291
 1376WAT      O 4369   7.648   9.078   3.415
 1376WAT     H1 4370   7.579   9.069   3.343
 1376WAT     H2 4371   7.710   9.154   3.393
 1377WAT      O 4372   0.517   7.392   5.857
 1377WAT     H1 4373   0.599   7.443   5.832
 1377WAT     H2 4374   0.533   7.294   5.843
 1378WAT      O 4375   4.222   2.887   7.534
 1378WAT     H1 4376   4.140   2.944   7.529
 1378WAT     H2 4377   4.284   2.923   7.603
 1379WAT      O 4378   3.448   6.455   9.607
 1379WAT     H1 4379   3.449   6.431   9.510
 1379WAT     H2 4380   3.375   6.404   9.653
 1380WAT      O 4381   5.476   7.453   7.831
 1380WAT     H1 4382   5.507   7.377   7.774
 1380WAT     H2 4383   5.550   7.480   7.893
 1381WAT      O 4384   3.744   8.396   0.372
 1381WAT     H1 4385   3.733   8.490   0.405
 1381WAT     H2 4386   3.820   8.392   0.307
 1382WAT      O 4387   9.683   3.205   0.785
 1382WAT     H1 4388   9.765   3.262   0.784
 1382WAT     H2 4389   9.707   3.113   0.754
 1383WAT      O 4390   2.758   8.248   5.569
 1383WAT     H1 4391   2.669   8.205   5.582
 1383WAT     H2 4392   2.759   8.338   5.614
 1384WAT      O 4393   2.489   7.518   8.418
 1384WAT     H1 4394   2.474   7.617   8.423
 1384WAT     H2 4395   2.548   7.498   8.340
 1385WAT      O 4396   6.426   1.076   3.061
 1385WAT     H1 4397   6.375   1.149   3.016
 1385WAT     H2 4398   6.524   1.093   3.052
 1386WAT      O 4399   2.048   2.452   4.587
 1386WAT     H1 4400   2.061   2.360   4.625
 1386WAT     H2 4401   2.001   2.446   4.499
 1387WAT      O 4402   3.290   7.256   3.716
 1387WAT     H1 4403   3.345   7.301   3.787
 1387WAT     H2 4404   3.342   7.180   3.678
 1388WAT      O 4405   4.890   3.116   7.567
 1388WAT     H1 4406   4.840   3.160   7.641
 1388WAT     H2 4407   4.846   3.137   7.480
 1389WAT      O 4408   5.173   4.523   8.598
 1389WAT     H1 4409   5.118   4.492   8.520
 1389WAT     H2 4410   5.260   4.560   8.564
 1390WAT      O 4411   8.478   5.422   6.505
 1390WAT     H1 4412   8.383   5.409   6.476
 1390WAT     H2 4413   8.496   5.520   6.518
 1391WAT      O 4414   5.966   4.027   8.674
 1391WAT     H1 4415   5.961   3.937   8.631
 1391WAT     H2 4416   5.908   4.091   8.624
 1392WAT      O 4417   3.297   0.525   1.003
 1392WAT     H1 4418   3.207   0.555   0.971
 1392WAT     H2 4419   3.329   0.586   1.076
 1393WAT      O 4420   7.469   8.447   4.298
 1393WAT     H1 4421   7.525   8.489   4.226
 1393WAT     H2 4422   7.494   8.351   4.307
 1394WAT      O 4423   8.129   4.051   9.834
 1394WAT     H1 4424   8.037   4.065   9.871
 1394WAT     H2 4425   8.169   3.969   9.876
 1395WAT      O 4426   0.993   0.386   3.080
 1395WAT     H1 4427   0.954   0.366   2.991
 1395WAT     H2 4428   0.976   0.482   3.104
 1396WAT      O 4429   1.790   0.233   7.021
 1396WAT     H1 4430   1.734   0.189   7.091
 1396WAT     H2 4431   1.733   0.262   6.945
 1397WAT      O 4432   2.556   1.006   6.400
 1397WAT     H1 4433   2.516   0.964   6.482
 1397WAT     H2 4434   2.499   0.983   6.321
 1398WAT      O 4435   5.932   9.041   4.164
 1398WAT     H1 4436   6.029   9.038   4.188
 1398WAT     H2 4437   5.889   8.953   4.187
 1399WAT      O 4438   8.206   8.168   2.341
 1399WAT     H1 4439   8.188   8.225   2.261
 1399WAT     H2 4440   8.119   8.131   2.375
 1400WAT      O 4441   3.105   0.610   4.514
 1400WAT     H1 4442   3.116   0.697   4.465
 1400WAT     H2 4443   3.191   0.559   4.513
 1401WAT      O 4444   7.326   3.899   5.438
 1401WAT     H1 4445   7.355   3.886   5.343
 1401WAT     H2 4446   7.378   3.973   5.478
 1402WAT      O 4447   6.457   4.471   8.774
 1402WAT     H1 4448   6.472   4.495   8.870
 1402WAT     H2 4449   6.364   4.495   8.747
 1403WAT      O 4450   2.722   9.402   1.501
 1403WAT     H1 4451   2.645   9.462   1.481
 1403WAT     H2 4452   2.795   9.455   1.544
 1404WAT      O 4453   4.444   5.259   6.773
 1404WAT     H1 4454   4.453   5.348   6.818
 1404WAT     H2 4455   4.510   5.195   6.813
 1405WAT      O 4456   8.450   8.195   7.790
 1405WAT     H1 4457   8.457   8.227   7.884
 1405WAT     H2 4458   8.420   8.099   7.789
 1406WAT      O 4459   7.964   1.716   6.173
 1406WAT     H1 4460   7.906   1.647   6.217
 1406WAT     H2 4461   7.928   1.735   6.081
 1407WAT      O 4462   7.562   6.869   1.342
 1407WAT     H1 4463   7.532   6.916   1.259
 1407WAT     H2 4464   7.562   6.770   1.325
 1408WAT      O 4465   3.921   8.504   4.715
 1408WAT     H1 4466   3.880   8.587   4.752
 1408WAT     H2 4467   3.850   8.434   4.703
 1409WAT      O 4468   2.188   6.180   5.511
 1409WAT     H1 4469   2.154   6.246   5.445
 1409WAT     H2 4470   2.122   6.169   5.585
 1410WAT      O 4471   8.981   8.564   1.077
 1410WAT     H1 4472   9.009   8.474   1.110
 1410WAT     H2 4473   9.043   8.593   1.004
 1411WAT      O 4474   0.008   7.485   5.311
 1411WAT     H1 4475   0.005   7.498   5.212
 1411WAT     H2 4476   0.071   7.551   5.351
 1412WAT      O 4477   2.221   2.588   1.720
 1412WAT     H1 4478   2.183   2.674   1.687
 1412WAT     H2 4479   2.175   2.511   1.675
 1413WAT      O 4480   7.564   1.527   0.065
 1413WAT     H1 4481   7.469   1.513   0.038
 1413WAT     H2 4482   7.623   1.513  -0.015
 1414WAT      O 4483   1.403   1.412   8.316
 1414WAT     H1 4484   1.496   1.398   8.280
 1414WAT     H2 4485   1.337   1.405   8.242
 1415WAT      O 4486   3.242   4.541   9.851
 1415WAT     H1 4487   3.202   4.624   9.811
 1415WAT     H2 4488   3.232   4.465   9.787
 1416WAT      O 4489   2.868   2.034   0.431
 1416WAT     H1 4490   2.920   2.066   0.352
 1416WAT     H2 4491   2.845   1.937   0.418
 1417WAT      O 4492   1.002   4.022   3.740
 1417WAT     H1 4493   1.058   3.941   3.758
 1417WAT     H2 4494   1.050   4.104   3.772
 1418WAT      O 4495   4.856   2.663   5.855
 1418WAT     H1 4496   4.934   2.635   5.911
 1418WAT     H2 4497   4.772   2.649   5.907
 1419WAT      O 4498   7.989   3.239   1.596
 1419WAT     H1 4499   8.068   3.180   1.616
 1419WAT     H2 4500   7.949   3.213   1.508
 1420WAT      O 4501   9.245   3.813   5.155
 1420WAT     H1 4502   9.207   3.786   5.067
 1420WAT     H2 4503   9.218   3.907   5.175
 1421WAT      O 4504   0.049   9.604   2.205
 1421WAT     H1 4505   0.076   9.519   2.160
 1421WAT     H2 4506  -0.039   9.590   2.251
 1422WAT      O 4507   4.107   1.230   9.788
 1422WAT     H1 4508   4.100   1.153   9.724
 1422WAT     H2 4509   4.133   1.196   9.878
 1423WAT      O 4510   6.524   9.736   1.266
 1423WAT     H1 4511   6.506   9.680   1.185
 1423WAT     H2 4512   6.438   9.769   1.304
 1424WAT      O 4513   5.663   8.443   5.689
 1424WAT     H1 4514   5.576   8.484   5.662
 1424WAT     H2 4515   5.646   8.370   5.755
 1425WAT      O 4516   4.006   7.567   4.598
 1425WAT     H1 4517   3.936   7.498   4.613
 1425WAT     H2 4518   3.966   7.646   4.551
 1426WAT      O 4519   4.135   4.421   0.019
 1426WAT     H1 4520   4.172   4.411  -0.073
 1426WAT     H2 4521   4.195   4.478   0.074
 1427WAT      O 4522   4.064   6.326   1.651
 1427WAT     H1 4523   3.972   6.350   1.618
 1427WAT     H2 4524   4.126   6.403   1.636
 1428WAT      O 4525   0.425   8.332   7.142
 1428WAT     H1 4526   0.374   8.413   7.170
 1428WAT     H2 4527   0.495   8.311   7.210
 1429WAT      O 4528   5.018   1.195   4.375
 1429WAT     H1 4529   5.044   1.292   4.378
 1429WAT     H2 4530   4.919   1.187   4.381
 1430WAT      O 4531   8.355   5.075   5.574
 1430WAT     H1 4532   8.392   5.165   5.552
 1430WAT     H2 4533   8.273   5.059   5.520
 1431WAT      O 4534   8.947   0.421   5.911
 1431WAT     H1 4535   8.873   0.455   5.854
 1431WAT     H2 4536   8.944   0.465   6.000
 1432WAT      O 4537   6.550   8.835   3.816
 1432WAT     H1 4538   6.568   8.854   3.913
 1432WAT     H2 4539   6.617   8.768   3.783
 1433WAT      O 4540   0.519   0.084   0.474
 1433WAT     H1 4541   0.489   0.178   0.487
 1433WAT     H2 4542   0.575   0.077   0.392
 1434WAT      O 4543   6.412   5.657   5.397
 1434WAT     H1 4544   6.367   5.598   5.330
 1434WAT     H2 4545   6.487   5.706   5.352
 1435WAT      O 4546   2.636   6.634   6.510
 1435WAT     H1 4547   2.590   6.693   6.444
 1435WAT     H2 4548   2.696   6.689   6.569
 1436WAT      O 4549   3.966   7.353   3.608
 1436WAT     H1 4550   4.058   7.315   3.621
 1436WAT     H2 4551   3.967   7.418   3.532
 1437WAT      O 4552   3.722   0.832   2.228
 1437WAT     H1 4553   3.669   0.776   2.291
 1437WAT     H2 4554   3.813   0.847   2.266
 1438WAT      O 4555   5.333   2.001   7.262
 1438WAT     H1 4556   5.394   2.058   7.317
 1438WAT     H2 4557   5.285   2.058   7.195
 1439WAT      O 4558   3.899   8.235   6.256
 1439WAT     H1 4559   3.821   8.175   6.276
 1439WAT     H2 4560   3.882   8.284   6.171
 1440WAT      O 4561   3.050   3.326   4.052
 1440WAT     H1 4562   2.982   3.392   4.021
 1440WAT     H2 4563   3.142   3.363   4.038
 1441WAT      O 4564   1.811   7.479   3.297
 1441WAT     H1 4565   1.795   7.381   3.298
 1441WAT     H2 4566   1.748   7.523   3.362
 1442WAT      O 4567   7.317   1.561   4.105
 1442WAT     H1 4568   7.415   1.553   4.086
 1442WAT     H2 4569   7.303   1.616   4.187
 1443WAT      O 4570   4.292   1.694   4.000
 1443WAT     H1 4571   4.360   1.722   4.068
 1443WAT     H2 4572   4.233   1.771   3.978
 1444WAT      O 4573   1.156   5.696   2.633
 1444WAT     H1 4574   1.116   5.633   2.699
 1444WAT     H2 4575   1.094   5.707   2.555
 1445WAT      O 4576   3.049   3.207   4.775
 1445WAT     H1 4577   3.042   3.126   4.717
 1445WAT     H2 4578   2.992   3.280   4.737
 1446WAT      O 4579   7.279   9.712   4.842
 1446WAT     H1 4580   7.234   9.801   4.827
 1446WAT     H2 4581   7.240   9.670   4.924
 1447WAT      O 4582   0.044   4.424   2.207
 1447WAT     H1 4583   0.031   4.523   2.201
 1447WAT     H2 4584   0.120   4.404   2.269
 1448WAT      O 4585   2.808   1.666   0.135
 1448WAT     H1 4586   2.805   1.712   0.046
 1448WAT     H2 4587   2.814   1.567   0.120
 1449WAT      O 4588   9.800   2.553   5.151
 1449WAT     H1 4589   9.861   2.553   5.231
 1449WAT     H2 4590   9.765   2.460   5.137
 1450WAT      O 4591   3.100   1.437   5.487
 1450WAT     H1 4592   3.076   1.340   5.489
 1450WAT     H2 4593   3.117   1.469   5.581
 1451WAT      O 4594   1.779   9.158   6.361
 1451WAT     H1 4595   1.705   9.101   6.395
 1451WAT     H2 4596   1.836   9.189   6.437
 1452WAT      O 4597   5.910   7.594   6.364
 1452WAT     H1 4598   5.922   7.501   6.330
 1452WAT     H2 4599   5.856   7.647   6.298
 1453WAT      O 4600   0.700   4.656   6.953
 1453WAT     H1 4601   0.629   4.630   6.887
 1453WAT     H2 4602   0.656   4.682   7.039
 1454WAT      O 4603   3.894   9.602   2.864
 1454WAT     H1 4604   3.987   9.567   2.852
 1454WAT     H2 4605   3.830   9.525   2.867
 1455WAT      O 4606   9.854   0.256   6.871
 1455WAT     H1 4607   9.892   0.344   6.901
 1455WAT     H2 4608   9.807   0.212   6.948
 1456WAT      O 4609   7.201   7.943   3.780
 1456WAT     H1 4610   7.253   7.864   3.812
 1456WAT     H2 4611   7.142   7.915   3.703
 1457WAT      O 4612   9.244   5.808   7.827
 1457WAT     H1 4613   9.288   5.719   7.818
 1457WAT     H2 4614   9.312   5.875   7.858
 1458WAT      O 4615   4.760   7.283   5.357
 1458WAT     H1 4616   4.710   7.320   5.436
 1458WAT     H2 4617   4.855   7.313   5.362
 1459WAT      O 4618   5.446   8.337   9.371
 1459WAT     H1 4619   5.520   8.401   9.347
 1459WAT     H2 4620   5.431   8.340   9.470
 1460WAT      O 4621   9.388   7.956   5.038
 1460WAT     H1 4622   9.392   8.003   4.949
 1460WAT     H2 4623   9.432   7.867   5.031
 1461WAT      O 4624   6.763   6.034   7.947
 1461WAT     H1 4625   6.810   5.951   7.977
 1461WAT     H2 4626   6.698   6.063   8.017
 1462WAT      O 4627   1.104   9.632   7.285
 1462WAT     H1 4628   1.073   9.660   7.194
 1462WAT     H2 4629   1.149   9.709   7.330
 1463WAT      O 4630   6.662   2.889   3.259
 1463WAT     H1 4631   6.659   2.961   3.328
 1463WAT     H2 4632   6.732   2.911   3.191
 1464WAT      O 4633   9.656   0.934   1.057
 1464WAT     H1 4634   9.680   0.891   1.144
 1464WAT     H2 4635   9.562   0.909   1.033
 1465WAT      O 4636   2.192   2.443   9.278
 1465WAT     H1 4637   2.177   2.344   9.274
 1465WAT     H2 4638   2.115   2.487   9.325
 1466WAT      O 4639   6.064   2.770   5.835
 1466WAT     H1 4640   6.047   2.807   5.926
 1466WAT     H2 4641   6.157   2.795   5.806
 1467WAT      O 4642   1.083   3.345   3.747
 1467WAT     H1 4643   0.992   3.372   3.778
 1467WAT     H2 4644   1.094   3.370   3.651
 1468WAT      O 4645   4.122   7.951   3.532
 1468WAT     H1 4646   4.167   8.038   3.554
 1468WAT     H2 4647   4.027   7.954   3.563
 1469WAT      O 4648   8.578   6.794   7.050
 1469WAT     H1 4649   8.650   6.794   7.119
 1469WAT     H2 4650   8.612   6.751   6.966
 1470WAT      O 4651   3.731   6.644   3.281
 1470WAT     H1 4652   3.779   6.567   3.239
 1470WAT     H2 4653   3.688   6.613   3.366
 1471WAT      O 4654   9.209   0.080   8.019
 1471WAT     H1 4655   9.135   0.052   8.079
 1471WAT     H2 4656   9.205   0.028   7.934
 1472WAT      O 4657   7.305   8.792   0.856
 1472WAT     H1 4658   7.322   8.770   0.952
 1472WAT     H2 4659   7.209   8.772   0.834
 1473WAT      O 4660   3.249   4.632   7.061
 1473WAT     H1 4661   3.344   4.661   7.073
 1473WAT     H2 4662   3.223   4.644   6.965
 1474WAT      O 4663   9.014   6.135   8.270
 1474WAT     H1 4664   9.070   6.215   8.291
 1474WAT     H2 4665   8.967   6.105   8.353
 1475WAT      O 4666   4.291   5.294   6.562
 1475WAT     H1 4667   4.281   5.202   6.524
 1475WAT     H2 4668   4.353   5.291   6.640
 1476WAT      O 4669   4.005   9.509   3.523
 1476WAT     H1 4670   3.995   9.518   3.622
 1476WAT     H2 4671   4.019   9.599   3.483
 1477WAT      O 4672   1.775   2.523   3.834
 1477WAT     H1 4673   1.746   2.502   3.741
 1477WAT     H2 4674   1.726   2.464   3.898
 1478WAT      O 4675   4.876   1.471   5.988
 1478WAT     H1 4676   4.828   1.521   6.060
 1478WAT     H2 4677   4.905   1.535   5.917
 1479WAT      O 4678   7.742   1.238   1.948
 1479WAT     H1 4679   7.805   1.201   1.880
 1479WAT     H2 4680   7.649   1.236   1.911
 1480WAT      O 4681   3.008   6.183   5.903
 1480WAT     H1 4682   3.037   6.088   5.891
 1480WAT     H2 4683   2.915   6.186   5.940
 1481WAT      O 4684   7.795   1.456   5.337
 1481WAT     H1 4685   7.807   1.550   5.369
 1481WAT     H2 4686   7.879   1.425   5.293
 1482WAT      O 4687   0.510   1.799   5.218
 1482WAT     H1 4688   0.541   1.844   5.134
 1482WAT     H2 4689   0.571   1.722   5.238
 1483WAT      O 4690   7.797   5.343   9.169
 1483WAT     H1 4691   7.773   5.386   9.257
 1483WAT     H2 4692   7.893   5.362   9.147
 1484WAT      O 4693   4.994   4.075   0.826
 1484WAT     H1 4694   5.037   4.160   0.797
 1484WAT     H2 4695   4.981   4.015   0.747
 1485WAT      O 4696   0.605   6.188   0.730
 1485WAT     H1 4697   0.524   6.152   0.684
 1485WAT     H2 4698   0.665   6.231   0.663
 1486WAT      O 4699   8.953   1.757   4.085
 1486WAT     H1 4700   8.970   1.690   4.013
 1486WAT     H2 4701   8.907   1.713   4.162
 1487WAT      O 4702   4.302   8.187   6.838
 1487WAT     H1 4703   4.219   8.216   6.791
 1487WAT     H2 4704   4.379   8.244   6.809
 1488WAT      O 4705   9.783   8.844   6.937
 1488WAT     H1 4706   9.819   8.801   7.020
 1488WAT     H2 4707   9.703   8.900   6.960
 1489WAT      O 4708   0.301   0.539   9.002
 1489WAT     H1 4709   0.387   0.533   8.951
 1489WAT     H2 4710   0.267   0.447   9.021
 1490WAT      O 4711   8.632   6.152   4.012
 1490WAT     H1 4712   8.635   6.235   3.956
 1490WAT     H2 4713   8.725   6.121   4.031
 1491WAT      O 4714   3.393   2.646   3.776
 1491WAT     H1 4715   3.471   2.624   3.719
 1491WAT     H2 4716   3.397   2.743   3.803
 1492WAT      O 4717   4.386   4.175   7.797
 1492WAT     H1 4718   4.445   4.228   7.735
 1492WAT     H2 4719   4.296   4.163   7.755
 1493WAT      O 4720   2.641   8.531   8.311
 1493WAT     H1 4721   2.601   8.539   8.219
 1493WAT     H2 4722   2.704   8.607   8.326
 1494WAT      O 4723   1.413   3.384   8.747
 1494WAT     H1 4724   1.421   3.311   8.815
 1494WAT     H2 4725   1.497   3.439   8.747
 1495WAT      O 4726   9.691   0.475   0.309
 1495WAT     H1 4727   9.788   0.464   0.287
 1495WAT     H2 4728   9.675   0.445   0.403
 1496WAT      O 4729   4.401   3.702   1.908
 1496WAT     H1 4730   4.305   3.726   1.923
 1496WAT     H2 4731   4.407   3.610   1.870
 1497WAT      O 4732   7.851   1.819   2.924
 1497WAT     H1 4733   7.902   1.747   2.971
 1497WAT     H2 4734   7.785   1.860   2.987
 1498WAT      O 4735   2.077   2.252   2.175
 1498WAT     H1 4736   2.094   2.245   2.077
 1498WAT     H2 4737   2.041   2.165   2.209
 1499WAT      O 4738   9.250   8.833   8.403
 1499WAT     H1 4739   9.197   8.853   8.485
 1499WAT     H2 4740   9.326   8.897   8.396
 1500WAT      O 4741   2.285   2.115   4.356
 1500WAT     H1 4742   2.333   2.168   4.286
 1500WAT     H2 4743   2.277   2.169   4.439
 1501WAT      O 4744   1.490   9.252   1.317
 1501WAT     H1 4745   1.552   9.313   1.367
 1501WAT     H2 4746   1.485   9.164   1.363
 1502WAT      O 4747   6.152   1.924   2.924
 1502WAT     H1 4748   6.151   1.879   2.835
 1502WAT     H2 4749   6.215   1.875   2.985
 1503WAT      O 4750   7.810   3.207   8.025
 1503WAT     H1 4751   7.899   3.163   8.040
 1503WAT     H2 4752   7.741   3.137   8.009
 1504WAT      O 4753   2.849   5.302   5.889
 1504WAT     H1 4754   2.767   5.359   5.884
 1504WAT     H2 4755   2.884   5.286   5.796
 1505WAT      O 4756   2.188   7.200   3.298
 1505WAT     H1 4757   2.115   7.145   3.259
 1505WAT     H2 4758   2.149   7.281   3.342
 1506WAT      O 4759   1.862   6.551   2.218
 1506WAT     H1 4760   1.791   6.507   2.162
 1506WAT     H2 4761   1.870   6.647   2.192
 1507WAT      O 4762   4.621   0.394   1.766
 1507WAT     H1 4763   4.700   0.454   1.752
 1507WAT     H2 4764   4.652   0.299   1.769
 1508WAT      O 4765   8.967   4.398   2.978
 1508WAT     H1 4766   8.991   4.459   2.903
 1508WAT     H2 4767   8.887   4.434   3.025
 1509WAT      O 4768   0.446   8.108   1.435
 1509WAT     H1 4769   0.519   8.150   1.489
 1509WAT     H2 4770   0.359   8.148   1.461
 1510WAT      O 4771   7.952   2.185   1.255
 1510WAT     H1 4772   7.972   2.211   1.160
 1510WAT     H2 4773   8.031   2.136   1.292
 1511WAT      O 4774   2.983   0.506   7.410
 1511WAT     H1 4775   2.974   0.561   7.327
 1511WAT     H2 4776   3.015   0.563   7.485
 1512WAT      O 4777   7.592   6.925   7.815
 1512WAT     H1 4778   7.631   6.850   7.761
 1512WAT     H2 4779   7.517   6.968   7.763
 1513WAT      O 4780   0.665   0.580   4.439
 1513WAT     H1 4781   0.716   0.497   4.418
 1513WAT     H2 4782   0.589   0.590   4.375
 1514WAT      O 4783   6.935   9.294   8.439
 1514WAT     H1 4784   6.835   9.299   8.436
 1514WAT     H2 4785   6.973   9.386   8.439
 1515WAT      O 4786   3.040   1.764   1.606
 1515WAT     H1 4787   2.983   1.836   1.646
 1515WAT     H2 4788   3.135   1.794   1.601
 1516WAT      O 4789   9.073   1.552   5.206
 1516WAT     H1 4790   9.089   1.580   5.112
 1516WAT     H2 4791   8.975   1.562   5.227
 1517WAT      O 4792   0.528   3.122   8.150
 1517WAT     H1 4793   0.461   3.047   8.153
 1517WAT     H2 4794   0.616   3.087   8.120
 1518WAT      O 4795   7.366   8.186   2.941
 1518WAT     H1 4796   7.323   8.238   3.015
 1518WAT     H2 4797   7.439   8.241   2.900
 1519WAT      O 4798   4.770   2.122   2.916
 1519WAT     H1 4799   4.686   2.174   2.899
 1519WAT     H2 4800   4.821   2.164   2.990
 1520WAT      O 4801   5.955   5.232   8.135
 1520WAT     H1 4802   5.966   5.179   8.219
 1520WAT     H2 4803   6.046   5.261   8.103
 1521WAT      O 4804   4.559   7.114   6.086
 1521WAT     H1 4805   4.608   7.192   6.046
 1521WAT     H2 4806   4.623   7.059   6.141
 1522WAT      O 4807   2.998   1.005   3.148
 1522WAT     H1 4808   3.088   1.032   3.113
 1522WAT     H2 4809   2.985   1.043   3.240
 1523WAT      O 4810   3.841   2.196   2.697
 1523WAT     H1 4811   3.814   2.146   2.614
 1523WAT     H2 4812   3.940   2.206   2.699
 1524WAT      O 4813   1.371   2.489   5.514
 1524WAT     H1 4814   1.433   2.411   5.527
 1524WAT     H2 4815   1.325   2.480   5.425
 1525WAT      O 4816   6.022   9.573   9.761
 1525WAT     H1 4817   6.036   9.645   9.829
 1525WAT     H2 4818   6.110   9.543   9.725
 1526WAT      O 4819   8.714   7.088   7.797
 1526WAT     H1 4820   8.789   7.071   7.733
 1526WAT     H2 4821   8.751   7.109   7.887
 1527WAT      O 4822   2.312   1.971   1.872
 1527WAT     H1 4823   2.377   1.927   1.810
 1527WAT     H2 4824   2.313   2.070   1.857
 1528WAT      O 4825   6.728   4.936   2.407
 1528WAT     H1 4826   6.662   4.886   2.463
 1528WAT     H2 4827   6.690   5.025   2.382
 1529WAT      O 4828   9.360   2.152   5.941
 1529WAT     H1 4829   9.380   2.204   6.024
 1529WAT     H2 4830   9.261   2.144   5.930
 1530WAT      O 4831   2.955   1.852   7.292
 1530WAT     H1 4832   2.992   1.762   7.318
 1530WAT     H2 4833   2.884   1.878   7.358
 1531WAT      O 4834   5.941   5.137   7.513
 1531WAT     H1 4835   6.030   5.181   7.502
 1531WAT     H2 4836   5.954   5.040   7.535
 1532WAT      O 4837   6.865   2.290   0.184
 1532WAT     H1 4838   6.963   2.283   0.203
 1532WAT     H2 4839   6.821   2.203   0.204
 1533WAT      O 4840   7.494   2.973   2.757
 1533WAT     H1 4841   7.483   3.071   2.742
 1533WAT     H2 4842   7.525   2.929   2.673
 1534WAT      O 4843   3.951   2.682   1.895
 1534WAT     H1 4844   4.018   2.735   1.842
 1534WAT     H2 4845   3.989   2.659   1.984
 1535WAT      O 4846   6.039   8.113   3.971
 1535WAT     H1 4847   6.001   8.118   3.879
 1535WAT     H2 4848   6.129   8.071   3.968
 1536WAT      O 4849   2.812   7.261   5.289
 1536WAT     H1 4850   2.863   7.180   5.320
 1536WAT     H2 4851   2.818   7.332   5.359
 1537WAT      O 4852   1.123   7.163   7.824
 1537WAT     H1 4853   1.155   7.093   7.889
 1537WAT     H2 4854   1.166   7.251   7.846
 1538WAT      O 4855   4.232   3.673   5.578
 1538WAT     H1 4856   4.135   3.692   5.562
 1538WAT     H2 4857   4.287   3.750   5.544
 1539WAT      O 4858   1.842   4.044   2.691
 1539WAT     H1 4859   1.817   4.115   2.626
 1539WAT     H2 4860   1.759   4.003   2.730
 1540WAT      O 4861   0.237   1.022   5.636
 1540WAT     H1 4862   0.218   1.118   5.619
 1540WAT     H2 4863   0.235   1.004   5.734
 1541WAT      O 4864   3.413   8.301   0.419
 1541WAT     H1 4865   3.437   8.213   0.458
 1541WAT     H2 4866   3.386   8.289   0.323
 1542WAT      O 4867   7.622   6.683   6.292
 1542WAT     H1 4868   7.674   6.602   6.267
 1542WAT     H2 4869   7.684   6.760   6.308
 1543WAT      O 4870   0.900   7.344   1.047
 1543WAT     H1 4871   0.805   7.369   1.065
 1543WAT     H2 4872   0.961   7.411   1.088
 1544WAT      O 4873   8.007   9.110   8.525
 1544WAT     H1 4874   8.069   9.069   8.458
 1544WAT     H2 4875   8.025   9.208   8.531
 1545WAT      O 4876   8.282   0.417   8.744
 1545WAT     H1 4877   8.357   0.354   8.723
 1545WAT     H2 4878   8.294   0.454   8.837
 1546WAT      O 4879   7.216   1.559   1.480
 1546WAT     H1 4880   7.120   1.545   1.501
 1546WAT     H2 4881   7.245   1.650   1.511
 1547WAT      O 4882   0.319   9.203   6.577
 1547WAT     H1 4883   0.250   9.253   6.525
 1547WAT     H2 4884   0.401   9.260   6.587
 1548WAT      O 4885   2.808   1.076   1.078
 1548WAT     H1 4886   2.733   1.108   1.137
 1548WAT     H2 4887   2.884   1.140   1.082
 1549WAT      O 4888   9.418   8.071   1.736
 1549WAT     H1 4889   9.467   8.023   1.808
 1549WAT     H2 4890   9.334   8.111   1.774
 1550WAT      O 4891   3.638   7.834   6.905
 1550WAT     H1 4892   3.722   7.885   6.923
 1550WAT     H2 4893   3.608   7.851   6.811
 1551WAT      O 4894   9.308   4.911   4.949
 1551WAT     H1 4895   9.303   4.962   5.034
 1551WAT     H2 4896   9.302   4.813   4.968
 1552WAT      O 4897   4.330   7.651   8.003
 1552WAT     H1 4898   4.321   7.626   8.100
 1552WAT     H2 4899   4.324   7.750   7.993
 1553WAT      O 4900   2.598   1.606   0.508
 1553WAT     H1 4901   2.538   1.667   0.456
 1553WAT     H2 4902   2.650   1.659   0.575
 1554WAT      O 4903   6.496   1.563   7.192
 1554WAT     H1 4904   6.454   1.488   7.244
 1554WAT     H2 4905   6.427   1.607   7.135
 1555WAT      O 4906   6.398   2.217   4.898
 1555WAT     H1 4907   6.498   2.219   4.903
 1555WAT     H2 4908   6.365   2.134   4.943
 1556WAT      O 4909   4.282   1.741   0.402
 1556WAT     H1 4910   4.188   1.707   0.389
 1556WAT     H2 4911   4.324   1.757   0.313
 1557WAT      O 4912   1.692   2.703   6.119
 1557WAT     H1 4913   1.595   2.707   6.098
 1557WAT     H2 4914   1.718   2.781   6.175
 1558WAT      O 4915   8.466   7.004   7.666
 1558WAT     H1 4916   8.438   6.947   7.744
 1558WAT     H2 4917   8.559   7.037   7.681
 1559WAT      O 4918   6.293   9.333   8.799
 1559WAT     H1 4919   6.345   9.413   8.831
 1559WAT     H2 4920   6.295   9.262   8.869
 1560WAT      O 4921   6.332   9.166   6.427
 1560WAT     H1 4922   6.322   9.259   6.394
 1560WAT     H2 4923   6.421   9.155   6.470
 1561WAT      O 4924   8.209   7.466   4.216
 1561WAT     H1 4925   8.177   7.416   4.135
 1561WAT     H2 4926   8.130   7.506   4.263
 1562WAT      O 4927   2.526   5.164   2.534
 1562WAT     H1 4928   2.573   5.213   2.608
 1562WAT     H2 4929   2.458   5.102   2.573
 1563WAT      O 4930   5.596   1.037   8.380
 1563WAT     H1 4931   5.685   1.073   8.406
 1563WAT     H2 4932   5.590   0.941   8.407
 1564WAT      O 4933   2.946   5.028   2.038
 1564WAT     H1 4934   2.853   5.062   2.045
 1564WAT     H2 4935   3.008   5.088   2.090
 1565WAT      O 4936   8.905   4.645   0.142
 1565WAT     H1 4937   8.917   4.676   0.048
 1565WAT     H2 4938   8.871   4.551   0.142
 1566WAT      O 4939   2.780   7.305   7.102
 1566WAT     H1 4940   2.708   7.368   7.072
 1566WAT     H2 4941   2.770   7.288   7.200
 1567WAT      O 4942   5.980   5.480   1.373
 1567WAT     H1 4943   5.931   5.500   1.289
 1567WAT     H2 4944   6.034   5.559   1.400
 1568WAT      O 4945   1.856   7.131   9.393
 1568WAT     H1 4946   1.928   7.143   9.326
 1568WAT     H2 4947   1.783   7.198   9.377
 1569WAT      O 4948   0.237   0.598   5.205
 1569WAT     H1 4949   0.182   0.681   5.214
 1569WAT     H2 4950   0.296   0.606   5.125
 1570WAT      O 4951   4.384   5.300   0.974
 1570WAT     H1 4952   4.320   5.260   0.909
 1570WAT     H2 4953   4.473   5.255   0.965
 1571WAT      O 4954   8.021   2.332   9.261
 1571WAT     H1 4955   8.110   2.291   9.240
 1571WAT     H2 4956   7.977   2.360   9.176
 1572WAT      O 4957   3.931   6.976   8.834
 1572WAT     H1 4958   3.989   6.982   8.753
 1572WAT     H2 4959   3.838   7.005   8.811
 1573WAT      O 4960   8.172   4.655   6.977
 1573WAT     H1 4961   8.233   4.660   6.898
 1573WAT     H2 4962   8.096   4.593   6.957
 1574WAT      O 4963   6.490   7.584   2.092
 1574WAT     H1 4964   6.504   7.497   2.139
 1574WAT     H2 4965   6.566   7.646   2.114
 1575WAT      O 4966   5.091   2.523   8.180
 1575WAT     H1 4967   5.058   2.605   8.135
 1575WAT     H2 4968   5.033   2.445   8.155
 1576WAT      O 4969   7.432   9.183   4.728
 1576WAT     H1 4970   7.397   9.269   4.766
 1576WAT     H2 4971   7.506   9.202   4.664
 1577WAT      O 4972   4.832   2.347   3.513
 1577WAT     H1 4973   4.829   2.446   3.528
 1577WAT     H2 4974   4.829   2.300   3.601
 1578WAT      O 4975   6.628   4.555   5.373
 1578WAT     H1 4976   6.720   4.553   5.412
 1578WAT     H2 4977   6.585   4.465   5.384
 1579WAT      O 4978   7.683   5.159   1.550
 1579WAT     H1 4979   7.605   5.159   1.612
 1579WAT     H2 4980   7.737   5.243   1.564
 1580WAT      O 4981   6.697   1.134   3.045
 1580WAT     H1 4982   6.773   1.069   3.051
 1580WAT     H2 4983   6.717   1.214   3.101
 1581WAT      O 4984   2.118   1.516   2.389
 1581WAT     H1 4985   2.115   1.431   2.441
 1581WAT     H2 4986   2.213   1.538   2.368
 1582WAT      O 4987   9.301   5.245   8.526
 1582WAT     H1 4988   9.241   5.296   8.465
 1582WAT     H2 4989   9.394   5.282   8.522
 1583WAT      O 4990   9.266   9.154   3.827
 1583WAT     H1 4991   9.168   9.135   3.824
 1583WAT     H2 4992   9.300   9.135   3.919
 1584WAT      O 4993   4.306   4.417   0.554
 1584WAT     H1 4994   4.255   4.408   0.468
 1584WAT     H2 4995   4.365   4.498   0.549
 1585WAT      O 4996   3.302   5.166   7.498
 1585WAT     H1 4997   3.299   5.128   7.406
 1585WAT     H2 4998   3.282   5.264   7.494
 1586WAT      O 4999   1.027   0.664   4.938
 1586WAT     H1 5000   0.968   0.744   4.948
 1586WAT     H2 5001   1.022   0.631   4.844
 1587WAT      O 5002   8.228   1.532   2.880
 1587WAT     H1 5003   8.273   1.604   2.934
 1587WAT     H2 5004   8.209   1.566   2.788
 1588WAT      O 5005   1.876   6.819   2.163
 1588WAT     H1 5006   1.969   6.831   2.129
 1588WAT     H2 5007   1.868   6.866   2.251
 1589WAT      O 5008   0.424   6.056   5.588
 1589WAT     H1 5009   0.523   6.039   5.590
 1589WAT     H2 5010   0.407   6.152   5.569
 1590WAT      O 5011   9.752   0.979   8.616
 1590WAT     H1 5012   9.710   1.043   8.679
 1590WAT     H2 5013   9.744   1.014   8.522
 1591WAT      O 5014   5.097   1.278   1.084
 1591WAT     H1 5015   5.109   1.227   1.169
 1591WAT     H2 5016   5.058   1.368   1.105
 1592WAT      O 5017   3.170   1.920   7.129
 1592WAT     H1 5018   3.103   1.898   7.200
 1592WAT     H2 5019   3.229   1.994   7.162
 1593WAT      O 5020   8.951   5.956   4.384
 1593WAT     H1 5021   8.873   5.908   4.345
 1593WAT     H2 5022   9.028   5.953   4.320
 1594WAT      O 5023   0.130   1.131   3.734
 1594WAT     H1 5024   0.131   1.204   3.802
 1594WAT     H2 5025   0.123   1.042   3.779
 1595WAT      O 5026   5.525   1.765   6.863
 1595WAT     H1 5027   5.602   1.710   6.898
 1595WAT     H2 5028   5.464   1.706   6.810
 1596WAT      O 5029   3.898   2.887   9.162
 1596WAT     H1 5030   3.853   2.944   9.231
 1596WAT     H2 5031   3.868   2.792   9.172
 1597WAT      O 5032   4.349   8.901   1.480
 1597WAT     H1 5033   4.389   8.888   1.389
 1597WAT     H2 5034   4.366   8.820   1.535
 1598WAT      O 5035   7.574   4.479   7.225
 1598WAT     H1 5036   7.553   4.382   7.210
 1598WAT     H2 5037   7.493   4.526   7.259
 1599WAT      O 5038   1.612   5.384   5.509
 1599WAT     H1 5039   1.568   5.380   5.420
 1599WAT     H2 5040   1.704   5.345   5.504
 1600WAT      O 5041   9.633   2.164   0.310
 1600WAT     H1 5042   9.619   2.231   0.382
 1600WAT     H2 5043   9.707   2.101   0.337
 1601WAT      O 5044   6.299   3.270   7.194
 1601WAT     H1 5045   6.372   3.301   7.255
 1601WAT     H2 5046   6.261   3.185   7.228
 1602WAT      O 5047   7.553   8.231   7.958
 1602WAT     H1 5048   7.486   8.176   7.909
 1602WAT     H2 5049   7.615   8.274   7.892
 1603WAT      O 5050   8.852   4.059   7.094
 1603WAT     H1 5051   8.862   3.972   7.046
 1603WAT     H2 5052   8.851   4.134   7.028
 1604WAT      O 5053   8.277   5.507   3.126
 1604WAT     H1 5054   8.193   5.537   3.081
 1604WAT     H2 5055   8.294   5.411   3.103
 1605WAT      O 5056   4.359   3.760   1.450
 1605WAT     H1 5057   4.419   3.789   1.525
 1605WAT     H2 5058   4.266   3.747   1.486
 1606WAT      O 5059   0.819   8.431   7.297
 1606WAT     H1 5060   0.754   8.359   7.323
 1606WAT     H2 5061   0.908   8.391   7.279
 1607WAT      O 5062   4.603   0.031   0.272
 1607WAT     H1 5063   4.655   0.046   0.356
 1607WAT     H2 5064   4.667   0.007   0.198
 1608WAT      O 5065   4.667   7.570   9.786
 1608WAT     H1 5066   4.691   7.475   9.809
 1608WAT     H2 5067   4.589   7.571   9.724
 1609WAT      O 5068   9.632   5.944   8.774
 1609WAT     H1 5069   9.652   6.040   8.794
 1609WAT     H2 5070   9.557   5.939   8.708
 1610WAT      O 5071   0.251   7.596   1.782
 1610WAT     H1 5072   0.167   7.646   1.803
 1610WAT     H2 5073   0.328   7.660   1.784
 1611WAT      O 5074   6.748   5.267   4.356
 1611WAT     H1 5075   6.822   5.247   4.291
 1611WAT     H2 5076   6.718   5.361   4.346
 1612WAT      O 5077   6.818   7.903   6.235
 1612WAT     H1 5078   6.885   7.845   6.281
 1612WAT     H2 5079   6.833   7.898   6.136
 1613WAT      O 5080   3.232   2.045   1.749
 1613WAT     H1 5081   3.273   2.106   1.817
 1613WAT     H2 5082   3.165   2.097   1.695
 1614WAT      O 5083   8.766   2.232   2.957
 1614WAT     H1 5084   8.722   2.294   2.892
 1614WAT     H2 5085   8.856   2.207   2.923
 1615WAT      O 5086   2.755   3.755   7.052
 1615WAT     H1 5087   2.807   3.673   7.030
 1615WAT     H2 5088   2.666   3.752   7.007
 1616WAT      O 5089   0.529   8.510   6.955
 1616WAT     H1 5090   0.470   8.565   7.014
 1616WAT     H2 5091   0.517   8.413   6.977
 1617WAT      O 5092   0.218   8.563   3.746
 1617WAT     H1 5093   0.219   8.662   3.757
 1617WAT     H2 5094   0.286   8.522   3.807
 1618WAT      O 5095   9.121   2.403   4.941
 1618WAT     H1 5096   9.128   2.461   5.022
 1618WAT     H2 5097   9.170   2.445   4.865
 1619WAT      O 5098   7.361   9.117   9.093
 1619WAT     H1 5099   7.357   9.020   9.119
 1619WAT     H2 5100   7.334   9.173   9.171
 1620WAT      O 5101   8.533   3.647   0.980
 1620WAT     H1 5102   8.446   3.696   0.985
 1620WAT     H2 5103   8.524   3.568   0.918
 1621WAT      O 5104   0.356   0.800   4.279
 1621WAT     H1 5105   0.412   0.878   4.307
 1621WAT     H2 5106   0.409   0.742   4.217
 1622WAT      O 5107   5.777   6.674   8.839
 1622WAT     H1 5108   5.794   6.753   8.781
 1622WAT     H2 5109   5.686   6.681   8.879
 1623WAT      O 5110   9.098   6.816   6.049
 1623WAT     H1 5111   9.194   6.818   6.022
 1623WAT     H2 5112   9.041   6.804   5.967
 1624WAT      O 5113   0.119   4.796   4.204
 1624WAT     H1 5114   0.042   4.842   4.159
 1624WAT     H2 5115   0.178   4.865   4.246
 1625WAT      O 5116   3.364   0.569   9.013
 1625WAT     H1 5117   3.271   0.588   8.982
 1625WAT     H2 5118   3.410   0.656   9.035
 1626WAT      O 5119   2.721   6.182   0.471
 1626WAT     H1 5120   2.701   6.218   0.380
 1626WAT     H2 5121   2.722   6.256   0.537
 1627WAT      O 5122   5.552   8.509   6.115
 1627WAT     H1 5123   5.519   8.584   6.173
 1627WAT     H2 5124   5.478   8.480   6.054
 1628WAT      O 5125   6.314   3.515   8.214
 1628WAT     H1 5126   6.215   3.513   8.228
 1628WAT     H2 5127   6.352   3.424   8.234
 1629WAT      O 5128   5.314   6.350   8.177
 1629WAT     H1 5129   5.361   6.397   8.251
 1629WAT     H2 5130   5.287   6.417   8.107
 1630WAT      O 5131   8.549   4.613   0.891
 1630WAT     H1 5132   8.491   4.538   0.858
 1630WAT     H2 5133   8.640   4.577   0.911
 1631WAT      O 5134   3.137   3.874   2.540
 1631WAT     H1 5135   3.081   3.796   2.513
 1631WAT     H2 5136   3.105   3.908   2.629
 1632WAT      O 5137   3.631   5.812   0.974
 1632WAT     H1 5138   3.572   5.759   1.034
 1632WAT     H2 5139   3.584   5.831   0.888
 1633WAT      O 5140   8.262   2.767   7.452
 1633WAT     H1 5141   8.345   2.813   7.420
 1633WAT     H2 5142   8.200   2.835   7.493
 1634WAT      O 5143   5.205   7.152   5.098
 1634WAT     H1 5144   5.124   7.093   5.099
 1634WAT     H2 5145   5.263   7.127   5.021
 1635WAT      O 5146   6.377   1.286   9.157
 1635WAT     H1 5147   6.428   1.242   9.231
 1635WAT     H2 5148   6.286   1.246   9.151
 1636WAT      O 5149   0.728   2.320   6.074
 1636WAT     H1 5150   0.674   2.292   5.995
 1636WAT     H2 5151   0.758   2.414   6.062
 1637WAT      O 5152   6.667   6.110   7.005
 1637WAT     H1 5153   6.677   6.207   6.984
 1637WAT     H2 5154   6.753   6.062   6.983
 1638WAT      O 5155   7.986   0.952   2.713
 1638WAT     H1 5156   8.079   0.973   2.741
 1638WAT     H2 5157   7.947   1.031   2.665
 1639WAT      O 5158   9.118   1.833   1.563
 1639WAT     H1 5159   9.138   1.761   1.629
 1639WAT     H2 5160   9.027   1.870   1.581
 1640WAT      O 5161   4.990   4.029   3.356
 1640WAT     H1 5162   4.998   3.931   3.376
 1640WAT     H2 5163   4.998   4.044   3.258
 1641WAT      O 5164   5.408   5.448   2.184
 1641WAT     H1 5165   5.371   5.448   2.091
 1641WAT     H2 5166   5.449   5.537   2.204
 1642WAT      O 5167   6.142   7.587   0.651
 1642WAT     H1 5168   6.073   7.542   0.595
 1642WAT     H2 5169   6.155   7.535   0.736
 1643WAT      O 5170   8.157   8.390   2.996
 1643WAT     H1 5171   8.240   8.337   3.012
 1643WAT     H2 5172   8.081   8.348   3.046
 1644WAT      O 5173   4.019   6.719   8.440
 1644WAT     H1 5174   3.925   6.739   8.412
 1644WAT     H2 5175   4.019   6.644   8.506
 1645WAT      O 5176   4.292   7.584   4.568
 1645WAT     H1 5177   4.337   7.542   4.490
 1645WAT     H2 5178   4.193   7.567   4.564
 1646WAT      O 5179   1.477   6.878   4.229
 1646WAT     H1 5180   1.392   6.839   4.266
 1646WAT     H2 5181   1.478   6.976   4.245
 1647WAT      O 5182   0.428   0.596   1.339
 1647WAT     H1 5183   0.471   0.629   1.423
 1647WAT     H2 5184   0.355   0.660   1.312
 1648WAT      O 5185   9.553   6.083   6.911
 1648WAT     H1 5186   9.466   6.127   6.934
 1648WAT     H2 5187   9.537   5.987   6.888
 1649WAT      O 5188   8.148   2.786   4.969
 1649WAT     H1 5189   8.133   2.812   4.874
 1649WAT     H2 5190   8.185   2.693   4.972
 1650WAT      O 5191   1.635   2.050   1.136
 1650WAT     H1 5192   1.555   2.110   1.138
 1650WAT     H2 5193   1.630   1.990   1.057
 1651WAT      O 5194   8.713   8.082   5.588
 1651WAT     H1 5195   8.788   8.099   5.524
 1651WAT     H2 5196   8.734   8.002   5.644
 1652WAT      O 5197   0.610   6.490   7.596
 1652WAT     H1 5198   0.582   6.586   7.601
 1652WAT     H2 5199   0.663   6.467   7.678
 1653WAT      O 5200   1.735   7.280   5.442
 1653WAT     H1 5201   1.668   7.342   5.401
 1653WAT     H2 5202   1.689   7.197   5.473
 1654WAT      O 5203   4.453   7.659   3.933
 1654WAT     H1 5204   4.388   7.596   3.889
 1654WAT     H2 5205   4.438   7.658   4.032
 1655WAT      O 5206   4.378   2.020   2.080
 1655WAT     H1 5207   4.281   2.005   2.099
 1655WAT     H2 5208   4.427   1.933   2.085
 1656WAT      O 5209   4.425   6.443   0.503
 1656WAT     H1 5210   4.385   6.535   0.505
 1656WAT     H2 5211   4.484   6.431   0.583
 1657WAT      O 5212   2.766   9.026   8.649
 1657WAT     H1 5213   2.666   9.016   8.645
 1657WAT     H2 5214   2.806   8.941   8.682
 1658WAT      O 5215   7.049   4.617   4.591
 1658WAT     H1 5216   7.106   4.671   4.528
 1658WAT     H2 5217   7.022   4.674   4.669
 1659WAT      O 5218   1.988   0.844   6.163
 1659WAT     H1 5219   1.990   0.934   6.208
 1659WAT     H2 5220   1.909   0.839   6.102
 1660WAT      O 5221   9.036   0.452   4.194
 1660WAT     H1 5222   8.938   0.466   4.184
 1660WAT     H2 5223   9.057   0.355   4.182
 1661WAT      O 5224   6.956   5.725   6.894
 1661WAT     H1 5225   7.003   5.746   6.808
 1661WAT     H2 5226   6.913   5.636   6.887
 1662WAT      O 5227   4.480   4.090   6.746
 1662WAT     H1 5228   4.522   4.125   6.662
 1662WAT     H2 5229   4.457   3.994   6.734
 1663WAT      O 5230   5.651   3.090   1.393
 1663WAT     H1 5231   5.586   3.153   1.350
 1663WAT     H2 5232   5.623   3.073   1.487
 1664WAT      O 5233   3.721   1.356   5.474
 1664WAT     H1 5234   3.724   1.260   5.448
 1664WAT     H2 5235   3.626   1.387   5.478
 1665WAT      O 5236   6.115   1.978   8.998
 1665WAT     H1 5237   6.046   2.035   9.041
 1665WAT     H2 5238   6.179   2.035   8.947
 1666WAT      O 5239   7.353   8.621   7.152
 1666WAT     H1 5240   7.305   8.708   7.167
 1666WAT     H2 5241   7.429   8.614   7.216
 1667WAT      O 5242   3.552   5.976   0.017
 1667WAT     H1 5243   3.549   6.060  -0.037
 1667WAT     H2 5244   3.580   5.900  -0.042
 1668WAT      O 5245   4.223   2.719   1.500
 1668WAT     H1 5246   4.213   2.777   1.420
 1668WAT     H2 5247   4.277   2.767   1.569
 1669WAT      O 5248   0.659   8.589   9.523
 1669WAT     H1 5249   0.701   8.518   9.579
 1669WAT     H2 5250   0.592   8.548   9.462
 1670WAT      O 5251   4.853   8.327   0.983
 1670WAT     H1 5252   4.856   8.354   0.887
 1670WAT     H2 5253   4.911   8.388   1.036
 1671WAT      O 5254   2.676   5.071   0.862
 1671WAT     H1 5255   2.655   5.160   0.902
 1671WAT     H2 5256   2.681   5.002   0.934
 1672WAT      O 5257   5.129   6.901   3.290
 1672WAT     H1 5258   5.065   6.905   3.212
 1672WAT     H2 5259   5.200   6.834   3.271
 1673WAT      O 5260   2.518   3.400   7.082
 1673WAT     H1 5261   2.442   3.421   7.144
 1673WAT     H2 5262   2.553   3.484   7.042
 1674WAT      O 5263   0.248   6.655   6.131
 1674WAT     H1 5264   0.334   6.699   6.158
 1674WAT     H2 5265   0.256   6.621   6.037
 1675WAT      O 5266   6.685   5.618   8.167
 1675WAT     H1 5267   6.731   5.703   8.140
 1675WAT     H2 5268   6.692   5.552   8.093
 1676WAT      O 5269   7.465   6.498   5.964
 1676WAT     H1 5270   7.454   6.506   5.865
 1676WAT     H2 5271   7.431   6.409   5.995
 1677WAT      O 5272   9.022   0.279   1.093
 1677WAT     H1 5273   9.102   0.330   1.061
 1677WAT     H2 5274   9.039   0.244   1.184
 1678WAT      O 5275   0.008   7.438   1.165
 1678WAT     H1 5276   0.006   7.338   1.165
 1678WAT     H2 5277  -0.061   7.472   1.228
 1679WAT      O 5278   1.870   7.052   4.817
 1679WAT     H1 5279   1.928   6.971   4.823
 1679WAT     H2 5280   1.869   7.085   4.722
 1680WAT      O 5281   4.209   0.101   8.608
 1680WAT     H1 5282   4.237   0.197   8.604
 1680WAT     H2 5283   4.204   0.064   8.515
 1681WAT      O 5284   6.399   8.951   4.878
 1681WAT     H1 5285   6.456   8.929   4.957
 1681WAT     H2 5286   6.372   8.866   4.832
 1682WAT      O 5287   2.841   7.074   5.658
 1682WAT     H1 5288   2.815   7.170   5.665
 1682WAT     H2 5289   2.784   7.019   5.719
 1683WAT      O 5290   2.952   4.999   0.901
 1683WAT     H1 5291   2.926   5.019   0.995
 1683WAT     H2 5292   2.936   5.079   0.843
 1684WAT      O 5293   0.474   5.702   2.457
 1684WAT     H1 5294   0.488   5.783   2.515
 1684WAT     H2 5295   0.563   5.662   2.435
 1685WAT      O 5296   1.329   8.371   7.933
 1685WAT     H1 5297   1.389   8.407   8.005
 1685WAT     H2 5298   1.384   8.349   7.852
 1686WAT      O 5299   7.432   9.438   6.908
 1686WAT     H1 5300   7.337   9.469   6.912
 1686WAT     H2 5301   7.469   9.457   6.817
 1687WAT      O 5302   8.095   6.227   3.252
 1687WAT     H1 5303   8.088   6.151   3.317
 1687WAT     H2 5304   8.112   6.190   3.160
 1688WAT      O 5305   8.870   2.373   7.165
 1688WAT     H1 5306   8.944   2.319   7.124
 1688WAT     H2 5307   8.898   2.469   7.172
 1689WAT      O 5308   3.048   2.819   1.316
 1689WAT     H1 5309   3.087   2.779   1.398
 1689WAT     H2 5310   3.024   2.915   1.333
 1690WAT      O 5311   4.284   4.084   9.007
 1690WAT     H1 5312   4.186   4.065   9.015
 1690WAT     H2 5313   4.318   4.050   8.920
 1691WAT      O 5314   0.177   0.325   0.787
 1691WAT     H1 5315   0.251   0.331   0.853
 1691WAT     H2 5316   0.179   0.236   0.742
 1692WAT      O 5317   3.038   7.146   1.616
 1692WAT     H1 5318   2.963   7.163   1.553
 1692WAT     H2 5319   3.066   7.232   1.659
 1693WAT      O 5320   3.106   3.256   5.461
 1693WAT     H1 5321   3.195   3.216   5.480
 1693WAT     H2 5322   3.078   3.314   5.538
 1694WAT      O 5323   8.080   7.955   8.587
 1694WAT     H1 5324   8.158   8.016   8.598
 1694WAT     H2 5325   8.101   7.887   8.516
 1695WAT      O 5326   2.463   1.852   2.787
 1695WAT     H1 5327   2.380   1.825   2.835
 1695WAT     H2 5328   2.485   1.785   2.717
 1696WAT      O 5329   3.939   4.118   5.044
 1696WAT     H1 5330   3.899   4.202   5.080
 1696WAT     H2 5331   3.988   4.139   4.959
 1697WAT      O 5332   7.351   1.781   5.620
 1697WAT     H1 5333   7.383   1.787   5.714
 1697WAT     H2 5334   7.318   1.688   5.602
 1698WAT      O 5335   1.910   0.052   5.768
 1698WAT     H1 5336   1.986   0.106   5.730
 1698WAT     H2 5337   1.823   0.091   5.738
 1699WAT      O 5338   6.301   7.374   6.565
 1699WAT     H1 5339   6.211   7.347   6.601
 1699WAT     H2 5340   6.295   7.385   6.466
 1700WAT      O 5341   1.926   1.014   4.746
 1700WAT     H1 5342   1.962   1.092   4.694
 1700WAT     H2 5343   1.928   0.932   4.689
 1701WAT      O 5344   4.654   2.566   9.015
 1701WAT     H1 5345   4.649   2.533   8.921
 1701WAT     H2 5346   4.571   2.537   9.065
 1702WAT      O 5347   7.674   2.408   8.179
 1702WAT     H1 5348   7.596   2.448   8.227
 1702WAT     H2 5349   7.693   2.460   8.096
 1703WAT      O 5350   6.706   8.365   7.082
 1703WAT     H1 5351   6.687   8.268   7.095
 1703WAT     H2 5352   6.790   8.376   7.028
 1704WAT      O 5353   4.871   4.082   9.569
 1704WAT     H1 5354   4.843   4.110   9.478
 1704WAT     H2 5355   4.800   4.025   9.610
 1705WAT      O 5356   8.275   3.621   9.669
 1705WAT     H1 5357   8.223   3.697   9.628
 1705WAT     H2 5358   8.218   3.573   9.735
 1706WAT      O 5359   5.112   3.230   6.925
 1706WAT     H1 5360   5.101   3.136   6.958
 1706WAT     H2 5361   5.076   3.293   6.994
 1707WAT      O 5362   2.746   8.424   7.218
 1707WAT     H1 5363   2.754   8.366   7.137
 1707WAT     H2 5364   2.716   8.516   7.191
 1708WAT      O 5365   2.805   9.302   8.938
 1708WAT     H1 5366   2.729   9.278   8.998
 1708WAT     H2 5367   2.881   9.239   8.955
 1709WAT      O 5368   9.555   3.481   3.487
 1709WAT     H1 5369   9.614   3.462   3.566
 1709WAT     H2 5370   9.564   3.408   3.420
 1710WAT      O 5371   1.712   7.341   8.644
 1710WAT     H1 5372   1.626   7.354   8.595
 1710WAT     H2 5373   1.694   7.306   8.735
 1711WAT      O 5374   5.702   1.969   7.968
 1711WAT     H1 5375   5.760   1.899   8.010
 1711WAT     H2 5376   5.728   1.982   7.873
 1712WAT      O 5377   8.317   4.303   6.986
 1712WAT     H1 5378   8.375   4.368   6.938
 1712WAT     H2 5379   8.371   4.223   7.012
 1713WAT      O 5380   9.246   3.842   5.672
 1713WAT     H1 5381   9.295   3.811   5.591
 1713WAT     H2 5382   9.240   3.767   5.738
 1714WAT      O 5383   5.879   3.139   8.400
 1714WAT     H1 5384   5.863   3.071   8.470
 1714WAT     H2 5385   5.800   3.144   8.339
 1715WAT      O 5386   8.139   9.370   1.971
 1715WAT     H1 5387   8.115   9.337   1.880
 1715WAT     H2 5388   8.163   9.292   2.030
 1716WAT      O 5389   3.250   7.669   2.048
 1716WAT     H1 5390   3.273   7.661   2.145
 1716WAT     H2 5391   3.330   7.645   1.993
 1717WAT      O 5392   6.937   5.792   4.254
 1717WAT     H1 5393   6.872   5.756   4.187
 1717WAT     H2 5394   6.892   5.800   4.343
 1718WAT      O 5395   6.433   4.917   1.929
 1718WAT     H1 5396   6.405   4.823   1.910
 1718WAT     H2 5397   6.532   4.919   1.947
 1719WAT      O 5398   7.527   8.241   9.007
 1719WAT     H1 5399   7.467   8.208   8.935
 1719WAT     H2 5400   7.499   8.202   9.095
 1720WAT      O 5401   8.335   7.006   8.537
 1720WAT     H1 5402   8.342   7.099   8.571
 1720WAT     H2 5403   8.356   7.004   8.439
 1721WAT      O 5404   4.133   3.561   8.509
 1721WAT     H1 5405   4.074   3.640   8.527
 1721WAT     H2 5406   4.154   3.515   8.595
 1722WAT      O 5407   4.801   7.002   8.503
 1722WAT     H1 5408   4.820   6.906   8.483
 1722WAT     H2 5409   4.757   7.044   8.424
 1723WAT      O 5410   8.013   4.209   4.289
 1723WAT     H1 5411   8.017   4.187   4.386
 1723WAT     H2 5412   7.925   4.181   4.251
 1724WAT      O 5413   2.065   3.611   8.911
 1724WAT     H1 5414   2.143   3.669   8.889
 1724WAT     H2 5415   2.096   3.531   8.962
 1725WAT      O 5416   1.825   3.261   5.410
 1725WAT     H1 5417   1.859   3.213   5.329
 1725WAT     H2 5418   1.747   3.318   5.385
 1726WAT      O 5419   4.581   0.351   9.376
 1726WAT     H1 5420   4.507   0.340   9.310
 1726WAT     H2 5421   4.575   0.441   9.419
 1727WAT      O 5422   6.775   1.746   9.160
 1727WAT     H1 5423   6.831   1.665   9.175
 1727WAT     H2 5424   6.696   1.744   9.220
 1728WAT      O 5425   6.162   3.315   8.699
 1728WAT     H1 5426   6.075   3.346   8.661
 1728WAT     H2 5427   6.155   3.219   8.724
 1729WAT      O 5428   3.010   6.925   4.038
 1729WAT     H1 5429   2.915   6.894   4.034
 1729WAT     H2 5430   3.030   6.981   3.957
 1730WAT      O 5431   4.479   9.471   4.578
 1730WAT     H1 5432   4.461   9.386   4.627
 1730WAT     H2 5433   4.469   9.548   4.640
 1731WAT      O 5434   8.883   0.005   1.067
 1731WAT     H1 5435   8.870   0.089   1.121
 1731WAT     H2 5436   8.834   0.013   0.981
 1732WAT      O 5437   7.106   6.579   1.250
 1732WAT     H1 5438   7.099   6.675   1.221
 1732WAT     H2 5439   7.080   6.571   1.346
 1733WAT      O 5440   0.914   6.438   6.746
 1733WAT     H1 5441   0.840   6.460   6.683
 1733WAT     H2 5442   0.935   6.519   6.802
 1734WAT      O 5443   8.051   9.433   2.838
 1734WAT     H1 5444   8.102   9.409   2.921
 1734WAT     H2 5445   8.103   9.402   2.758
 1735WAT      O 5446   1.492   0.288   7.546
 1735WAT     H1 5447   1.487   0.188   7.553
 1735WAT     H2 5448   1.520   0.326   7.634
 1736WAT      O 5449   7.719   9.349   0.360
 1736WAT     H1 5450   7.718   9.401   0.274
 1736WAT     H2 5451   7.707   9.252   0.340
 1737WAT      O 5452   9.222   3.780   8.770
 1737WAT     H1 5453   9.181   3.689   8.760
 1737WAT     H2 5454   9.256   3.810   8.681
 1738WAT      O 5455   0.324   0.314   2.804
 1738WAT     H1 5456   0.227   0.331   2.784
 1738WAT     H2 5457   0.334   0.222   2.843
 1739WAT      O 5458   5.688   8.586   8.461
 1739WAT     H1 5459   5.645   8.577   8.371
 1739WAT     H2 5460   5.654   8.514   8.521
 1740WAT      O 5461   6.399   4.980   9.286
 1740WAT     H1 5462   6.425   5.074   9.307
 1740WAT     H2 5463   6.466   4.917   9.325
 1741WAT      O 5464   4.855   3.912   7.029
 1741WAT     H1 5465   4.944   3.879   6.998
 1741WAT     H2 5466   4.794   3.919   6.950
 1742WAT      O 5467   6.665   1.036   8.954
 1742WAT     H1 5468   6.698   1.130   8.958
 1742WAT     H2 5469   6.743   0.973   8.961
 1743WAT      O 5470   5.159   7.512   0.772
 1743WAT     H1 5471   5.127   7.530   0.865
 1743WAT     H2 5472   5.083   7.521   0.708
 1744WAT      O 5473   4.784   6.538   0.587
 1744WAT     H1 5474   4.848   6.595   0.638
 1744WAT     H2 5475   4.763   6.581   0.500
 1745WAT      O 5476   5.460   5.696   7.727
 1745WAT     H1 5477   5.464   5.613   7.671
 1745WAT     H2 5478   5.526   5.688   7.802
 1746WAT      O 5479   1.202   7.549   0.316
 1746WAT     H1 5480   1.227   7.473   0.376
 1746WAT     H2 5481   1.280   7.573   0.258
 1747WAT      O 5482   9.178   7.558   6.611
 1747WAT     H1 5483   9.144   7.507   6.531
 1747WAT     H2 5484   9.255   7.615   6.583
 1748WAT      O 5485   1.466   2.657   1.604
 1748WAT     H1 5486   1.552   2.703   1.625
 1748WAT     H2 5487   1.421   2.702   1.527
 1749WAT      O 5488   0.401   0.412   7.054
 1749WAT     H1 5489   0.492   0.449   7.041
 1749WAT     H2 5490   0.407   0.316   7.084
 1750WAT      O 5491   8.107   7.179   8.113
 1750WAT     H1 5492   8.159   7.162   8.029
 1750WAT     H2 5493   8.048   7.101   8.132
 1751WAT      O 5494   2.510   1.708   5.302
 1751WAT     H1 5495   2.522   1.747   5.393
 1751WAT     H2 5496   2.450   1.628   5.307
 1752WAT      O 5497   2.704   0.539   5.714
 1752WAT     H1 5498   2.614   0.583   5.718
 1752WAT     H2 5499   2.755   0.574   5.636
 1753WAT      O 5500   4.899   9.843   8.054
 1753WAT     H1 5501   4.931   9.875   8.144
 1753WAT     H2 5502   4.940   9.753   8.036
 1754WAT      O 5503   5.742   3.775   0.058
 1754WAT     H1 5504   5.682   3.698   0.082
 1754WAT     H2 5505   5.809   3.788   0.130
 1755WAT      O 5506   4.231   9.530   0.235
 1755WAT     H1 5507   4.214   9.622   0.200
 1755WAT     H2 5508   4.146   9.478   0.237
 1756WAT      O 5509   3.524   2.953   5.089
 1756WAT     H1 5510   3.590   2.932   5.017
 1756WAT     H2 5511   3.447   3.003   5.050
 1757WAT      O 5512   5.500   8.889   6.925
 1757WAT     H1 5513   5.410   8.932   6.929
 1757WAT     H2 5514   5.570   8.954   6.955
 1758WAT      O 5515   8.784   7.878   3.510
 1758WAT     H1 5516   8.792   7.969   3.469
 1758WAT     H2 5517   8.874   7.844   3.536
 1759WAT      O 5518   2.970   5.548   3.886
 1759WAT     H1 5519   2.924   5.530   3.973
 1759WAT     H2 5520   2.909   5.522   3.810
 1760WAT      O 5521   8.308   5.908   4.267
 1760WAT     H1 5522   8.301   5.821   4.218
 1760WAT     H2 5523   8.249   5.906   4.348
 1761WAT      O 5524   6.358   4.895   3.941
 1761WAT     H1 5525   6.329   4.988   3.916
 1761WAT     H2 5526   6.426   4.862   3.876
 1762WAT      O 5527   8.544   1.249   3.670
 1762WAT     H1 5528   8.638   1.277   3.690
 1762WAT     H2 5529   8.530   1.247   3.571
 1763WAT      O 5530   9.141   5.412   2.891
 1763WAT     H1 5531   9.166   5.381   2.983
 1763WAT     H2 5532   9.173   5.506   2.878
 1764WAT      O 5533   3.989   1.588   0.881
 1764WAT     H1 5534   4.040   1.672   0.901
 1764WAT     H2 5535   4.036   1.510   0.923
 1765WAT      O 5536   0.541   4.696   2.541
 1765WAT     H1 5537   0.510   4.732   2.629
 1765WAT     H2 5538   0.598   4.615   2.556
 1766WAT      O 5539   7.971   4.816   5.444
 1766WAT     H1 5540   7.902   4.853   5.507
 1766WAT     H2 5541   7.932   4.743   5.390
 1767WAT      O 5542   3.472   2.653   8.885
 1767WAT     H1 5543   3.413   2.576   8.909
 1767WAT     H2 5544   3.562   2.619   8.859
 1768WAT      O 5545   0.057   7.225   9.169
 1768WAT     H1 5546  -0.029   7.187   9.202
 1768WAT     H2 5547   0.080   7.184   9.081
 1769WAT      O 5548   0.308   1.323   5.019
 1769WAT     H1 5549   0.242   1.347   5.090
 1769WAT     H2 5550   0.359   1.242   5.046
 1770WAT      O 5551   8.707   6.492   9.429
 1770WAT     H1 5552   8.671   6.496   9.336
 1770WAT     H2 5553   8.723   6.585   9.462
 1771WAT      O 5554   9.187   3.317   4.315
 1771WAT     H1 5555   9.180   3.243   4.382
 1771WAT     H2 5556   9.210   3.279   4.225
 1772WAT      O 5557   4.744   0.787   6.849
 1772WAT     H1 5558   4.785   0.732   6.776
 1772WAT     H2 5559   4.659   0.828   6.816
 1773WAT      O 5560   3.618   2.671   0.033
 1773WAT     H1 5561   3.657   2.711   0.116
 1773WAT     H2 5562   3.672   2.701  -0.046
 1774WAT      O 5563   3.102   0.286   0.985
 1774WAT     H1 5564   3.150   0.234   0.914
 1774WAT     H2 5565   3.006   0.296   0.959
 1775WAT      O 5566   6.143   4.164   4.896
 1775WAT     H1 5567   6.207   4.241   4.905
 1775WAT     H2 5568   6.139   4.113   4.982
 1776WAT      O 5569   2.193   9.038   4.866
 1776WAT     H1 5570   2.202   8.951   4.818
 1776WAT     H2 5571   2.112   9.087   4.832
 1777WAT      O 5572   2.174   6.422   0.358
 1777WAT     H1 5573   2.205   6.494   0.296
 1777WAT     H2 5574   2.243   6.408   0.430
 1778WAT      O 5575   4.915   8.103   6.459
 1778WAT     H1 5576   4.894   8.033   6.526
 1778WAT     H2 5577   4.890   8.072   6.367
 1779WAT      O 5578   0.058   9.566   1.379
 1779WAT     H1 5579  -0.036   9.599   1.372
 1779WAT     H2 5580   0.121   9.643   1.366
 1780WAT      O 5581   3.355   2.295   2.674
 1780WAT     H1 5582   3.378   2.333   2.764
 1780WAT     H2 5583   3.382   2.199   2.671
 1781WAT      O 5584   7.864   8.986   6.572
 1781WAT     H1 5585   7.768   8.960   6.576
 1781WAT     H2 5586   7.920   8.904   6.560
 1782WAT      O 5587   4.979   8.506   8.733
 1782WAT     H1 5588   4.925   8.579   8.691
 1782WAT     H2 5589   5.048   8.547   8.794
 1783WAT      O 5590   3.425   9.814   8.538
 1783WAT     H1 5591   3.422   9.866   8.453
 1783WAT     H2 5592   3.399   9.873   8.614
 1784WAT      O 5593   7.329   4.148   2.526
 1784WAT     H1 5594   7.387   4.211   2.579
 1784WAT     H2 5595   7.350   4.054   2.554
 1785WAT      O 5596   3.928   4.222   0.528
 1785WAT     H1 5597   3.861   4.231   0.602
 1785WAT     H2 5598   3.885   4.177   0.450
 1786WAT      O 5599   5.191   4.505   1.288
 1786WAT     H1 5600   5.136   4.458   1.219
 1786WAT     H2 5601   5.279   4.530   1.248
 1787WAT      O 5602   8.567   7.894   4.700
 1787WAT     H1 5603   8.531   7.937   4.783
 1787WAT     H2 5604   8.658   7.858   4.718
 1788WAT      O 5605   8.637   8.597   5.160
 1788WAT     H1 5606   8.554   8.604   5.106
 1788WAT     H2 5607   8.712   8.643   5.112
 1789WAT      O 5608   7.897   4.428   4.156
 1789WAT     H1 5609   7.891   4.397   4.061
 1789WAT     H2 5610   7.965   4.372   4.204
 1790WAT      O 5611   1.861   3.546   3.268
 1790WAT     H1 5612   1.954   3.580   3.276
 1790WAT     H2 5613   1.825   3.524   3.358
 1791WAT      O 5614   3.523   5.887   9.579
 1791WAT     H1 5615   3.538   5.820   9.651
 1791WAT     H2 5616   3.610   5.926   9.551
 1792WAT      O 5617   3.831   1.171   0.886
 1792WAT     H1 5618   3.921   1.204   0.913
 1792WAT     H2 5619   3.840   1.109   0.807
 1793WAT      O 5620   5.819   2.546   4.435
 1793WAT     H1 5621   5.830   2.447   4.443
 1793WAT     H2 5622   5.728   2.567   4.399
 1794WAT      O 5623   3.444   3.871   3.022
 1794WAT     H1 5624   3.507   3.901   2.949
 1794WAT     H2 5625   3.352   3.861   2.984
 1795WAT      O 5626   9.257   4.524   3.232
 1795WAT     H1 5627   9.318   4.490   3.303
 1795WAT     H2 5628   9.169   4.549   3.273
 1796WAT      O 5629   3.203   3.745   1.769
 1796WAT     H1 5630   3.150   3.809   1.713
 1796WAT     H2 5631   3.145   3.667   1.792
 1797WAT      O 5632   8.852   5.636   7.893
 1797WAT     H1 5633   8.836   5.679   7.804
 1797WAT     H2 5634   8.933   5.676   7.935
 1798WAT      O 5635   6.491   9.021   9.833
 1798WAT     H1 5636   6.470   9.039   9.929
 1798WAT     H2 5637   6.588   9.035   9.817
 1799WAT      O 5638   1.094   7.138   6.423
 1799WAT     H1 5639   1.006   7.131   6.376
 1799WAT     H2 5640   1.162   7.181   6.363
 1800WAT      O 5641   4.372   8.933   9.212
 1800WAT     H1 5642   4.320   8.950   9.295
 1800WAT     H2 5643   4.470   8.932   9.234
 1801WAT      O 5644   1.262   0.379   7.870
 1801WAT     H1 5645   1.331   0.442   7.833
 1801WAT     H2 5646   1.224   0.325   7.795
 1802WAT      O 5647   7.261   0.987   8.491
 1802WAT     H1 5648   7.273   0.955   8.397
 1802WAT     H2 5649   7.197   1.064   8.492
 1803WAT      O 5650   0.750   9.194   4.652
 1803WAT     H1 5651   0.652   9.212   4.663
 1803WAT     H2 5652   0.800   9.280   4.642
 1804WAT      O 5653   2.298   9.717   1.627
 1804WAT     H1 5654   2.393   9.742   1.645
 1804WAT     H2 5655   2.292   9.667   1.541
 1805WAT      O 5656   2.141   3.373   7.287
 1805WAT     H1 5657   2.218   3.438   7.290
 1805WAT     H2 5658   2.057   3.420   7.314
 1806WAT      O 5659   5.002   5.543   0.760
 1806WAT     H1 5660   4.955   5.622   0.801
 1806WAT     H2 5661   4.956   5.517   0.676
 1807WAT      O 5662   0.543   5.054   0.209
 1807WAT     H1 5663   0.586   5.144   0.215
 1807WAT     H2 5664   0.444   5.063   0.221
 1808WAT      O 5665   9.770   2.495   4.146
 1808WAT     H1 5666   9.707   2.541   4.209
 1808WAT     H2 5667   9.772   2.543   4.059
 1809WAT      O 5668   0.105   0.868   1.762
 1809WAT     H1 5669   0.007   0.853   1.772
 1809WAT     H2 5670   0.153   0.821   1.836
 1810WAT      O 5671   4.677   3.445   7.204
 1810WAT     H1 5672   4.707   3.521   7.261
 1810WAT     H2 5673   4.738   3.367   7.217
 1811WAT      O 5674   3.314   8.445   9.881
 1811WAT     H1 5675   3.267   8.379   9.939
 1811WAT     H2 5676   3.287   8.431   9.786
 1812WAT      O 5677   2.788   2.418   9.075
 1812WAT     H1 5678   2.778   2.391   8.979
 1812WAT     H2 5679   2.862   2.485   9.083
 1813WAT      O 5680   7.011   3.329   1.047
 1813WAT     H1 5681   6.997   3.295   1.139
 1813WAT     H2 5682   6.925   3.322   0.995
 1814WAT      O 5683   4.872   7.055   1.961
 1814WAT     H1 5684   4.904   6.970   1.918
 1814WAT     H2 5685   4.949   7.118   1.971
 1815WAT      O 5686   8.208   5.355   4.183
 1815WAT     H1 5687   8.156   5.390   4.106
 1815WAT     H2 5688   8.177   5.263   4.205
 1816WAT      O 5689   4.482   4.160   2.401
 1816WAT     H1 5690   4.493   4.123   2.493
 1816WAT     H2 5691   4.465   4.259   2.407
 1817WAT      O 5692   2.210   1.094   9.629
 1817WAT     H1 5693   2.247   1.011   9.670
 1817WAT     H2 5694   2.139   1.132   9.689
 1818WAT      O 5695   7.694   0.569   9.586
 1818WAT     H1 5696   7.779   0.524   9.559
 1818WAT     H2 5697   7.625   0.555   9.515
 1819WAT      O 5698   1.775   2.228   2.550
 1819WAT     H1 5699   1.728   2.172   2.619
 1819WAT     H2 5700   1.868   2.195   2.538
 1820WAT      O 5701   2.701   6.710   5.727
 1820WAT     H1 5702   2.634   6.753   5.667
 1820WAT     H2 5703   2.771   6.664   5.673
 1821WAT      O 5704   0.658   1.064   2.679
 1821WAT     H1 5705   0.659   1.024   2.771
 1821WAT     H2 5706   0.687   0.996   2.613
 1822WAT      O 5707   9.590   8.631   6.873
 1822WAT     H1 5708   9.520   8.599   6.938
 1822WAT     H2 5709   9.642   8.706   6.914
 1823WAT      O 5710   7.980   4.188   8.082
 1823WAT     H1 5711   7.950   4.094   8.098
 1823WAT     H2 5712   7.927   4.227   8.006
 1824WAT      O 5713   9.739   6.364   7.430
 1824WAT     H1 5714   9.834   6.374   7.460
 1824WAT     H2 5715   9.684   6.437   7.471
 1825WAT      O 5716   3.766   6.601   0.025
 1825WAT     H1 5717   3.750   6.578   0.121
 1825WAT     H2 5718   3.717   6.537  -0.034
 1826WAT      O 5719   1.639   2.559   7.458
 1826WAT     H1 5720   1.570   2.608   7.511
 1826WAT     H2 5721   1.596   2.518   7.378
 1827WAT      O 5722   0.923   0.821   6.996
 1827WAT     H1 5723   1.002   0.879   6.976
 1827WAT     H2 5724   0.910   0.757   6.921
 1828WAT      O 5725   8.962   2.844   9.823
 1828WAT     H1 5726   9.061   2.837   9.823
 1828WAT     H2 5727   8.930   2.870   9.731
 1829WAT      O 5728   4.125   4.066   1.812
 1829WAT     H1 5729   4.161   4.104   1.727
 1829WAT     H2 5730   4.201   4.044   1.874
 1830WAT      O 5731   6.586   5.450   9.318
 1830WAT     H1 5732   6.516   5.493   9.375
 1830WAT     H2 5733   6.645   5.520   9.280
 1831WAT      O 5734   7.596   7.652   6.291
 1831WAT     H1 5735   7.669   7.640   6.224
 1831WAT     H2 5736   7.511   7.612   6.255
 1832WAT      O 5737   4.242   0.981   0.537
 1832WAT     H1 5738   4.226   0.910   0.606
 1832WAT     H2 5739   4.341   0.991   0.523
 1833WAT      O 5740   6.968   6.550   4.489
 1833WAT     H1 5741   7.003   6.555   4.396
 1833WAT     H2 5742   6.870   6.530   4.488
 1834WAT      O 5743   5.259   1.024   0.499
 1834WAT     H1 5744   5.352   1.009   0.463
 1834WAT     H2 5745   5.265   1.050   0.595
 1835WAT      O 5746   0.754   7.443   0.086
 1835WAT     H1 5747   0.762   7.387   0.003
 1835WAT     H2 5748   0.746   7.383   0.166
 1836WAT      O 5749   7.730   0.661   6.184
 1836WAT     H1 5750   7.778   0.615   6.110
 1836WAT     H2 5751   7.638   0.623   6.193
 1837WAT      O 5752   5.371   5.805   6.761
 1837WAT     H1 5753   5.271   5.794   6.760
 1837WAT     H2 5754   5.396   5.890   6.715
 1838WAT      O 5755   0.454   6.272   5.010
 1838WAT     H1 5756   0.534   6.292   5.067
 1838WAT     H2 5757   0.410   6.357   4.982
 1839WAT      O 5758   9.026   6.272   0.585
 1839WAT     H1 5759   9.115   6.240   0.619
 1839WAT     H2 5760   9.023   6.264   0.486
 1840WAT      O 5761   8.736   6.274   2.164
 1840WAT     H1 5762   8.799   6.269   2.086
 1840WAT     H2 5763   8.643   6.290   2.130
 1841WAT      O 5764   0.786   6.645   4.297
 1841WAT     H1 5765   0.734   6.730   4.291
 1841WAT     H2 5766   0.767   6.600   4.384
 1842WAT      O 5767   6.715   9.204   7.272
 1842WAT     H1 5768   6.692   9.261   7.192
 1842WAT     H2 5769   6.733   9.111   7.242
 1843WAT      O 5770   3.181   3.530   3.699
 1843WAT     H1 5771   3.264   3.530   3.644
 1843WAT     H2 5772   3.152   3.624   3.717
 1844WAT      O 5773   5.883   2.539   4.156
 1844WAT     H1 5774   5.886   2.566   4.252
 1844WAT     H2 5775   5.973   2.508   4.127
 1845WAT      O 5776   4.839   6.677   7.603
 1845WAT     H1 5777   4.855   6.754   7.664
 1845WAT     H2 5778   4.829   6.593   7.656
 1846WAT      O 5779   6.776   0.810   1.253
 1846WAT     H1 5780   6.860   0.818   1.307
 1846WAT     H2 5781   6.740   0.901   1.233
 1847WAT      O 5782   2.734   1.209   6.467
 1847WAT     H1 5783   2.813   1.232   6.412
 1847WAT     H2 5784   2.686   1.131   6.426
 1848WAT      O 5785   1.369   8.859   4.797
 1848WAT     H1 5786   1.339   8.880   4.890
 1848WAT     H2 5787   1.422   8.935   4.760
 1849WAT      O 5788   9.864   3.409   8.393
 1849WAT     H1 5789   9.946   3.450   8.353
 1849WAT     H2 5790   9.811   3.480   8.439
 1850WAT      O 5791   8.553   8.473   5.438
 1850WAT     H1 5792   8.577   8.491   5.342
 1850WAT     H2 5793   8.476   8.531   5.465
 1851WAT      O 5794   5.584   9.649   9.339
 1851WAT     H1 5795   5.648   9.627   9.266
 1851WAT     H2 5796   5.518   9.575   9.349
 1852WAT      O 5797   3.244   2.353   7.686
 1852WAT     H1 5798   3.257   2.452   7.681
 1852WAT     H2 5799   3.168   2.326   7.628
 1853WAT      O 5800   5.944   2.737   0.708
 1853WAT     H1 5801   5.844   2.745   0.707
 1853WAT     H2 5802   5.984   2.815   0.659
 1854WAT      O 5803   8.906   3.029   8.375
 1854WAT     H1 5804   8.905   3.026   8.475
 1854WAT     H2 5805   8.814   3.045   8.340
 1855WAT      O 5806   4.147   3.080   6.924
 1855WAT     H1 5807   4.118   2.985   6.931
 1855WAT     H2 5808   4.108   3.133   6.999
 1856WAT      O 5809   5.962   2.812   6.093
 1856WAT     H1 5810   5.926   2.898   6.129
 1856WAT     H2 5811   6.024   2.771   6.160
 1857WAT      O 5812   2.342   5.483   7.425
 1857WAT     H1 5813   2.306   5.501   7.516
 1857WAT     H2 5814   2.271   5.497   7.357
 1858WAT      O 5815   2.500   9.492   2.769
 1858WAT     H1 5816   2.401   9.493   2.777
 1858WAT     H2 5817   2.539   9.432   2.840
 1859WAT      O 5818   1.362   1.669   0.206
 1859WAT     H1 5819   1.290   1.674   0.136
 1859WAT     H2 5820   1.383   1.573   0.225
 1860WAT      O 5821   0.497   7.400   2.114
 1860WAT     H1 5822   0.405   7.391   2.076
 1860WAT     H2 5823   0.491   7.433   2.208
 1861WAT      O 5824   1.697   8.225   8.948
 1861WAT     H1 5825   1.714   8.311   8.901
 1861WAT     H2 5826   1.601   8.222   8.978
 1862WAT      O 5827   8.074   1.322   7.804
 1862WAT     H1 5828   8.043   1.272   7.885
 1862WAT     H2 5829   8.094   1.417   7.829
 1863WAT      O 5830   7.125   6.358   5.910
 1863WAT     H1 5831   7.130   6.383   6.007
 1863WAT     H2 5832   7.154   6.436   5.854
 1864WAT      O 5833   3.061   2.256   4.834
 1864WAT     H1 5834   3.000   2.177   4.840
 1864WAT     H2 5835   3.110   2.253   4.747
 1865WAT      O 5836   3.772   8.197   1.552
 1865WAT     H1 5837   3.734   8.114   1.512
 1865WAT     H2 5838   3.840   8.174   1.621
 1866WAT      O 5839   9.884   8.025   2.096
 1866WAT     H1 5840   9.820   8.084   2.047
 1866WAT     H2 5841   9.883   7.934   2.055
 1867WAT      O 5842   3.385   3.249   7.511
 1867WAT     H1 5843   3.328   3.319   7.468
 1867WAT     H2 5844   3.339   3.161   7.506
 1868WAT      O 5845   0.717   5.140   8.623
 1868WAT     H1 5846   0.630   5.137   8.672
 1868WAT     H2 5847   0.779   5.072   8.662
 1869WAT      O 5848   7.942   3.544   8.014
 1869WAT     H1 5849   7.925   3.538   8.113
 1869WAT     H2 5850   7.855   3.548   7.966
 1870WAT      O 5851   9.476   7.721   1.334
 1870WAT     H1 5852   9.516   7.781   1.403
 1870WAT     H2 5853   9.386   7.755   1.308
 1871WAT      O 5854   1.197   9.135   4.669
 1871WAT     H1 5855   1.106   9.103   4.696
 1871WAT     H2 5856   1.249   9.158   4.751
 1872WAT      O 5857   3.348   2.539   2.269
 1872WAT     H1 5858   3.370   2.596   2.190
 1872WAT     H2 5859   3.287   2.465   2.241
 1873WAT      O 5860   8.239   2.993   4.501
 1873WAT     H1 5861   8.280   2.906   4.528
 1873WAT     H2 5862   8.184   3.028   4.576
 1874WAT      O 5863   0.890   7.978   6.914
 1874WAT     H1 5864   0.905   8.077   6.903
 1874WAT     H2 5865   0.877   7.937   6.824
 1875WAT      O 5866   7.733   3.836   2.870
 1875WAT     H1 5867   7.690   3.779   2.940
 1875WAT     H2 5868   7.751   3.927   2.907
 1876WAT      O 5869   2.384   7.767   8.378
 1876WAT     H1 5870   2.299   7.819   8.381
 1876WAT     H2 5871   2.424   7.773   8.286
 1877WAT      O 5872   5.731   1.275   8.734
 1877WAT     H1 5873   5.643   1.300   8.695
 1877WAT     H2 5874   5.800   1.341   8.706
 1878WAT      O 5875   3.874   7.933   1.257
 1878WAT     H1 5876   3.943   8.005   1.269
 1878WAT     H2 5877   3.920   7.845   1.242
 1879WAT      O 5878   0.077   3.598   2.215
 1879WAT     H1 5879   0.033   3.684   2.242
 1879WAT     H2 5880   0.116   3.555   2.297
 1880WAT      O 5881   6.138   0.295   2.751
 1880WAT     H1 5882   6.090   0.318   2.666
 1880WAT     H2 5883   6.234   0.321   2.743
 1881WAT      O 5884   7.786   4.631   5.336
 1881WAT     H1 5885   7.745   4.540   5.340
 1881WAT     H2 5886   7.722   4.694   5.293
 1882WAT      O 5887   6.412   1.196   0.561
 1882WAT     H1 5888   6.368   1.259   0.626
 1882WAT     H2 5889   6.445   1.116   0.611
 1883WAT      O 5890   2.191   5.855   5.745
 1883WAT     H1 5891   2.217   5.772   5.696
 1883WAT     H2 5892   2.271   5.914   5.755
 1884WAT      O 5893   6.358   1.634   6.341
 1884WAT     H1 5894   6.298   1.662   6.415
 1884WAT     H2 5895   6.450   1.620   6.375
 1885WAT      O 5896   7.699   5.167   3.706
 1885WAT     H1 5897   7.667   5.235   3.772
 1885WAT     H2 5898   7.762   5.104   3.751
 1886WAT      O 5899   9.112   1.989   8.658
 1886WAT     H1 5900   9.166   2.073   8.666
 1886WAT     H2 5901   9.027   1.999   8.709
 1887WAT      O 5902   8.585   5.805   8.037
 1887WAT     H1 5903   8.616   5.812   7.942
 1887WAT     H2 5904   8.485   5.796   8.039
 1888WAT      O 5905   6.599   2.336   0.146
 1888WAT     H1 5906   6.552   2.349   0.233
 1888WAT     H2 5907   6.698   2.340   0.161
 1889WAT      O 5908   4.942   3.846   4.542
 1889WAT     H1 5909   4.862   3.786   4.546
 1889WAT     H2 5910   4.925   3.927   4.599
 1890WAT      O 5911   1.631   9.159   0.948
 1890WAT     H1 5912   1.612   9.163   0.850
 1890WAT     H2 5913   1.610   9.247   0.990
 1891WAT      O 5914   0.498   7.319   3.053
 1891WAT     H1 5915   0.413   7.265   3.059
 1891WAT     H2 5916   0.566   7.269   2.999
 1892WAT      O 5917   7.681   8.915   1.283
 1892WAT     H1 5918   7.622   8.973   1.228
 1892WAT     H2 5919   7.634   8.890   1.368
 1893WAT      O 5920   6.599   1.741   1.924
 1893WAT     H1 5921   6.656   1.683   1.982
 1893WAT     H2 5922   6.647   1.826   1.904
 1894WAT      O 5923   9.191   1.679   7.763
 1894WAT     H1 5924   9.137   1.606   7.721
 1894WAT     H2 5925   9.179   1.677   7.862
 1895WAT      O 5926   3.093   5.253   9.673
 1895WAT     H1 5927   3.107   5.351   9.667
 1895WAT     H2 5928   3.182   5.207   9.675
 1896WAT      O 5929   2.437   8.674   9.554
 1896WAT     H1 5930   2.357   8.735   9.549
 1896WAT     H2 5931   2.496   8.692   9.475
 1897WAT      O 5932   7.005   7.500   2.455
 1897WAT     H1 5933   6.908   7.507   2.476
 1897WAT     H2 5934   7.024   7.412   2.412
 1898WAT      O 5935   5.413   5.416   6.086
 1898WAT     H1 5936   5.430   5.468   6.002
 1898WAT     H2 5937   5.500   5.389   6.127
 1899WAT      O 5938   8.235   3.562   8.814
 1899WAT     H1 5939   8.166   3.492   8.796
 1899WAT     H2 5940   8.267   3.600   8.727
 1900WAT      O 5941   2.586   6.040   2.033
 1900WAT     H1 5942   2.640   6.016   2.114
 1900WAT     H2 5943   2.596   6.138   2.014
 1901WAT      O 5944   2.885   9.688   0.423
 1901WAT     H1 5945   2.908   9.676   0.327
 1901WAT     H2 5946   2.785   9.688   0.434
 1902WAT      O 5947   6.649   0.478   4.834
 1902WAT     H1 5948   6.679   0.529   4.914
 1902WAT     H2 5949   6.727   0.432   4.792
 1903WAT      O 5950   6.600   1.546   5.356
 1903WAT     H1 5951   6.534   1.509   5.421
 1903WAT     H2 5952   6.582   1.643   5.342
 1904WAT      O 5953   4.637   6.181   1.644
 1904WAT     H1 5954   4.674   6.167   1.553
 1904WAT     H2 5955   4.709   6.216   1.704
 1905WAT      O 5956   6.360   6.433   8.258
 1905WAT     H1 5957   6.417   6.455   8.179
 1905WAT     H2 5958   6.289   6.369   8.231
 1906WAT      O 5959   9.877   4.478   9.192
 1906WAT     H1 5960   9.935   4.477   9.110
 1906WAT     H2 5961   9.926   4.436   9.268
 1907WAT      O 5962   8.704   7.723   1.402
 1907WAT     H1 5963   8.731   7.663   1.478
 1907WAT     H2 5964   8.734   7.683   1.316
 1908WAT      O 5965   6.882   6.552   3.109
 1908WAT     H1 5966   6.832   6.478   3.155
 1908WAT     H2 5967   6.854   6.640   3.148
 1909WAT      O 5968   1.045   9.272   7.747
 1909WAT     H1 5969   1.102   9.197   7.781
 1909WAT     H2 5970   0.958   9.234   7.713
 1910WAT      O 5971   4.600   4.647   3.748
 1910WAT     H1 5972   4.630   4.701   3.669
 1910WAT     H2 5973   4.521   4.692   3.791
 1911WAT      O 5974   1.456   7.028   4.582
 1911WAT     H1 5975   1.469   6.999   4.677
 1911WAT     H2 5976   1.502   6.964   4.521
 1912WAT      O 5977   6.270   4.678   0.763
 1912WAT     H1 5978   6.249   4.763   0.812
 1912WAT     H2 5979   6.259   4.694   0.664
 1913WAT      O 5980   0.684   0.308   4.993
 1913WAT     H1 5981   0.621   0.378   4.958
 1913WAT     H2 5982   0.663   0.220   4.952
 1914WAT      O 5983   4.809   0.384   2.402
 1914WAT     H1 5984   4.773   0.475   2.425
 1914WAT     H2 5985   4.899   0.373   2.443
 1915WAT      O 5986   2.064   8.807   1.382
 1915WAT     H1 5987   2.077   8.788   1.284
 1915WAT     H2 5988   1.967   8.822   1.400
 1916WAT      O 5989   5.237   6.719   6.208
 1916WAT     H1 5990   5.243   6.720   6.308
 1916WAT     H2 5991   5.242   6.813   6.173
 1917WAT      O 5992   2.622   6.490   9.063
 1917WAT     H1 5993   2.714   6.452   9.056
 1917WAT     H2 5994   2.558   6.416   9.086
 1918WAT      O 5995   6.553   8.706   2.108
 1918WAT     H1 5996   6.455   8.688   2.109
 1918WAT     H2 5997   6.587   8.714   2.201
 1919WAT      O 5998   2.582   9.296   5.703
 1919WAT     H1 5999   2.532   9.270   5.785
 1919WAT     H2 6000   2.585   9.219   5.639
 1920WAT      O 6001   0.756   8.837   2.778
 1920WAT     H1 6002   0.662   8.864   2.754
 1920WAT     H2 6003   0.765   8.738   2.768
 1921WAT      O 6004   2.033   2.910   0.645
 1921WAT     H1 6005   1.939   2.928   0.615
 1921WAT     H2 6006   2.066   2.988   0.699
 1922WAT      O 6007   6.630   9.394   0.658
 1922WAT     H1 6008   6.584   9.482   0.666
 1922WAT     H2 6009   6.679   9.390   0.570
 1923WAT      O 6010   2.812   7.334   3.814
 1923WAT     H1 6011   2.761   7.281   3.746
 1923WAT     H2 6012   2.820   7.282   3.898
 1924WAT      O 6013   4.981   5.970   1.859
 1924WAT     H1 6014   5.001   5.947   1.954
 1924WAT     H2 6015   4.886   5.946   1.838
 1925WAT      O 6016   8.705   6.226   6.294
 1925WAT     H1 6017   8.609   6.202   6.306
 1925WAT     H2 6018   8.736   6.278   6.374
 1926WAT      O 6019   0.956   0.423   0.403
 1926WAT     H1 6020   0.910   0.334   0.396
 1926WAT     H2 6021   1.039   0.414   0.458
 1927WAT      O 6022   6.190   0.628   6.156
 1927WAT     H1 6023   6.238   0.673   6.231
 1927WAT     H2 6024   6.148   0.696   6.097
 1928WAT      O 6025   8.936   3.930   5.202
 1928WAT     H1 6026   8.877   4.002   5.240
 1928WAT     H2 6027   9.026   3.969   5.181
 1929WAT      O 6028   0.283   6.494   5.253
 1929WAT     H1 6029   0.262   6.535   5.164
 1929WAT     H2 6030   0.207   6.437   5.283
 1930WAT      O 6031   4.083   2.810   3.548
 1930WAT     H1 6032   4.097   2.909   3.536
 1930WAT     H2 6033   4.032   2.774   3.470
 1931WAT      O 6034   2.199   6.852   4.124
 1931WAT     H1 6035   2.201   6.833   4.026
 1931WAT     H2 6036   2.105   6.839   4.158
 1932WAT      O 6037   2.282   2.949   9.300
 1932WAT     H1 6038   2.376   2.926   9.325
 1932WAT     H2 6039   2.251   3.027   9.355
 1933WAT      O 6040   6.270   4.634   6.599
 1933WAT     H1 6041   6.231   4.556   6.648
 1933WAT     H2 6042   6.200   4.675   6.541
 1934WAT      O 6043   3.957   1.103   8.115
 1934WAT     H1 6044   3.912   1.189   8.090
 1934WAT     H2 6045   3.946   1.037   8.040
 1935WAT      O 6046   1.294   9.081   3.089
 1935WAT     H1 6047   1.373   9.110   3.142
 1935WAT     H2 6048   1.241   9.162   3.062
 1936WAT      O 6049   0.340   7.872   8.209
 1936WAT     H1 6050   0.362   7.838   8.300
 1936WAT     H2 6051   0.410   7.937   8.180
 1937WAT      O 6052   5.596   4.645   8.064
 1937WAT     H1 6053   5.642   4.721   8.110
 1937WAT     H2 6054   5.611   4.561   8.116
 1938WAT      O 6055   7.141   4.022   9.679
 1938WAT     H1 6056   7.086   3.940   9.661
 1938WAT     H2 6057   7.237   3.996   9.690
 1939WAT      O 6058   5.691   8.285   1.275
 1939WAT     H1 6059   5.593   8.292   1.292
 1939WAT     H2 6060   5.721   8.191   1.289
 1940WAT      O 6061   4.718   4.642   1.898
 1940WAT     H1 6062   4.727   4.581   1.819
 1940WAT     H2 6063   4.772   4.608   1.974
 1941WAT      O 6064   8.259   1.812   2.270
 1941WAT     H1 6065   8.209   1.822   2.185
 1941WAT     H2 6066   8.309   1.725   2.270
 1942WAT      O 6067   2.632   5.470   2.525
 1942WAT     H1 6068   2.638   5.390   2.466
 1942WAT     H2 6069   2.641   5.441   2.621
 1943WAT      O 6070   1.788   4.034   7.673
 1943WAT     H1 6071   1.764   3.980   7.592
 1943WAT     H2 6072   1.835   4.117   7.645
 1944WAT      O 6073   6.458   7.454   1.626
 1944WAT     H1 6074   6.530   7.435   1.559
 1944WAT     H2 6075   6.381   7.498   1.580
 1945WAT      O 6076   1.882   6.973   6.176
 1945WAT     H1 6077   1.782   6.971   6.173
 1945WAT     H2 6078   1.914   7.067   6.167
 1946WAT      O 6079   2.765   0.402   3.188
 1946WAT     H1 6080   2.838   0.450   3.138
 1946WAT     H2 6081   2.792   0.307   3.203
 1947WAT      O 6082   8.210   8.198   5.610
 1947WAT     H1 6083   8.191   8.168   5.516
 1947WAT     H2 6084   8.298   8.246   5.612
 1948WAT      O 6085   7.771   6.539   0.358
 1948WAT     H1 6086   7.672   6.529   0.355
 1948WAT     H2 6087   7.811   6.471   0.419
 1949WAT      O 6088   6.958   5.645   0.369
 1949WAT     H1 6089   6.887   5.585   0.333
 1949WAT     H2 6090   6.952   5.734   0.323
 1950WAT      O 6091   6.206   3.515   8.952
 1950WAT     H1 6092   6.266   3.574   9.006
 1950WAT     H2 6093   6.249   3.426   8.939
 1951WAT      O 6094   5.074   1.444   6.310
 1951WAT     H1 6095   5.077   1.541   6.289
 1951WAT     H2 6096   5.120   1.427   6.397
 1952WAT      O 6097   3.934   4.659   0.597
 1952WAT     H1 6098   3.966   4.583   0.654
 1952WAT     H2 6099   4.009   4.690   0.538
 1953WAT      O 6100   7.162   1.817   6.730
 1953WAT     H1 6101   7.238   1.838   6.668
 1953WAT     H2 6102   7.123   1.903   6.764
 1954WAT      O 6103   2.045   7.685   6.785
 1954WAT     H1 6104   1.994   7.644   6.710
 1954WAT     H2 6105   2.143   7.671   6.771
 1955WAT      O 6106   1.468   0.738   5.109
 1955WAT     H1 6107   1.557   0.692   5.111
 1955WAT     H2 6108   1.479   0.835   5.133
 1956WAT      O 6109   9.195   7.640   1.067
 1956WAT     H1 6110   9.153   7.572   1.007
 1956WAT     H2 6111   9.202   7.727   1.018
 1957WAT      O 6112   6.115   4.401   4.194
 1957WAT     H1 6113   6.114   4.498   4.218
 1957WAT     H2 6114   6.159   4.390   4.105
 1958WAT      O 6115   5.288   8.426   3.663
 1958WAT     H1 6116   5.238   8.477   3.733
 1958WAT     H2 6117   5.269   8.465   3.573
 1959WAT      O 6118   0.765   9.573   9.710
 1959WAT     H1 6119   0.669   9.584   9.682
 1959WAT     H2 6120   0.788   9.476   9.713
 1960WAT      O 6121   8.912   5.134   9.431
 1960WAT     H1 6122   8.924   5.233   9.434
 1960WAT     H2 6123   8.892   5.105   9.338
 1961WAT      O 6124   8.366   2.636   6.584
 1961WAT     H1 6125   8.348   2.553   6.531
 1961WAT     H2 6126   8.309   2.711   6.550
 1962WAT      O 6127   4.184   3.345   8.340
 1962WAT     H1 6128   4.094   3.302   8.335
 1962WAT     H2 6129   4.184   3.416   8.410
 1963WAT      O 6130   7.777   8.068   7.961
 1963WAT     H1 6131   7.730   8.004   8.022
 1963WAT     H2 6132   7.715   8.144   7.940
 1964WAT      O 6133   7.637   0.447   4.030
 1964WAT     H1 6134   7.588   0.511   4.089
 1964WAT     H2 6135   7.577   0.371   4.005
 1965WAT      O 6136   1.919   5.881   0.824
 1965WAT     H1 6137   1.847   5.915   0.763
 1965WAT     H2 6138   1.878   5.818   0.891
 1966WAT      O 6139   6.150   2.125   2.590
 1966WAT     H1 6140   6.176   2.221   2.592
 1966WAT     H2 6141   6.231   2.068   2.605
 1967WAT      O 6142   7.542   5.506   1.877
 1967WAT     H1 6143   7.632   5.463   1.887
 1967WAT     H2 6144   7.547   5.577   1.808
 1968WAT      O 6145   3.883   7.077   7.531
 1968WAT     H1 6146   3.838   7.159   7.494
 1968WAT     H2 6147   3.841   6.996   7.492
 1969WAT      O 6148   1.953   2.605   7.778
 1969WAT     H1 6149   1.939   2.507   7.796
 1969WAT     H2 6150   1.946   2.621   7.679
 1970WAT      O 6151   3.576   9.608   3.631
 1970WAT     H1 6152   3.583   9.645   3.724
 1970WAT     H2 6153   3.482   9.618   3.598
 1971WAT      O 6154   3.161   1.095   4.817
 1971WAT     H1 6155   3.064   1.119   4.806
 1971WAT     H2 6156   3.176   1.002   4.786
 1972WAT      O 6157   2.268   8.010   3.611
 1972WAT     H1 6158   2.224   7.969   3.690
 1972WAT     H2 6159   2.199   8.027   3.540
 1973WAT      O 6160   6.271   7.144   2.261
 1973WAT     H1 6161   6.318   7.128   2.174
 1973WAT     H2 6162   6.270   7.241   2.282
 1974WAT      O 6163   6.821   9.002   7.490
 1974WAT     H1 6164   6.731   8.995   7.449
 1974WAT     H2 6165   6.824   8.948   7.574
 1975WAT      O 6166   6.232   7.227   0.530
 1975WAT     H1 6167   6.262   7.315   0.493
 1975WAT     H2 6168   6.291   7.154   0.496
 1976WAT      O 6169   2.796   3.370   6.698
 1976WAT     H1 6170   2.714   3.351   6.643
 1976WAT     H2 6171   2.839   3.283   6.725
 1977WAT      O 6172   2.613   1.677   6.776
 1977WAT     H1 6173   2.635   1.657   6.681
 1977WAT     H2 6174   2.677   1.630   6.836
 1978WAT      O 6175   1.045   1.149   1.201
 1978WAT     H1 6176   1.027   1.246   1.181
 1978WAT     H2 6177   1.026   1.095   1.119
 1979WAT      O 6178   1.040   7.729   2.297
 1979WAT     H1 6179   0.989   7.665   2.241
 1979WAT     H2 6180   0.977   7.783   2.353
 1980WAT      O 6181   9.756   8.305   1.726
 1980WAT     H1 6182   9.746   8.403   1.746
 1980WAT     H2 6183   9.761   8.292   1.627
 1981WAT      O 6184   7.932   5.393   6.732
 1981WAT     H1 6185   7.975   5.421   6.647
 1981WAT     H2 6186   7.904   5.297   6.725
 1982WAT      O 6187   0.948   5.103   3.041
 1982WAT     H1 6188   0.853   5.131   3.056
 1982WAT     H2 6189   0.958   5.007   3.066
 1983WAT      O 6190   0.446   1.185   6.349
 1983WAT     H1 6191   0.351   1.199   6.320
 1983WAT     H2 6192   0.450   1.186   6.449
 1984WAT      O 6193   0.468   0.611   2.405
 1984WAT     H1 6194   0.477   0.543   2.478
 1984WAT     H2 6195   0.471   0.565   2.316
 1985WAT      O 6196   8.801   6.567   6.473
 1985WAT     H1 6197   8.837   6.552   6.381
 1985WAT     H2 6198   8.727   6.634   6.469
 1986WAT      O 6199   0.259   5.216   2.512
 1986WAT     H1 6200   0.162   5.204   2.531
 1986WAT     H2 6201   0.270   5.273   2.430
 1987WAT      O 6202   2.233   9.476   2.788
 1987WAT     H1 6203   2.214   9.384   2.822
 1987WAT     H2 6204   2.154   9.511   2.739
 1988WAT      O 6205   0.027   4.425   4.840
 1988WAT     H1 6206   0.041   4.490   4.765
 1988WAT     H2 6207  -0.005   4.338   4.804
 1989WAT      O 6208   1.873   5.683   1.774
 1989WAT     H1 6209   1.884   5.693   1.873
 1989WAT     H2 6210   1.959   5.704   1.728
 1990WAT      O 6211   9.847   6.816   7.200
 1990WAT     H1 6212   9.906   6.755   7.252
 1990WAT     H2 6213   9.828   6.776   7.111
 1991WAT      O 6214   5.735   5.000   9.328
 1991WAT     H1 6215   5.679   5.073   9.289
 1991WAT     H2 6216   5.775   5.031   9.414
 1992WAT      O 6217   8.240   8.669   8.479
 1992WAT     H1 6218   8.337   8.655   8.460
 1992WAT     H2 6219   8.228   8.694   8.575
 1993WAT      O 6220   1.732   3.040   7.198
 1993WAT     H1 6221   1.707   3.134   7.222
 1993WAT     H2 6222   1.755   2.989   7.282
 1994WAT      O 6223   5.927   9.545   8.930
 1994WAT     H1 6224   5.963   9.489   8.855
 1994WAT     H2 6225   5.908   9.637   8.896
 1995WAT      O 6226   0.899   7.448   9.544
 1995WAT     H1 6227   0.860   7.521   9.489
 1995WAT     H2 6228   0.973   7.484   9.600
 1996WAT      O 6229   4.923   2.993   8.572
 1996WAT     H1 6230   4.951   3.070   8.629
 1996WAT     H2 6231   4.855   2.938   8.620
 1997WAT      O 6232   1.051   6.551   5.213
 1997WAT     H1 6233   1.109   6.558   5.293
 1997WAT     H2 6234   1.022   6.456   5.201
 1998WAT      O 6235   3.126   4.115   1.041
 1998WAT     H1 6236   3.180   4.036   1.012
 1998WAT     H2 6237   3.065   4.143   0.967
 1999WAT      O 6238   6.785   5.586   7.208
 1999WAT     H1 6239   6.862   5.646   7.186
 1999WAT     H2 6240   6.704   5.617   7.159
 2000WAT      O 6241   7.250   2.932   3.285
 2000WAT     H1 6242   7.246   3.019   3.235
 2000WAT     H2 6243   7.343   2.918   3.320
 2001WAT      O 6244   8.208   9.692   1.744
 2001WAT     H1 6245   8.262   9.767   1.706
 2001WAT     H2 6246   8.120   9.728   1.775
 2002WAT      O 6247   3.084   8.717   9.477
 2002WAT     H1 6248   3.134   8.634   9.504
 2002WAT     H2 6249   3.026   8.698   9.399
 2003WAT      O 6250   8.654   5.420   1.635
 2003WAT     H1 6251   8.566   5.465   1.649
 2003WAT     H2 6252   8.639   5.327   1.601
 2004WAT      O 6253   9.819   4.008   3.509
 2004WAT     H1 6254   9.849   3.991   3.415
 2004WAT     H2 6255   9.732   3.961   3.525
 2005WAT      O 6256   4.433   1.594   7.371
 2005WAT     H1 6257   4.528   1.587   7.340
 2005WAT     H2 6258   4.380   1.520   7.330
 2006WAT      O 6259   7.158   8.802   4.154
 2006WAT     H1 6260   7.188   8.707   4.147
 2006WAT     H2 6261   7.210   8.849   4.225
 2007WAT      O 6262   8.150   2.678   1.820
 2007WAT     H1 6263   8.214   2.689   1.744
 2007WAT     H2 6264   8.164   2.751   1.886
 2008WAT      O 6265   6.311   1.537   2.999
 2008WAT     H1 6266   6.233   1.578   3.046
 2008WAT     H2 6267   6.389   1.534   3.061
 2009WAT      O 6268   5.387   5.745   2.576
 2009WAT     H1 6269   5.333   5.708   2.500
 2009WAT     H2 6270   5.426   5.833   2.549
 2010WAT      O 6271   4.417   0.591   4.382
 2010WAT     H1 6272   4.339   0.602   4.443
 2010WAT     H2 6273   4.403   0.512   4.323
 2011WAT      O 6274   3.689   4.929   5.121
 2011WAT     H1 6275   3.696   5.027   5.104
 2011WAT     H2 6276   3.731   4.907   5.209
 2012WAT      O 6277   9.753   4.241   5.223
 2012WAT     H1 6278   9.658   4.249   5.191
 2012WAT     H2 6279   9.786   4.148   5.205
 2013WAT      O 6280   7.897   2.050   5.270
 2013WAT     H1 6281   7.953   2.035   5.351
 2013WAT     H2 6282   7.825   1.981   5.266
 2014WAT      O 6283   9.070   8.486   1.591
 2014WAT     H1 6284   9.106   8.393   1.596
 2014WAT     H2 6285   8.972   8.485   1.605
 2015WAT      O 6286   6.825   7.803   9.182
 2015WAT     H1 6287   6.909   7.843   9.145
 2015WAT     H2 6288   6.747   7.831   9.126
 2016WAT      O 6289   9.343   1.561   8.980
 2016WAT     H1 6290   9.427   1.589   9.027
 2016WAT     H2 6291   9.366   1.501   8.904
 2017WAT      O 6292   1.799   8.147   9.419
 2017WAT     H1 6293   1.768   8.214   9.487
 2017WAT     H2 6294   1.865   8.085   9.462
 2018WAT      O 6295   5.747   7.399   2.174
 2018WAT     H1 6296   5.784   7.333   2.241
 2018WAT     H2 6297   5.781   7.376   2.083
 2019WAT      O 6298   0.296   0.465   6.237
 2019WAT     H1 6299   0.256   0.522   6.309
 2019WAT     H2 6300   0.364   0.518   6.186
 2020WAT      O 6301   6.685   0.513   3.111
 2020WAT     H1 6302   6.764   0.570   3.091
 2020WAT     H2 6303   6.700   0.420   3.076
 2021WAT      O 6304   8.529   7.970   6.202
 2021WAT     H1 6305   8.472   7.986   6.121
 2021WAT     H2 6306   8.622   7.947   6.174
 2022WAT      O 6307   6.959   8.560   8.020
 2022WAT     H1 6308   7.016   8.516   8.090
 2022WAT     H2 6309   6.893   8.621   8.065
 2023WAT      O 6310   9.712   4.096   5.804
 2023WAT     H1 6311   9.653   4.117   5.726
 2023WAT     H2 6312   9.782   4.030   5.777
 2024WAT      O 6313   5.932   3.917   5.711
 2024WAT     H1 6314   5.950   4.014   5.725
 2024WAT     H2 6315   5.833   3.900   5.718
 2025WAT      O 6316   5.593   4.250   4.677
 2025WAT     H1 6317   5.606   4.327   4.738
 2025WAT     H2 6318   5.624   4.275   4.585
 2026WAT      O 6319   6.949   3.805   9.821
 2026WAT     H1 6320   6.914   3.717   9.790
 2026WAT     H2 6321   6.876   3.873   9.817
 2027WAT      O 6322   8.911   3.749   3.876
 2027WAT     H1 6323   8.826   3.766   3.825
 2027WAT     H2 6324   8.924   3.650   3.885
 2028WAT      O 6325   6.724   8.503   4.238
 2028WAT     H1 6326   6.734   8.540   4.330
 2028WAT     H2 6327   6.784   8.425   4.226
 2029WAT      O 6328   3.072   3.992   8.329
 2029WAT     H1 6329   3.124   4.011   8.246
 2029WAT     H2 6330   3.117   4.035   8.407
 2030WAT      O 6331   6.584   9.619   3.486
 2030WAT     H1 6332   6.583   9.641   3.389
 2030WAT     H2 6333   6.536   9.533   3.502
 2031WAT      O 6334   7.149   8.218   2.421
 2031WAT     H1 6335   7.217   8.278   2.380
 2031WAT     H2 6336   7.142   8.237   2.519
 2032WAT      O 6337   2.144   3.230   5.753
 2032WAT     H1 6338   2.209   3.171   5.704
 2032WAT     H2 6339   2.103   3.294   5.688
 2033WAT      O 6340   2.018   4.417   0.691
 2033WAT     H1 6341   2.102   4.400   0.742
 2033WAT     H2 6342   1.996   4.337   0.634
 2034WAT      O 6343   0.595   3.428   8.399
 2034WAT     H1 6344   0.515   3.369   8.391
 2034WAT     H2 6345   0.597   3.470   8.489
 2035WAT      O 6346   6.023   8.665   6.042
 2035WAT     H1 6347   6.105   8.722   6.044
 2035WAT     H2 6348   5.976   8.670   6.130
 2036WAT      O 6349   2.318   5.380   3.666
 2036WAT     H1 6350   2.255   5.399   3.591
 2036WAT     H2 6351   2.296   5.439   3.744
 2037WAT      O 6352   6.267   3.887   5.524
 2037WAT     H1 6353   6.261   3.968   5.465
 2037WAT     H2 6354   6.275   3.916   5.619
 2038WAT      O 6355   9.393   8.880   6.044
 2038WAT     H1 6356   9.320   8.933   6.088
 2038WAT     H2 6357   9.374   8.783   6.055
 2039WAT      O 6358   4.124   9.771   4.952
 2039WAT     H1 6359   4.211   9.763   4.903
 2039WAT     H2 6360   4.140   9.767   5.050
 2040WAT      O 6361   7.917   5.430   2.328
 2040WAT     H1 6362   7.913   5.341   2.282
 2040WAT     H2 6363   7.925   5.502   2.259
 2041WAT      O 6364   4.840   5.145   3.431
 2041WAT     H1 6365   4.866   5.156   3.527
 2041WAT     H2 6366   4.807   5.232   3.395
 2042WAT      O 6367   1.635   4.113   1.968
 2042WAT     H1 6368   1.704   4.045   1.948
 2042WAT     H2 6369   1.553   4.069   2.005
 2043WAT      O 6370   7.117   3.164   0.844
 2043WAT     H1 6371   7.075   3.232   0.904
 2043WAT     H2 6372   7.114   3.074   0.888
 2044WAT      O 6373   0.855   3.053   9.251
 2044WAT     H1 6374   0.770   3.048   9.303
 2044WAT     H2 6375   0.933   3.053   9.314
 2045WAT      O 6376   3.221   1.538   6.245
 2045WAT     H1 6377   3.309   1.564   6.205
 2045WAT     H2 6378   3.156   1.520   6.172
 2046WAT      O 6379   5.713   2.202   9.347
 2046WAT     H1 6380   5.680   2.277   9.405
 2046WAT     H2 6381   5.804   2.226   9.312
 2047WAT      O 6382   2.443   2.303   0.376
 2047WAT     H1 6383   2.527   2.296   0.429
 2047WAT     H2 6384   2.367   2.328   0.436
 2048WAT      O 6385   6.971   3.281   8.441
 2048WAT     H1 6386   6.881   3.298   8.401
 2048WAT     H2 6387   6.996   3.357   8.501
 2049WAT      O 6388   2.583   9.764   1.621
 2049WAT     H1 6389   2.662   9.734   1.568
 2049WAT     H2 6390   2.595   9.738   1.717
 2050WAT      O 6391   5.165   5.415   6.779
 2050WAT     H1 6392   5.170   5.380   6.686
 2050WAT     H2 6393   5.145   5.513   6.778
 2051WAT      O 6394   9.801   1.275   4.129
 2051WAT     H1 6395   9.748   1.359   4.115
 2051WAT     H2 6396   9.823   1.266   4.227
 2052WAT      O 6397   7.335   2.579   4.447
 2052WAT     H1 6398   7.264   2.545   4.508
 2052WAT     H2 6399   7.331   2.679   4.445
 2053WAT      O 6400   0.970   2.104   4.897
 2053WAT     H1 6401   0.948   2.111   4.995
 2053WAT     H2 6402   1.061   2.063   4.886
 2054WAT      O 6403   7.573   2.646   5.327
 2054WAT     H1 6404   7.667   2.625   5.356
 2054WAT     H2 6405   7.509   2.613   5.396
 2055WAT      O 6406   2.824   5.102   4.344
 2055WAT     H1 6407   2.815   5.072   4.249
 2055WAT     H2 6408   2.876   5.033   4.396
 2056WAT      O 6409   2.103   1.475   7.046
 2056WAT     H1 6410   2.144   1.386   7.029
 2056WAT     H2 6411   2.168   1.547   7.022
 2057WAT      O 6412   3.550   1.109   5.684
 2057WAT     H1 6413   3.645   1.141   5.682
 2057WAT     H2 6414   3.536   1.054   5.767
 2058WAT      O 6415   6.166   8.306   2.070
 2058WAT     H1 6416   6.213   8.361   2.000
 2058WAT     H2 6417   6.074   8.342   2.084
 2059WAT      O 6418   3.591   1.789   1.417
 2059WAT     H1 6419   3.608   1.769   1.321
 2059WAT     H2 6420   3.643   1.870   1.444
 2060WAT      O 6421   5.747   1.645   4.787
 2060WAT     H1 6422   5.812   1.716   4.812
 2060WAT     H2 6423   5.772   1.606   4.698
 2061WAT      O 6424   1.543   2.667   6.956
 2061WAT     H1 6425   1.463   2.647   7.013
 2061WAT     H2 6426   1.624   2.622   6.995
 2062WAT      O 6427   1.903   4.712   4.212
 2062WAT     H1 6428   1.873   4.805   4.235
 2062WAT     H2 6429   1.996   4.697   4.248
 2063WAT      O 6430   6.739   3.224   8.029
 2063WAT     H1 6431   6.644   3.205   8.053
 2063WAT     H2 6432   6.743   3.306   7.972
 2064WAT      O 6433   5.886   8.955   0.135
 2064WAT     H1 6434   5.981   8.941   0.107
 2064WAT     H2 6435   5.832   8.875   0.110
 2065WAT      O 6436   6.187   3.650   4.355
 2065WAT     H1 6437   6.116   3.634   4.423
 2065WAT     H2 6438   6.234   3.564   4.335
 2066WAT      O 6439   1.211   1.747   7.043
 2066WAT     H1 6440   1.135   1.804   7.012
 2066WAT     H2 6441   1.178   1.681   7.110
 2067WAT      O 6442   5.322   6.301   2.034
 2067WAT     H1 6443   5.312   6.367   2.108
 2067WAT     H2 6444   5.232   6.263   2.011
 2068WAT      O 6445   4.745   1.117   6.459
 2068WAT     H1 6446   4.666   1.159   6.504
 2068WAT     H2 6447   4.715   1.033   6.413
 2069WAT      O 6448   1.245   4.703   7.362
 2069WAT     H1 6449   1.246   4.603   7.369
 2069WAT     H2 6450   1.207   4.742   7.446
 2070WAT      O 6451   0.190   0.926   6.352
 2070WAT     H1 6452   0.194   1.021   6.321
 2070WAT     H2 6453   0.181   0.865   6.273
 2071WAT      O 6454   7.742   8.916   9.729
 2071WAT     H1 6455   7.837   8.915   9.700
 2071WAT     H2 6456   7.696   8.996   9.691
 2072WAT      O 6457   8.200   3.947   0.830
 2072WAT     H1 6458   8.211   3.962   0.732
 2072WAT     H2 6459   8.169   4.031   0.874
 2073WAT      O 6460   7.537   0.430   2.992
 2073WAT     H1 6461   7.450   0.403   2.951
 2073WAT     H2 6462   7.529   0.520   3.033
 2074WAT      O 6463   0.706   5.399   9.263
 2074WAT     H1 6464   0.720   5.487   9.310
 2074WAT     H2 6465   0.726   5.324   9.326
 2075WAT      O 6466   3.964   1.018   1.804
 2075WAT     H1 6467   3.880   0.971   1.831
 2075WAT     H2 6468   3.962   1.038   1.706
 2076WAT      O 6469   2.988   1.096   8.823
 2076WAT     H1 6470   2.915   1.155   8.790
 2076WAT     H2 6471   2.953   1.003   8.836
 2077WAT      O 6472   5.259   1.456   4.432
 2077WAT     H1 6473   5.217   1.481   4.344
 2077WAT     H2 6474   5.340   1.399   4.415
 2078WAT      O 6475   8.285   4.683   7.917
 2078WAT     H1 6476   8.360   4.672   7.852
 2078WAT     H2 6477   8.262   4.594   7.957
 2079WAT      O 6478   8.524   7.077   7.002
 2079WAT     H1 6479   8.580   7.105   6.924
 2079WAT     H2 6480   8.573   7.005   7.053
 2080WAT      O 6481   4.693   0.722   8.708
 2080WAT     H1 6482   4.725   0.778   8.785
 2080WAT     H2 6483   4.613   0.670   8.736
 2081WAT      O 6484   9.173   7.870   3.322
 2081WAT     H1 6485   9.259   7.818   3.320
 2081WAT     H2 6486   9.164   7.921   3.237
 2082WAT      O 6487   6.540   8.307   8.729
 2082WAT     H1 6488   6.443   8.305   8.754
 2082WAT     H2 6489   6.549   8.298   8.630
 2083WAT      O 6490   2.449   9.654   1.062
 2083WAT     H1 6491   2.369   9.709   1.086
 2083WAT     H2 6492   2.425   9.590   0.989
 2084WAT      O 6493   6.378   7.891   8.376
 2084WAT     H1 6494   6.401   7.900   8.279
 2084WAT     H2 6495   6.322   7.809   8.389
 2085WAT      O 6496   4.187   7.925   6.176
 2085WAT     H1 6497   4.275   7.963   6.204
 2085WAT     H2 6498   4.187   7.826   6.192
 2086WAT      O 6499   7.388   0.384   4.274
 2086WAT     H1 6500   7.367   0.301   4.223
 2086WAT     H2 6501   7.325   0.392   4.352
 2087WAT      O 6502   7.462   7.240   2.832
 2087WAT     H1 6503   7.384   7.237   2.895
 2087WAT     H2 6504   7.429   7.227   2.739
 2088WAT      O 6505   5.115   2.414   9.052
 2088WAT     H1 6506   5.125   2.370   9.141
 2088WAT     H2 6507   5.130   2.512   9.062
 2089WAT      O 6508   2.174   7.975   6.723
 2089WAT     H1 6509   2.136   7.928   6.643
 2089WAT     H2 6510   2.249   8.034   6.694
 2090WAT      O 6511   1.198   2.881   9.067
 2090WAT     H1 6512   1.176   2.907   8.973
 2090WAT     H2 6513   1.180   2.784   9.079
 2091WAT      O 6514   0.438   2.117   7.572
 2091WAT     H1 6515   0.391   2.046   7.625
 2091WAT     H2 6516   0.536   2.095   7.568
 2092WAT      O 6517   8.548   7.652   1.984
 2092WAT     H1 6518   8.543   7.552   1.986
 2092WAT     H2 6519   8.624   7.683   2.042
 2093WAT      O 6520   9.316   8.875   2.521
 2093WAT     H1 6521   9.272   8.904   2.436
 2093WAT     H2 6522   9.327   8.775   2.521
 2094WAT      O 6523   9.155   0.821   4.304
 2094WAT     H1 6524   9.138   0.835   4.206
 2094WAT     H2 6525   9.233   0.760   4.316
 2095WAT      O 6526   3.544   6.397   6.769
 2095WAT     H1 6527   3.580   6.393   6.676
 2095WAT     H2 6528   3.511   6.490   6.788
 2096WAT      O 6529   5.252   7.233   6.937
 2096WAT     H1 6530   5.210   7.324   6.940
 2096WAT     H2 6531   5.215   7.177   7.011
 2097WAT      O 6532   9.073   4.763   0.813
 2097WAT     H1 6533   9.012   4.820   0.867
 2097WAT     H2 6534   9.096   4.681   0.864
 2098WAT      O 6535   4.822   5.099   6.739
 2098WAT     H1 6536   4.895   5.118   6.805
 2098WAT     H2 6537   4.734   5.119   6.781
 2099WAT      O 6538   7.689   9.310   9.799
 2099WAT     H1 6539   7.689   9.263   9.711
 2099WAT     H2 6540   7.613   9.375   9.801
 2100WAT      O 6541   5.938   9.748   2.597
 2100WAT     H1 6542   5.950   9.711   2.689
 2100WAT     H2 6543   6.024   9.743   2.547
 2101WAT      O 6544   1.657   1.996   0.579
 2101WAT     H1 6545   1.565   2.004   0.617
 2101WAT     H2 6546   1.722   2.039   0.642
 2102WAT      O 6547   3.127   4.453   7.671
 2102WAT     H1 6548   3.197   4.400   7.718
 2102WAT     H2 6549   3.121   4.544   7.712
 2103WAT      O 6550   8.875   2.763   5.191
 2103WAT     H1 6551   8.798   2.702   5.174
 2103WAT     H2 6552   8.874   2.838   5.125
 2104WAT      O 6553   1.869   2.581   6.835
 2104WAT     H1 6554   1.796   2.588   6.903
 2104WAT     H2 6555   1.917   2.668   6.829
 2105WAT      O 6556   3.844   1.147   6.042
 2105WAT     H1 6557   3.781   1.210   6.088
 2105WAT     H2 6558   3.798   1.059   6.027
 2106WAT      O 6559   8.215   6.079   0.403
 2106WAT     H1 6560   8.249   6.000   0.352
 2106WAT     H2 6561   8.290   6.123   0.451
 2107WAT      O 6562   9.557   1.066   9.149
 2107WAT     H1 6563   9.459   1.050   9.142
 2107WAT     H2 6564   9.584   1.141   9.089
 2108WAT      O 6565   5.632   8.319   4.657
 2108WAT     H1 6566   5.731   8.309   4.659
 2108WAT     H2 6567   5.589   8.229   4.671
 2109WAT      O 6568   4.167   2.804   6.570
 2109WAT     H1 6569   4.237   2.760   6.514
 2109WAT     H2 6570   4.185   2.787   6.667
 2110WAT      O 6571   4.890   4.491   3.457
 2110WAT     H1 6572   4.906   4.582   3.417
 2110WAT     H2 6573   4.967   4.466   3.515
 2111WAT      O 6574   3.737   2.900   8.768
 2111WAT     H1 6575   3.820   2.944   8.735
 2111WAT     H2 6576   3.667   2.902   8.697
 2112WAT      O 6577   9.728   1.924   6.212
 2112WAT     H1 6578   9.706   1.871   6.294
 2112WAT     H2 6579   9.661   1.904   6.141
 2113WAT      O 6580   5.199   3.444   1.761
 2113WAT     H1 6581   5.221   3.459   1.665
 2113WAT     H2 6582   5.108   3.402   1.769
 2114WAT      O 6583   0.601   9.735   2.447
 2114WAT     H1 6584   0.636   9.647   2.415
 2114WAT     H2 6585   0.632   9.751   2.541
 2115WAT      O 6586   0.566   5.640   0.245
 2115WAT     H1 6587   0.605   5.619   0.334
 2115WAT     H2 6588   0.640   5.659   0.180
 2116WAT      O 6589   9.500   0.220   3.694
 2116WAT     H1 6590   9.435   0.146   3.713
 2116WAT     H2 6591   9.484   0.256   3.602
 2117WAT      O 6592   7.011   0.720   9.240
 2117WAT     H1 6593   6.963   0.733   9.154
 2117WAT     H2 6594   6.947   0.733   9.317
 2118WAT      O 6595   5.879   6.916   9.452
 2118WAT     H1 6596   5.820   6.865   9.389
 2118WAT     H2 6597   5.966   6.938   9.407
 2119WAT      O 6598   2.926   1.164   1.563
 2119WAT     H1 6599   2.969   1.144   1.651
 2119WAT     H2 6600   2.998   1.181   1.495
 2120WAT      O 6601   7.533   4.535   5.514
 2120WAT     H1 6602   7.441   4.505   5.487
 2120WAT     H2 6603   7.600   4.468   5.483
 2121WAT      O 6604   6.375   0.420   5.370
 2121WAT     H1 6605   6.379   0.432   5.469
 2121WAT     H2 6606   6.450   0.360   5.341
 2122WAT      O 6607   7.894   7.688   1.717
 2122WAT     H1 6608   7.795   7.680   1.709
 2122WAT     H2 6609   7.927   7.757   1.653
 2123WAT      O 6610   6.569   8.835   5.077
 2123WAT     H1 6611   6.652   8.814   5.129
 2123WAT     H2 6612   6.491   8.837   5.140
 2124WAT      O 6613   1.796   8.647   1.799
 2124WAT     H1 6614   1.758   8.612   1.885
 2124WAT     H2 6615   1.872   8.588   1.770
 2125WAT      O 6616   3.003   2.585   2.146
 2125WAT     H1 6617   3.032   2.618   2.056
 2125WAT     H2 6618   2.954   2.658   2.194
 2126WAT      O 6619   0.835   0.295   6.601
 2126WAT     H1 6620   0.834   0.255   6.510
 2126WAT     H2 6621   0.912   0.259   6.653
 2127WAT      O 6622   6.571   9.831   5.249
 2127WAT     H1 6623   6.526   9.894   5.187
 2127WAT     H2 6624   6.510   9.754   5.269
 2128WAT      O 6625   2.384   6.904   6.653
 2128WAT     H1 6626   2.413   6.883   6.560
 2128WAT     H2 6627   2.390   6.822   6.710
 2129WAT      O 6628   6.304   0.237   4.206
 2129WAT     H1 6629   6.350   0.239   4.117
 2129WAT     H2 6630   6.350   0.172   4.266
 2130WAT      O 6631   8.373   9.045   9.156
 2130WAT     H1 6632   8.445   8.981   9.182
 2130WAT     H2 6633   8.305   8.998   9.101
 2131WAT      O 6634   9.806   9.621   0.595
 2131WAT     H1 6635   9.904   9.619   0.618
 2131WAT     H2 6636   9.757   9.556   0.653
 2132WAT      O 6637   1.996   3.449   8.006
 2132WAT     H1 6638   1.963   3.356   7.993
 2132WAT     H2 6639   1.946   3.511   7.945
 2133WAT      O 6640   4.959   3.592   1.449
 2133WAT     H1 6641   4.937   3.613   1.544
 2133WAT     H2 6642   4.908   3.653   1.389
 2134WAT      O 6643   8.957   5.691   2.049
 2134WAT     H1 6644   8.970   5.620   2.118
 2134WAT     H2 6645   8.926   5.650   1.964
 2135WAT      O 6646   1.016   9.726   4.042
 2135WAT     H1 6647   1.055   9.659   3.979
 2135WAT     H2 6648   0.943   9.683   4.095
 2136WAT      O 6649   9.596   5.085   5.876
 2136WAT     H1 6650   9.550   5.167   5.840
 2136WAT     H2 6651   9.691   5.085   5.847
 2137WAT      O 6652   3.361   6.725   6.471
 2137WAT     H1 6653   3.284   6.789   6.468
 2137WAT     H2 6654   3.408   6.725   6.382
 2138WAT      O 6655   5.602   8.563   8.956
 2138WAT     H1 6656   5.544   8.533   8.881
 2138WAT     H2 6657   5.600   8.663   8.961
 2139WAT      O 6658   8.679   4.238   8.685
 2139WAT     H1 6659   8.616   4.305   8.726
 2139WAT     H2 6660   8.771   4.276   8.684
 2140WAT      O 6661   9.232   1.392   4.752
 2140WAT     H1 6662   9.330   1.372   4.746
 2140WAT     H2 6663   9.205   1.447   4.673
 2141WAT      O 6664   2.442   4.868   3.260
 2141WAT     H1 6665   2.415   4.782   3.217
 2141WAT     H2 6666   2.536   4.860   3.293
 2142WAT      O 6667   7.729   4.368   2.592
 2142WAT     H1 6668   7.806   4.431   2.593
 2142WAT     H2 6669   7.662   4.395   2.661
 2143WAT      O 6670   3.523   1.540   3.542
 2143WAT     H1 6671   3.558   1.605   3.610
 2143WAT     H2 6672   3.538   1.446   3.575
 2144WAT      O 6673   8.676   2.959   1.435
 2144WAT     H1 6674   8.682   3.027   1.363
 2144WAT     H2 6675   8.634   2.999   1.516
 2145WAT      O 6676   5.762   5.401   5.892
 2145WAT     H1 6677   5.826   5.395   5.815
 2145WAT     H2 6678   5.740   5.309   5.924
 2146WAT      O 6679   4.026   2.518   6.868
 2146WAT     H1 6680   3.935   2.506   6.908
 2146WAT     H2 6681   4.020   2.510   6.769
 2147WAT      O 6682   9.549   6.884   3.892
 2147WAT     H1 6683   9.638   6.839   3.889
 2147WAT     H2 6684   9.536   6.926   3.981
 2148WAT      O 6685   6.046   9.777   0.882
 2148WAT     H1 6686   6.141   9.809   0.889
 2148WAT     H2 6687   6.045   9.680   0.859
 2149WAT      O 6688   0.700   9.110   7.895
 2149WAT     H1 6689   0.758   9.183   7.931
 2149WAT     H2 6690   0.619   9.149   7.851
 2150WAT      O 6691   9.129   9.370   5.843
 2150WAT     H1 6692   9.098   9.292   5.897
 2150WAT     H2 6693   9.083   9.453   5.874
 2151WAT      O 6694   5.003   6.193   9.698
 2151WAT     H1 6695   4.986   6.241   9.612
 2151WAT     H2 6696   4.926   6.207   9.760
 2152WAT      O 6697   1.853   4.077   0.329
 2152WAT     H1 6698   1.900   4.016   0.265
 2152WAT     H2 6699   1.777   4.122   0.283
 2153WAT      O 6700   3.197   2.576   7.058
 2153WAT     H1 6701   3.144   2.521   7.123
 2153WAT     H2 6702   3.216   2.666   7.097
 2154WAT      O 6703   6.844   1.943   6.776
 2154WAT     H1 6704   6.781   2.019   6.791
 2154WAT     H2 6705   6.814   1.864   6.829
 2155WAT      O 6706   9.592   5.365   8.622
 2155WAT     H1 6707   9.548   5.445   8.662
 2155WAT     H2 6708   9.650   5.321   8.690
 2156WAT      O 6709   2.998   5.193   6.252
 2156WAT     H1 6710   3.025   5.282   6.217
 2156WAT     H2 6711   3.071   5.156   6.309
 2157WAT      O 6712   0.390   5.240   1.942
 2157WAT     H1 6713   0.324   5.167   1.926
 2157WAT     H2 6714   0.483   5.206   1.927
 2158WAT      O 6715   8.825   8.876   3.932
 2158WAT     H1 6716   8.836   8.781   3.903
 2158WAT     H2 6717   8.884   8.893   4.011
 2159WAT      O 6718   1.709   8.236   8.270
 2159WAT     H1 6719   1.704   8.333   8.296
 2159WAT     H2 6720   1.782   8.223   8.203
 2160WAT      O 6721   4.225   3.238   3.258
 2160WAT     H1 6722   4.154   3.210   3.194
 2160WAT     H2 6723   4.279   3.312   3.218
 2161WAT      O 6724   9.311   1.470   3.896
 2161WAT     H1 6725   9.357   1.395   3.945
 2161WAT     H2 6726   9.378   1.541   3.875
 2162WAT      O 6727   7.132   5.420   6.514
 2162WAT     H1 6728   7.231   5.430   6.524
 2162WAT     H2 6729   7.112   5.342   6.456
 2163WAT      O 6730   9.630   5.835   2.399
 2163WAT     H1 6731   9.568   5.757   2.411
 2163WAT     H2 6732   9.587   5.902   2.338
 2164WAT      O 6733   0.808   6.094   6.977
 2164WAT     H1 6734   0.802   6.118   7.073
 2164WAT     H2 6735   0.807   5.995   6.967
 2165WAT      O 6736   0.349   2.574   9.886
 2165WAT     H1 6737   0.270   2.515   9.903
 2165WAT     H2 6738   0.418   2.525   9.833
 2166WAT      O 6739   7.316   5.132   5.752
 2166WAT     H1 6740   7.397   5.178   5.789
 2166WAT     H2 6741   7.343   5.076   5.674
 2167WAT      O 6742   0.015   0.375   1.169
 2167WAT     H1 6743   0.045   0.464   1.134
 2167WAT     H2 6744   0.047   0.303   1.107
 2168WAT      O 6745   7.777   6.591   2.405
 2168WAT     H1 6746   7.756   6.688   2.420
 2168WAT     H2 6747   7.876   6.577   2.406
 2169WAT      O 6748   0.641   2.660   7.174
 2169WAT     H1 6749   0.699   2.663   7.255
 2169WAT     H2 6750   0.577   2.737   7.176
 2170WAT      O 6751   5.669   8.004   4.443
 2170WAT     H1 6752   5.751   7.954   4.470
 2170WAT     H2 6753   5.611   7.945   4.387
 2171WAT      O 6754   1.131   2.727   0.044
 2171WAT     H1 6755   1.038   2.749   0.075
 2171WAT     H2 6756   1.196   2.750   0.117
 2172WAT      O 6757   2.626   5.322   2.828
 2172WAT     H1 6758   2.599   5.264   2.905
 2172WAT     H2 6759   2.708   5.374   2.852
 2173WAT      O 6760   6.946   2.452   5.262
 2173WAT     H1 6761   6.887   2.530   5.243
 2173WAT     H2 6762   6.906   2.369   5.223
 2174WAT      O 6763   5.154   7.426   5.029
 2174WAT     H1 6764   5.097   7.470   5.097
 2174WAT     H2 6765   5.173   7.331   5.056
 2175WAT      O 6766   9.411   0.175   5.827
 2175WAT     H1 6767   9.317   0.148   5.804
 2175WAT     H2 6768   9.459   0.097   5.865
 2176WAT      O 6769   8.281   2.915   0.602
 2176WAT     H1 6770   8.274   3.010   0.634
 2176WAT     H2 6771   8.377   2.894   0.583
 2177WAT      O 6772   7.774   3.805   9.849
 2177WAT     H1 6773   7.702   3.874   9.846
 2177WAT     H2 6774   7.790   3.777   9.943
 2178WAT      O 6775   0.792   0.884   5.928
 2178WAT     H1 6776   0.708   0.933   5.907
 2178WAT     H2 6777   0.857   0.895   5.853
 2179WAT      O 6778   2.916   0.971   1.986
 2179WAT     H1 6779   2.961   0.948   2.072
 2179WAT     H2 6780   2.985   1.001   1.920
 2180WAT      O 6781   0.235   4.247   2.341
 2180WAT     H1 6782   0.328   4.263   2.308
 2180WAT     H2 6783   0.201   4.159   2.306
 2181WAT      O 6784   6.873   5.502   6.319
 2181WAT     H1 6785   6.797   5.561   6.347
 2181WAT     H2 6786   6.850   5.407   6.341
 2182WAT      O 6787   1.935   7.792   1.642
 2182WAT     H1 6788   1.856   7.822   1.588
 2182WAT     H2 6789   2.000   7.745   1.582
 2183WAT      O 6790   0.529   9.550   9.096
 2183WAT     H1 6791   0.485   9.461   9.085
 2183WAT     H2 6792   0.626   9.538   9.117
 2184WAT      O 6793   0.477   7.789   1.786
 2184WAT     H1 6794   0.544   7.715   1.773
 2184WAT     H2 6795   0.524   7.877   1.778
 2185WAT      O 6796   3.533   8.093   9.204
 2185WAT     H1 6797   3.579   8.181   9.222
 2185WAT     H2 6798   3.578   8.047   9.128
 2186WAT      O 6799   0.657   4.956   7.144
 2186WAT     H1 6800   0.638   5.020   7.219
 2186WAT     H2 6801   0.719   5.000   7.078
 2187WAT      O 6802   4.256   1.550   4.345
 2187WAT     H1 6803   4.200   1.558   4.428
 2187WAT     H2 6804   4.352   1.560   4.370
 2188WAT      O 6805   9.668   6.460   1.352
 2188WAT     H1 6806   9.739   6.432   1.417
 2188WAT     H2 6807   9.582   6.416   1.375
 2189WAT      O 6808   0.409   0.833   9.358
 2189WAT     H1 6809   0.415   0.933   9.358
 2189WAT     H2 6810   0.437   0.798   9.447
 2190WAT      O 6811   2.018   3.386   0.854
 2190WAT     H1 6812   2.010   3.468   0.797
 2190WAT     H2 6813   2.031   3.412   0.950
 2191WAT      O 6814   9.180   6.614   9.604
 2191WAT     H1 6815   9.119   6.614   9.524
 2191WAT     H2 6816   9.183   6.522   9.643
 2192WAT      O 6817   5.790   5.505   3.147
 2192WAT     H1 6818   5.769   5.585   3.090
 2192WAT     H2 6819   5.729   5.430   3.121
 2193WAT      O 6820   4.769   9.760   7.723
 2193WAT     H1 6821   4.696   9.783   7.659
 2193WAT     H2 6822   4.734   9.759   7.816
 2194WAT      O 6823   9.564   6.701   0.966
 2194WAT     H1 6824   9.539   6.650   0.883
 2194WAT     H2 6825   9.541   6.646   1.046
 2195WAT      O 6826   6.997   2.282   2.514
 2195WAT     H1 6827   6.901   2.287   2.541
 2195WAT     H2 6828   7.049   2.352   2.563
 2196WAT      O 6829   3.845   5.693   4.665
 2196WAT     H1 6830   3.853   5.708   4.567
 2196WAT     H2 6831   3.932   5.661   4.701
 2197WAT      O 6832   8.501   3.029   4.849
 2197WAT     H1 6833   8.490   3.093   4.925
 2197WAT     H2 6834   8.594   3.034   4.814
 2198WAT      O 6835   2.619   0.327   9.729
 2198WAT     H1 6836   2.577   0.387   9.661
 2198WAT     H2 6837   2.549   0.287   9.787
 2199WAT      O 6838   7.714   1.225   7.366
 2199WAT     H1 6839   7.810   1.201   7.379
 2199WAT     H2 6840   7.709   1.313   7.318
 2200WAT      O 6841   4.407   5.807   5.688
 2200WAT     H1 6842   4.500   5.794   5.654
 2200WAT     H2 6843   4.400   5.896   5.733
 2201WAT      O 6844   5.310   1.562   8.766
 2201WAT     H1 6845   5.244   1.500   8.809
 2201WAT     H2 6846   5.292   1.656   8.795
 2202WAT      O 6847   8.064   9.643   7.734
 2202WAT     H1 6848   8.031   9.711   7.799
 2202WAT     H2 6849   7.989   9.580   7.711
 2203WAT      O 6850   3.987   3.072   3.948
 2203WAT     H1 6851   3.947   3.117   3.868
 2203WAT     H2 6852   4.058   3.008   3.919
 2204WAT      O 6853   1.333   2.150   7.661
 2204WAT     H1 6854   1.272   2.159   7.582
 2204WAT     H2 6855   1.427   2.133   7.630
 2205WAT      O 6856   2.064   9.449   8.100
 2205WAT     H1 6857   2.033   9.493   8.184
 2205WAT     H2 6858   2.000   9.470   8.026
 2206WAT      O 6859   8.773   4.647   7.013
 2206WAT     H1 6860   8.840   4.572   7.019
 2206WAT     H2 6861   8.685   4.617   7.048
 2207WAT      O 6862   6.887   6.134   0.922
 2207WAT     H1 6863   6.853   6.040   0.911
 2207WAT     H2 6864   6.846   6.175   1.003
 2208WAT      O 6865   5.502   9.362   0.409
 2208WAT     H1 6866   5.423   9.423   0.395
 2208WAT     H2 6867   5.586   9.416   0.409
 2209WAT      O 6868   8.417   2.744   3.002
 2209WAT     H1 6869   8.404   2.744   3.101
 2209WAT     H2 6870   8.460   2.829   2.974
 2210WAT      O 6871   6.985   8.196   7.740
 2210WAT     H1 6872   6.949   8.287   7.761
 2210WAT     H2 6873   7.054   8.204   7.668
 2211WAT      O 6874   1.762   4.068   3.810
 2211WAT     H1 6875   1.725   4.015   3.886
 2211WAT     H2 6876   1.753   4.015   3.725
 2212WAT      O 6877   8.341   0.793   4.374
 2212WAT     H1 6878   8.333   0.723   4.303
 2212WAT     H2 6879   8.412   0.766   4.440
 2213WAT      O 6880   4.807   3.158   6.693
 2213WAT     H1 6881   4.823   3.256   6.685
 2213WAT     H2 6882   4.765   3.137   6.781
 2214WAT      O 6883   6.001   3.070   2.148
 2214WAT     H1 6884   6.025   3.111   2.236
 2214WAT     H2 6885   5.902   3.068   2.138
 2215WAT      O 6886   0.650   7.890   1.239
 2215WAT     H1 6887   0.578   7.879   1.307
 2215WAT     H2 6888   0.729   7.936   1.281
 2216WAT      O 6889   6.523   5.470   8.839
 2216WAT     H1 6890   6.492   5.552   8.887
 2216WAT     H2 6891   6.515   5.390   8.899
 2217WAT      O 6892   3.277   3.418   3.954
 2217WAT     H1 6893   3.260   3.467   3.869
 2217WAT     H2 6894   3.337   3.340   3.936
 2218WAT      O 6895   5.223   5.204   9.222
 2218WAT     H1 6896   5.128   5.212   9.254
 2218WAT     H2 6897   5.283   5.186   9.301
 2219WAT      O 6898   4.935   8.056   1.066
 2219WAT     H1 6899   4.895   7.996   0.996
 2219WAT     H2 6900   4.948   8.147   1.028
 2220WAT      O 6901   1.451   5.387   9.551
 2220WAT     H1 6902   1.439   5.471   9.498
 2220WAT     H2 6903   1.541   5.347   9.531
 2221WAT      O 6904   4.401   5.472   0.552
 2221WAT     H1 6905   4.409   5.375   0.530
 2221WAT     H2 6906   4.408   5.526   0.469
 2222WAT      O 6907   3.280   8.112   9.312
 2222WAT     H1 6908   3.298   8.139   9.406
 2222WAT     H2 6909   3.366   8.083   9.268
 2223WAT      O 6910   1.008   8.770   2.240
 2223WAT     H1 6911   0.945   8.843   2.215
 2223WAT     H2 6912   0.961   8.702   2.297
 2224WAT      O 6913   8.904   0.949   4.806
 2224WAT     H1 6914   8.884   1.037   4.762
 2224WAT     H2 6915   8.914   0.962   4.905
 2225WAT      O 6916   0.245   6.470   3.703
 2225WAT     H1 6917   0.283   6.392   3.654
 2225WAT     H2 6918   0.148   6.479   3.681
 2226WAT      O 6919   9.543   0.956   1.604
 2226WAT     H1 6920   9.495   0.887   1.658
 2226WAT     H2 6921   9.488   0.981   1.524
 2227WAT      O 6922   4.149   8.809   6.104
 2227WAT     H1 6923   4.203   8.876   6.053
 2227WAT     H2 6924   4.074   8.855   6.152
 2228WAT      O 6925   1.621   0.508   5.307
 2228WAT     H1 6926   1.629   0.490   5.209
 2228WAT     H2 6927   1.524   0.520   5.331
 2229WAT      O 6928   1.585   6.636   0.208
 2229WAT     H1 6929   1.547   6.590   0.128
 2229WAT     H2 6930   1.682   6.615   0.216
 2230WAT      O 6931   1.906   8.656   8.254
 2230WAT     H1 6932   1.976   8.698   8.310
 2230WAT     H2 6933   1.948   8.591   8.190
 2231WAT      O 6934   9.167   9.329   2.043
 2231WAT     H1 6935   9.225   9.248   2.059
 2231WAT     H2 6936   9.175   9.391   2.120
 2232WAT      O 6937   9.765   9.365   4.053
 2232WAT     H1 6938   9.672   9.330   4.045
 2232WAT     H2 6939   9.830   9.289   4.045
 2233WAT      O 6940   8.108   8.345   3.374
 2233WAT     H1 6941   8.113   8.395   3.460
 2233WAT     H2 6942   8.017   8.356   3.334
 2234WAT      O 6943   8.247   2.416   5.540
 2234WAT     H1 6944   8.294   2.469   5.611
 2234WAT     H2 6945   8.314   2.388   5.471
 2235WAT      O 6946   2.952   5.518   2.084
 2235WAT     H1 6947   2.874   5.472   2.042
 2235WAT     H2 6948   2.961   5.487   2.179
 2236WAT      O 6949   2.112   2.467   0.833
 2236WAT     H1 6950   2.081   2.372   0.836
 2236WAT     H2 6951   2.034   2.528   0.819
 2237WAT      O 6952   5.300   0.430   6.884
 2237WAT     H1 6953   5.381   0.481   6.915
 2237WAT     H2 6954   5.261   0.475   6.804
 2238WAT      O 6955   0.347   7.060   2.257
 2238WAT     H1 6956   0.383   6.991   2.321
 2238WAT     H2 6957   0.259   7.092   2.291
 2239WAT      O 6958   6.189   3.692   8.529
 2239WAT     H1 6959   6.257   3.627   8.562
 2239WAT     H2 6960   6.234   3.778   8.504
 2240WAT      O 6961   6.926   0.170   9.123
 2240WAT     H1 6962   6.899   0.158   9.218
 2240WAT     H2 6963   7.015   0.126   9.108
 2241WAT      O 6964   3.615   1.998   4.651
 2241WAT     H1 6965   3.623   2.085   4.700
 2241WAT     H2 6966   3.526   1.993   4.606
 2242WAT      O 6967   8.239   9.209   8.254
 2242WAT     H1 6968   8.245   9.122   8.303
 2242WAT     H2 6969   8.146   9.245   8.260
 2243WAT      O 6970   3.254   7.028   4.531
 2243WAT     H1 6971   3.300   6.949   4.490
 2243WAT     H2 6972   3.191   7.068   4.465
 2244WAT      O 6973   8.400   7.462   3.570
 2244WAT     H1 6974   8.415   7.434   3.665
 2244WAT     H2 6975   8.302   7.475   3.555
 2245WAT      O 6976   8.902   8.491   7.569
 2245WAT     H1 6977   8.884   8.406   7.520
 2245WAT     H2 6978   8.864   8.484   7.662
 2246WAT      O 6979   0.304   5.916   0.299
 2246WAT     H1 6980   0.269   6.009   0.309
 2246WAT     H2 6981   0.228   5.852   0.293
 2247WAT      O 6982   4.068   4.815   3.986
 2247WAT     H1 6983   4.140   4.884   3.978
 2247WAT     H2 6984   3.979   4.860   3.985
 2248WAT      O 6985   2.232   6.256   0.050
 2248WAT     H1 6986   2.302   6.271   0.120
 2248WAT     H2 6987   2.175   6.337   0.042
 2249WAT      O 6988   0.601   8.912   3.556
 2249WAT     H1 6989   0.508   8.896   3.522
 2249WAT     H2 6990   0.665   8.856   3.505
 2250WAT      O 6991   8.293   2.649   7.709
 2250WAT     H1 6992   8.288   2.730   7.767
 2250WAT     H2 6993   8.258   2.671   7.618
 2251WAT      O 6994   6.298   9.672   8.402
 2251WAT     H1 6995   6.369   9.721   8.452
 2251WAT     H2 6996   6.318   9.676   8.304
 2252WAT      O 6997   2.239   7.556   9.115
 2252WAT     H1 6998   2.269   7.511   9.030
 2252WAT     H2 6999   2.319   7.574   9.172
 2253WAT      O 7000   1.259   4.683   5.098
 2253WAT     H1 7001   1.195   4.610   5.124
 2253WAT     H2 7002   1.231   4.722   5.010
 2254WAT      O 7003   5.011   1.343   8.993
 2254WAT     H1 7004   4.913   1.327   8.984
 2254WAT     H2 7005   5.033   1.434   8.958
 2255WAT      O 7006   6.161   6.102   6.641
 2255WAT     H1 7007   6.158   6.011   6.682
 2255WAT     H2 7008   6.138   6.096   6.544
 2256WAT      O 7009   5.789   3.792   4.119
 2256WAT     H1 7010   5.751   3.702   4.097
 2256WAT     H2 7011   5.883   3.797   4.087
 2257WAT      O 7012   3.883   1.628   8.160
 2257WAT     H1 7013   3.827   1.559   8.114
 2257WAT     H2 7014   3.961   1.652   8.102
 2258WAT      O 7015   8.571   7.743   4.054
 2258WAT     H1 7016   8.660   7.778   4.024
 2258WAT     H2 7017   8.499   7.781   3.997
 2259WAT      O 7018   2.488   6.346   4.194
 2259WAT     H1 7019   2.557   6.295   4.142
 2259WAT     H2 7020   2.446   6.415   4.136
 2260WAT      O 7021   4.155   9.426   9.741
 2260WAT     H1 7022   4.153   9.525   9.755
 2260WAT     H2 7023   4.243   9.390   9.773
 2261WAT      O 7024   0.175   5.971   8.721
 2261WAT     H1 7025   0.181   5.948   8.624
 2261WAT     H2 7026   0.212   5.895   8.775
 2262WAT      O 7027   3.391   1.985   4.520
 2262WAT     H1 7028   3.336   1.901   4.526
 2262WAT     H2 7029   3.437   1.987   4.431
 2263WAT      O 7030   7.974   8.711   5.203
 2263WAT     H1 7031   7.898   8.737   5.264
 2263WAT     H2 7032   8.033   8.790   5.187
 2264WAT      O 7033   0.294   5.652   7.869
 2264WAT     H1 7034   0.196   5.664   7.853
 2264WAT     H2 7035   0.341   5.636   7.782
 2265WAT      O 7036   0.091   7.781   8.604
 2265WAT     H1 7037   0.129   7.872   8.619
 2265WAT     H2 7038   0.009   7.788   8.548
 2266WAT      O 7039   4.978   1.195   5.536
 2266WAT     H1 7040   5.009   1.105   5.567
 2266WAT     H2 7041   4.883   1.209   5.561
 2267WAT      O 7042   9.722   0.150   9.394
 2267WAT     H1 7043   9.717   0.169   9.296
 2267WAT     H2 7044   9.706   0.052   9.409
 2268WAT      O 7045   9.633   9.021   8.095
 2268WAT     H1 7046   9.613   9.094   8.161
 2268WAT     H2 7047   9.548   8.981   8.063
 2269WAT      O 7048   3.775   6.203   4.615
 2269WAT     H1 7049   3.706   6.181   4.545
 2269WAT     H2 7050   3.750   6.289   4.660
 2270WAT      O 7051   9.035   5.571   6.138
 2270WAT     H1 7052   9.095   5.618   6.074
 2270WAT     H2 7053   8.955   5.628   6.157
 2271WAT      O 7054   1.031   6.019   6.666
 2271WAT     H1 7055   0.932   6.023   6.656
 2271WAT     H2 7056   1.074   6.068   6.590
 2272WAT      O 7057   7.646   4.504   6.533
 2272WAT     H1 7058   7.590   4.506   6.450
 2272WAT     H2 7059   7.740   4.479   6.510
 2273WAT      O 7060   8.544   9.496   3.422
 2273WAT     H1 7061   8.472   9.429   3.405
 2273WAT     H2 7062   8.504   9.587   3.425
 2274WAT      O 7063   2.338   3.279   7.649
 2274WAT     H1 7064   2.354   3.194   7.699
 2274WAT     H2 7065   2.340   3.261   7.551
 2275WAT      O 7066   8.158   1.836   1.714
 2275WAT     H1 7067   8.075   1.828   1.660
 2275WAT     H2 7068   8.194   1.745   1.734
 2276WAT      O 7069   8.634   2.023   0.823
 2276WAT     H1 7070   8.556   2.055   0.876
 2276WAT     H2 7071   8.610   2.019   0.726
 2277WAT      O 7072   9.383   6.611   0.324
 2277WAT     H1 7073   9.463   6.560   0.294
 2277WAT     H2 7074   9.361   6.586   0.419
 2278WAT      O 7075   6.460   8.150   1.887
 2278WAT     H1 7076   6.451   8.218   1.960
 2278WAT     H2 7077   6.531   8.084   1.911
 2279WAT      O 7078   5.533   4.905   1.896
 2279WAT     H1 7079   5.434   4.891   1.903
 2279WAT     H2 7080   5.558   4.917   1.800
 2280WAT      O 7081   0.546   2.858   9.510
 2280WAT     H1 7082   0.622   2.827   9.568
 2280WAT     H2 7083   0.469   2.794   9.521
 2281WAT      O 7084   0.867   5.827   6.996
 2281WAT     H1 7085   0.881   5.769   7.077
 2281WAT     H2 7086   0.789   5.793   6.944
 2282WAT      O 7087   1.988   8.362   1.127
 2282WAT     H1 7088   2.032   8.342   1.214
 2282WAT     H2 7089   1.973   8.461   1.118
 2283WAT      O 7090   0.734   3.807   6.421
 2283WAT     H1 7091   0.639   3.790   6.446
 2283WAT     H2 7092   0.762   3.744   6.349
 2284WAT      O 7093   5.309   0.838   1.099
 2284WAT     H1 7094   5.214   0.856   1.073
 2284WAT     H2 7095   5.348   0.920   1.141
 2285WAT      O 7096   2.835   0.100   5.630
 2285WAT     H1 7097   2.873   0.146   5.549
 2285WAT     H2 7098   2.833   0.165   5.706
 2286WAT      O 7099   8.886   0.942   5.622
 2286WAT     H1 7100   8.811   1.007   5.621
 2286WAT     H2 7101   8.936   0.946   5.536
 2287WAT      O 7102   3.262   6.297   9.886
 2287WAT     H1 7103   3.286   6.292   9.983
 2287WAT     H2 7104   3.259   6.393   9.857
 2288WAT      O 7105   5.279   7.512   8.247
 2288WAT     H1 7106   5.264   7.527   8.150
 2288WAT     H2 7107   5.249   7.420   8.272
 2289WAT      O 7108   9.272   4.019   6.756
 2289WAT     H1 7109   9.326   3.966   6.691
 2289WAT     H2 7110   9.181   3.980   6.764
 2290WAT      O 7111   0.394   0.083   4.452
 2290WAT     H1 7112   0.318   0.147   4.440
 2290WAT     H2 7113   0.374   0.022   4.529
 2291WAT      O 7114   2.943   2.216   4.044
 2291WAT     H1 7115   2.850   2.204   4.008
 2291WAT     H2 7116   2.944   2.293   4.107
 2292WAT      O 7117   2.886   8.960   4.568
 2292WAT     H1 7118   2.974   8.955   4.615
 2292WAT     H2 7119   2.866   9.056   4.545
 2293WAT      O 7120   8.288   9.650   0.977
 2293WAT     H1 7121   8.250   9.569   1.021
 2293WAT     H2 7122   8.331   9.624   0.890
 2294WAT      O 7123   5.291   8.055   1.514
 2294WAT     H1 7124   5.202   8.098   1.502
 2294WAT     H2 7125   5.339   8.054   1.426
 2295WAT      O 7126   5.869   2.905   7.132
 2295WAT     H1 7127   5.864   2.914   7.033
 2295WAT     H2 7128   5.941   2.964   7.168
 2296WAT      O 7129   4.982   4.468   4.666
 2296WAT     H1 7130   4.965   4.520   4.750
 2296WAT     H2 7131   5.042   4.521   4.606
 2297WAT      O 7132   3.709   4.551   4.527
 2297WAT     H1 7133   3.614   4.523   4.545
 2297WAT     H2 7134   3.710   4.610   4.447
 2298WAT      O 7135   0.258   1.439   5.295
 2298WAT     H1 7136   0.262   1.519   5.235
 2298WAT     H2 7137   0.171   1.437   5.343
 2299WAT      O 7138   3.542   7.366   1.455
 2299WAT     H1 7139   3.611   7.439   1.458
 2299WAT     H2 7140   3.461   7.394   1.507
 2300WAT      O 7141   1.128   4.143   2.000
 2300WAT     H1 7142   1.119   4.155   1.901
 2300WAT     H2 7143   1.093   4.224   2.047
 2301WAT      O 7144   5.085   6.797   2.583
 2301WAT     H1 7145   5.066   6.885   2.625
 2301WAT     H2 7146   5.003   6.739   2.587
 2302WAT      O 7147   6.273   4.695   8.395
 2302WAT     H1 7148   6.294   4.785   8.433
 2302WAT     H2 7149   6.354   4.658   8.349
 2303WAT      O 7150   9.356   6.268   0.046
 2303WAT     H1 7151   9.455   6.255   0.048
 2303WAT     H2 7152   9.331   6.343   0.107
 2304WAT      O 7153   8.290   5.147   1.720
 2304WAT     H1 7154   8.242   5.137   1.807
 2304WAT     H2 7155   8.284   5.061   1.669
 2305WAT      O 7156   6.934   2.590   2.998
 2305WAT     H1 7157   6.959   2.493   3.005
 2305WAT     H2 7158   7.015   2.646   3.016
 2306WAT      O 7159   3.402   0.992   9.378
 2306WAT     H1 7160   3.308   0.979   9.349
 2306WAT     H2 7161   3.456   0.910   9.356
 2307WAT      O 7162   6.092   1.317   6.397
 2307WAT     H1 7163   6.125   1.278   6.311
 2307WAT     H2 7164   6.169   1.325   6.461
 2308WAT      O 7165   6.345   6.508   8.947
 2308WAT     H1 7166   6.434   6.481   8.910
 2308WAT     H2 7167   6.286   6.427   8.952
 2309WAT      O 7168   6.146   4.148   3.837
 2309WAT     H1 7169   6.059   4.101   3.852
 2309WAT     H2 7170   6.131   4.247   3.834
 2310WAT      O 7171   7.799   7.945   6.164
 2310WAT     H1 7172   7.821   8.008   6.238
 2310WAT     H2 7173   7.720   7.980   6.113
 2311WAT      O 7174   8.895   6.608   9.194
 2311WAT     H1 7175   8.985   6.622   9.234
 2311WAT     H2 7176   8.825   6.639   9.258
 2312WAT      O 7177   9.662   1.276   5.560
 2312WAT     H1 7178   9.699   1.354   5.610
 2312WAT     H2 7179   9.565   1.292   5.540
 2313WAT      O 7180   1.379   9.521   7.921
 2313WAT     H1 7181   1.345   9.584   7.851
 2313WAT     H2 7182   1.443   9.569   7.981
 2314WAT      O 7183   8.584   9.144   2.274
 2314WAT     H1 7184   8.582   9.222   2.336
 2314WAT     H2 7185   8.490   9.122   2.246
 2315WAT      O 7186   2.662   7.198   9.464
 2315WAT     H1 7187   2.743   7.249   9.435
 2315WAT     H2 7188   2.669   7.178   9.562
 2316WAT      O 7189   6.169   2.022   6.129
 2316WAT     H1 7190   6.093   1.959   6.146
 2316WAT     H2 7191   6.220   1.992   6.049
 2317WAT      O 7192   4.028   5.147   4.190
 2317WAT     H1 7193   4.067   5.192   4.110
 2317WAT     H2 7194   4.096   5.086   4.230
 2318WAT      O 7195   7.773   2.030   3.715
 2318WAT     H1 7196   7.695   2.057   3.658
 2318WAT     H2 7197   7.843   2.103   3.712
 2319WAT      O 7198   0.413   1.687   0.887
 2319WAT     H1 7199   0.454   1.656   0.801
 2319WAT     H2 7200   0.328   1.637   0.902
 2320WAT      O 7201   4.078   1.990   5.092
 2320WAT     H1 7202   3.981   1.967   5.096
 2320WAT     H2 7203   4.108   1.989   4.997
 2321WAT      O 7204   4.525   2.833   9.709
 2321WAT     H1 7205   4.503   2.739   9.733
 2321WAT     H2 7206   4.601   2.865   9.765
 2322WAT      O 7207   3.545   8.539   1.227
 2322WAT     H1 7208   3.476   8.577   1.164
 2322WAT     H2 7209   3.599   8.613   1.266
 2323WAT      O 7210   9.011   6.672   2.071
 2323WAT     H1 7211   8.974   6.706   2.158
 2323WAT     H2 7212   8.937   6.637   2.015
 2324WAT      O 7213   4.831   9.060   4.155
 2324WAT     H1 7214   4.799   8.988   4.093
 2324WAT     H2 7215   4.784   9.146   4.131
 2325WAT      O 7216   2.904   8.347   2.930
 2325WAT     H1 7217   2.973   8.419   2.930
 2325WAT     H2 7218   2.932   8.275   2.866
 2326WAT      O 7219   6.479   1.811   5.272
 2326WAT     H1 7220   6.554   1.877   5.272
 2326WAT     H2 7221   6.392   1.859   5.264
 2327WAT      O 7222   6.940   2.569   5.941
 2327WAT     H1 7223   6.884   2.489   5.918
 2327WAT     H2 7224   7.009   2.583   5.870
 2328WAT      O 7225   5.426   2.955   8.606
 2328WAT     H1 7226   5.362   2.987   8.536
 2328WAT     H2 7227   5.497   2.899   8.563
 2329WAT      O 7228   6.266   0.420   9.524
 2329WAT     H1 7229   6.239   0.485   9.594
 2329WAT     H2 7230   6.251   0.459   9.433
 2330WAT      O 7231   4.024   4.491   5.637
 2330WAT     H1 7232   4.107   4.544   5.653
 2330WAT     H2 7233   4.031   4.445   5.548
 2331WAT      O 7234   7.137   8.204   5.085
 2331WAT     H1 7235   7.183   8.117   5.101
 2331WAT     H2 7236   7.047   8.203   5.130
 2332WAT      O 7237   8.522   7.175   5.861
 2332WAT     H1 7238   8.524   7.129   5.772
 2332WAT     H2 7239   8.499   7.272   5.848
 2333WAT      O 7240   0.840   9.090   7.645
 2333WAT     H1 7241   0.818   9.157   7.573
 2333WAT     H2 7242   0.778   9.103   7.722
 2334WAT      O 7243   6.061   7.196   8.290
 2334WAT     H1 7244   6.064   7.186   8.390
 2334WAT     H2 7245   6.152   7.223   8.257
 2335WAT      O 7246   7.671   9.131   9.562
 2335WAT     H1 7247   7.589   9.168   9.518
 2335WAT     H2 7248   7.738   9.106   9.492
 2336WAT      O 7249   1.286   9.234   2.503
 2336WAT     H1 7250   1.267   9.274   2.413
 2336WAT     H2 7251   1.311   9.138   2.492
 2337WAT      O 7252   1.327   2.963   8.067
 2337WAT     H1 7253   1.315   2.865   8.049
 2337WAT     H2 7254   1.349   2.976   8.163
 2338WAT      O 7255   7.920   7.833   4.603
 2338WAT     H1 7256   7.895   7.751   4.552
 2338WAT     H2 7257   8.018   7.850   4.593
 2339WAT      O 7258   5.281   8.916   2.649
 2339WAT     H1 7259   5.325   9.005   2.661
 2339WAT     H2 7260   5.200   8.910   2.707
 2340WAT      O 7261   0.366   3.273   4.186
 2340WAT     H1 7262   0.326   3.335   4.254
 2340WAT     H2 7263   0.292   3.231   4.133
 2341WAT      O 7264   2.394   7.134   3.091
 2341WAT     H1 7265   2.330   7.124   3.167
 2341WAT     H2 7266   2.430   7.045   3.065
 2342WAT      O 7267   6.546   6.110   5.902
 2342WAT     H1 7268   6.510   6.120   5.995
 2342WAT     H2 7269   6.624   6.172   5.891
 2343WAT      O 7270   3.152   6.463   2.110
 2343WAT     H1 7271   3.128   6.523   2.186
 2343WAT     H2 7272   3.093   6.382   2.112
 2344WAT      O 7273   0.518   4.618   7.678
 2344WAT     H1 7274   0.599   4.633   7.622
 2344WAT     H2 7275   0.543   4.623   7.775
 2345WAT      O 7276   6.877   6.442   8.232
 2345WAT     H1 7277   6.785   6.403   8.232
 2345WAT     H2 7278   6.926   6.413   8.151
 2346WAT      O 7279   1.366   9.839   6.650
 2346WAT     H1 7280   1.462   9.821   6.631
 2346WAT     H2 7281   1.309   9.786   6.588
 2347WAT      O 7282   6.658   1.127   9.226
 2347WAT     H1 7283   6.751   1.118   9.260
 2347WAT     H2 7284   6.653   1.091   9.133
 2348WAT      O 7285   9.336   4.710   7.502
 2348WAT     H1 7286   9.341   4.743   7.408
 2348WAT     H2 7287   9.417   4.655   7.522
 2349WAT      O 7288   4.835   1.028   0.845
 2349WAT     H1 7289   4.873   0.951   0.793
 2349WAT     H2 7290   4.885   1.112   0.823
 2350WAT      O 7291   8.247   6.912   4.730
 2350WAT     H1 7292   8.316   6.980   4.705
 2350WAT     H2 7293   8.182   6.901   4.655
 2351WAT      O 7294   1.288   6.416   8.245
 2351WAT     H1 7295   1.219   6.449   8.181
 2351WAT     H2 7296   1.296   6.480   8.322
 2352WAT      O 7297   4.524   1.638   3.805
 2352WAT     H1 7298   4.620   1.617   3.825
 2352WAT     H2 7299   4.466   1.602   3.878
 2353WAT      O 7300   1.832   0.701   6.423
 2353WAT     H1 7301   1.902   0.716   6.353
 2353WAT     H2 7302   1.747   0.747   6.396
 2354WAT      O 7303   5.166   9.396   5.514
 2354WAT     H1 7304   5.142   9.455   5.591
 2354WAT     H2 7305   5.221   9.320   5.545
 2355WAT      O 7306   3.185   7.437   8.456
 2355WAT     H1 7307   3.280   7.450   8.481
 2355WAT     H2 7308   3.132   7.411   8.537
 2356WAT      O 7309   2.192   7.964   1.217
 2356WAT     H1 7310   2.106   7.931   1.177
 2356WAT     H2 7311   2.196   7.937   1.313
 2357WAT      O 7312   4.179   3.134   2.383
 2357WAT     H1 7313   4.174   3.220   2.332
 2357WAT     H2 7314   4.211   3.061   2.322
 2358WAT      O 7315   2.447   1.142   5.401
 2358WAT     H1 7316   2.528   1.114   5.453
 2358WAT     H2 7317   2.369   1.153   5.462
 2359WAT      O 7318   2.662   8.975   6.603
 2359WAT     H1 7319   2.745   8.978   6.659
 2359WAT     H2 7320   2.596   9.041   6.639
 2360WAT      O 7321   2.885   4.920   1.796
 2360WAT     H1 7322   2.954   4.924   1.868
 2360WAT     H2 7323   2.835   5.006   1.793
 2361WAT      O 7324   2.867   1.326   4.295
 2361WAT     H1 7325   2.899   1.342   4.388
 2361WAT     H2 7326   2.931   1.370   4.231
 2362WAT      O 7327   4.442   0.923   8.617
 2362WAT     H1 7328   4.512   0.969   8.671
 2362WAT     H2 7329   4.481   0.894   8.530
 2363WAT      O 7330   4.521   5.335   3.694
 2363WAT     H1 7331   4.582   5.392   3.639
 2363WAT     H2 7332   4.493   5.255   3.641
 2364WAT      O 7333   4.507   1.116   0.795
 2364WAT     H1 7334   4.518   1.095   0.698
 2364WAT     H2 7335   4.422   1.167   0.809
 2365WAT      O 7336   0.896   7.636   1.947
 2365WAT     H1 7337   0.979   7.692   1.951
 2365WAT     H2 7338   0.885   7.587   2.034
 2366WAT      O 7339   4.199   8.244   4.477
 2366WAT     H1 7340   4.199   8.148   4.505
 2366WAT     H2 7341   4.105   8.278   4.477
 2367WAT      O 7342   2.016   7.161   2.165
 2367WAT     H1 7343   2.041   7.102   2.088
 2367WAT     H2 7344   1.933   7.213   2.141
 2368WAT      O 7345   3.099   4.364   1.909
 2368WAT     H1 7346   3.162   4.403   1.976
 2368WAT     H2 7347   3.014   4.417   1.909
 2369WAT      O 7348   5.796   0.100   2.068
 2369WAT     H1 7349   5.716   0.040   2.075
 2369WAT     H2 7350   5.782   0.181   2.124
 2370WAT      O 7351   1.632   5.604   1.354
 2370WAT     H1 7352   1.587   5.547   1.423
 2370WAT     H2 7353   1.667   5.687   1.397
 2371WAT      O 7354   1.863   2.530   2.825
 2371WAT     H1 7355   1.816   2.587   2.893
 2371WAT     H2 7356   1.920   2.463   2.872
 2372WAT      O 7357   0.937   6.613   0.342
 2372WAT     H1 7358   0.947   6.644   0.437
 2372WAT     H2 7359   1.025   6.620   0.296
 2373WAT      O 7360   7.455   5.272   9.713
 2373WAT     H1 7361   7.364   5.302   9.743
 2373WAT     H2 7362   7.495   5.343   9.655
 2374WAT      O 7363   1.035   8.429   3.385
 2374WAT     H1 7364   0.942   8.426   3.422
 2374WAT     H2 7365   1.095   8.371   3.440
 2375WAT      O 7366   7.459   8.892   7.689
 2375WAT     H1 7367   7.498   8.984   7.694
 2375WAT     H2 7368   7.452   8.865   7.593
 2376WAT      O 7369   3.325   0.473   6.769
 2376WAT     H1 7370   3.281   0.384   6.780
 2376WAT     H2 7371   3.406   0.477   6.828
 2377WAT      O 7372   4.237   8.696   5.168
 2377WAT     H1 7373   4.190   8.675   5.083
 2377WAT     H2 7374   4.233   8.794   5.186
 2378WAT      O 7375   7.219   8.015   1.736
 2378WAT     H1 7376   7.182   8.020   1.643
 2378WAT     H2 7377   7.195   7.926   1.776
 2379WAT      O 7378   3.128   8.475   6.709
 2379WAT     H1 7379   3.105   8.386   6.669
 2379WAT     H2 7380   3.190   8.461   6.786
 2380WAT      O 7381   9.198   5.374   8.816
 2380WAT     H1 7382   9.150   5.400   8.732
 2380WAT     H2 7383   9.164   5.286   8.848
 2381WAT      O 7384   1.955   7.561   2.105
 2381WAT     H1 7385   2.028   7.496   2.082
 2381WAT     H2 7386   1.992   7.632   2.166
 2382WAT      O 7387   0.552   6.434   7.206
 2382WAT     H1 7388   0.459   6.408   7.179
 2382WAT     H2 7389   0.579   6.380   7.287
 2383WAT      O 7390   6.753   3.981   9.790
 2383WAT     H1 7391   6.724   4.006   9.698
 2383WAT     H2 7392   6.695   4.028   9.857
 2384WAT      O 7393   0.851   3.841   9.740
 2384WAT     H1 7394   0.870   3.844   9.642
 2384WAT     H2 7395   0.763   3.885   9.758
 2385WAT      O 7396   4.888   1.474   0.836
 2385WAT     H1 7397   4.945   1.552   0.809
 2385WAT     H2 7398   4.937   1.389   0.816
 2386WAT      O 7399   8.832   2.462   6.785
 2386WAT     H1 7400   8.771   2.409   6.844
 2386WAT     H2 7401   8.777   2.518   6.722
 2387WAT      O 7402   0.539   1.575   8.891
 2387WAT     H1 7403   0.510   1.556   8.985
 2387WAT     H2 7404   0.628   1.532   8.874
 2388WAT      O 7405   3.660   8.872   5.396
 2388WAT     H1 7406   3.622   8.828   5.478
 2388WAT     H2 7407   3.600   8.856   5.318
 2389WAT      O 7408   6.144   1.141   6.717
 2389WAT     H1 7409   6.091   1.110   6.638
 2389WAT     H2 7410   6.086   1.138   6.799
 2390WAT      O 7411   6.323   9.759   4.955
 2390WAT     H1 7412   6.304   9.765   4.857
 2390WAT     H2 7413   6.313   9.850   4.996
 2391WAT      O 7414   9.206   4.165   2.947
 2391WAT     H1 7415   9.152   4.249   2.942
 2391WAT     H2 7416   9.227   4.134   2.855
 2392WAT      O 7417   8.634   7.436   8.827
 2392WAT     H1 7418   8.626   7.481   8.738
 2392WAT     H2 7419   8.561   7.468   8.887
 2393WAT      O 7420   7.806   3.687   0.228
 2393WAT     H1 7421   7.717   3.707   0.269
 2393WAT     H2 7422   7.801   3.599   0.179
 2394WAT      O 7423   2.187   0.186   7.606
 2394WAT     H1 7424   2.227   0.176   7.515
 2394WAT     H2 7425   2.162   0.096   7.642
 2395WAT      O 7426   7.035   6.119   8.771
 2395WAT     H1 7427   7.109   6.129   8.705
 2395WAT     H2 7428   6.976   6.042   8.744
 2396WAT      O 7429   3.162   1.461   0.011
 2396WAT     H1 7430   3.181   1.447   0.109
 2396WAT     H2 7431   3.235   1.418  -0.043
 2397WAT      O 7432   0.675   2.458   1.740
 2397WAT     H1 7433   0.624   2.437   1.823
 2397WAT     H2 7434   0.773   2.448   1.757
 2398WAT      O 7435   5.750   4.203   8.965
 2398WAT     H1 7436   5.807   4.121   8.963
 2398WAT     H2 7437   5.747   4.239   9.058
 2399WAT      O 7438   4.853   9.351   6.746
 2399WAT     H1 7439   4.805   9.434   6.717
 2399WAT     H2 7440   4.815   9.319   6.833
 2400WAT      O 7441   9.189   1.495   8.449
 2400WAT     H1 7442   9.268   1.474   8.507
 2400WAT     H2 7443   9.211   1.572   8.389
 2401WAT      O 7444   7.288   5.738   7.227
 2401WAT     H1 7445   7.280   5.837   7.237
 2401WAT     H2 7446   7.348   5.702   7.299
 2402WAT      O 7447   1.087   6.657   9.344
 2402WAT     H1 7448   1.124   6.750   9.354
 2402WAT     H2 7449   1.161   6.591   9.346
 2403WAT      O 7450   7.497   4.280   1.952
 2403WAT     H1 7451   7.405   4.318   1.960
 2403WAT     H2 7452   7.496   4.183   1.978
 2404WAT      O 7453   3.365   4.693   0.819
 2404WAT     H1 7454   3.290   4.757   0.839
 2404WAT     H2 7455   3.368   4.676   0.720
 2405WAT      O 7456   9.600   7.964   9.294
 2405WAT     H1 7457   9.532   7.896   9.267
 2405WAT     H2 7458   9.679   7.959   9.232
 2406WAT      O 7459   6.094   1.233   3.980
 2406WAT     H1 7460   6.045   1.258   4.063
 2406WAT     H2 7461   6.192   1.222   4.001
 2407WAT      O 7462   5.028   5.152   0.366
 2407WAT     H1 7463   4.938   5.110   0.382
 2407WAT     H2 7464   5.048   5.152   0.269
 2408WAT      O 7465   7.707   4.951   8.580
 2408WAT     H1 7466   7.752   5.004   8.651
 2408WAT     H2 7467   7.633   5.005   8.540
 2409WAT      O 7468   7.392   7.697   0.064
 2409WAT     H1 7469   7.467   7.733   0.119
 2409WAT     H2 7470   7.324   7.769   0.050
 2410WAT      O 7471   8.000   2.547   5.610
 2410WAT     H1 7472   7.953   2.580   5.528
 2410WAT     H2 7473   8.076   2.488   5.584
 2411WAT      O 7474   1.661   6.444   7.343
 2411WAT     H1 7475   1.725   6.384   7.391
 2411WAT     H2 7476   1.661   6.421   7.245
 2412WAT      O 7477   5.303   8.834   0.599
 2412WAT     H1 7478   5.358   8.859   0.680
 2412WAT     H2 7479   5.265   8.916   0.558
 2413WAT      O 7480   1.391   3.463   1.147
 2413WAT     H1 7481   1.383   3.373   1.102
 2413WAT     H2 7482   1.466   3.514   1.105
 2414WAT      O 7483   0.429   7.451   5.567
 2414WAT     H1 7484   0.354   7.388   5.545
 2414WAT     H2 7485   0.397   7.522   5.629
 2415WAT      O 7486   6.123   9.237   2.087
 2415WAT     H1 7487   6.117   9.177   2.167
 2415WAT     H2 7488   6.039   9.231   2.034
 2416WAT      O 7489   0.728   5.939   0.199
 2416WAT     H1 7490   0.827   5.930   0.189
 2416WAT     H2 7491   0.683   5.869   0.144
 2417WAT      O 7492   2.198   8.653   5.101
 2417WAT     H1 7493   2.190   8.753   5.110
 2417WAT     H2 7494   2.271   8.632   5.035
 2418WAT      O 7495   1.603   9.736   5.952
 2418WAT     H1 7496   1.514   9.690   5.948
 2418WAT     H2 7497   1.674   9.674   5.919
 2419WAT      O 7498   4.161   2.865   2.640
 2419WAT     H1 7499   4.249   2.885   2.598
 2419WAT     H2 7500   4.136   2.939   2.703
 2420WAT      O 7501   3.345   9.028   1.238
 2420WAT     H1 7502   3.299   8.939   1.246
 2420WAT     H2 7503   3.413   9.036   1.311
 2421WAT      O 7504   6.157   6.616   8.740
 2421WAT     H1 7505   6.178   6.564   8.823
 2421WAT     H2 7506   6.199   6.572   8.661
 2422WAT      O 7507   2.968   0.299   1.349
 2422WAT     H1 7508   2.915   0.359   1.289
 2422WAT     H2 7509   3.051   0.270   1.302
 2423WAT      O 7510   1.161   8.182   3.850
 2423WAT     H1 7511   1.196   8.101   3.804
 2423WAT     H2 7512   1.090   8.155   3.915
 2424WAT      O 7513   5.416   4.546   0.158
 2424WAT     H1 7514   5.391   4.632   0.113
 2424WAT     H2 7515   5.486   4.563   0.226
 2425WAT      O 7516   1.998   6.024   5.834
 2425WAT     H1 7517   2.082   5.979   5.805
 2425WAT     H2 7518   2.001   6.043   5.932
 2426WAT      O 7519   5.334   1.737   4.452
 2426WAT     H1 7520   5.411   1.745   4.514
 2426WAT     H2 7521   5.312   1.641   4.437
 2427WAT      O 7522   4.679   9.293   4.147
 2427WAT     H1 7523   4.678   9.393   4.151
 2427WAT     H2 7524   4.658   9.256   4.237
 2428WAT      O 7525   9.190   7.895   2.809
 2428WAT     H1 7526   9.190   7.946   2.723
 2428WAT     H2 7527   9.262   7.825   2.807
 2429WAT      O 7528   6.565   6.261   2.484
 2429WAT     H1 7529   6.561   6.200   2.564
 2429WAT     H2 7530   6.473   6.284   2.454
 2430WAT      O 7531   3.346   7.565   6.705
 2430WAT     H1 7532   3.262   7.619   6.707
 2430WAT     H2 7533   3.323   7.468   6.702
 2431WAT      O 7534   0.409   3.150   5.805
 2431WAT     H1 7535   0.321   3.196   5.814
 2431WAT     H2 7536   0.482   3.219   5.804
 2432WAT      O 7537   8.493   3.173   1.129
 2432WAT     H1 7538   8.479   3.086   1.080
 2432WAT     H2 7539   8.588   3.179   1.159
 2433WAT      O 7540   6.593   7.863   1.648
 2433WAT     H1 7541   6.503   7.903   1.665
 2433WAT     H2 7542   6.618   7.803   1.724
 2434WAT      O 7543   3.888   8.394   2.569
 2434WAT     H1 7544   3.947   8.316   2.593
 2434WAT     H2 7545   3.937   8.479   2.587
 2435WAT      O 7546   1.786   7.125   9.674
 2435WAT     H1 7547   1.838   7.141   9.590
 2435WAT     H2 7548   1.848   7.097   9.747
 2436WAT      O 7549   7.420   7.432   2.224
 2436WAT     H1 7550   7.353   7.465   2.292
 2436WAT     H2 7551   7.511   7.464   2.249
 2437WAT      O 7552   0.943   3.054   1.446
 2437WAT     H1 7553   1.004   2.980   1.475
 2437WAT     H2 7554   0.974   3.091   1.358
 2438WAT      O 7555   0.118   5.000   3.883
 2438WAT     H1 7556   0.064   4.982   3.801
 2438WAT     H2 7557   0.069   4.969   3.964
 2439WAT      O 7558   1.288   2.746   3.480
 2439WAT     H1 7559   1.269   2.685   3.557
 2439WAT     H2 7560   1.281   2.694   3.394
 2440WAT      O 7561   9.044   7.814   3.552
 2440WAT     H1 7562   9.065   7.729   3.601
 2440WAT     H2 7563   9.100   7.818   3.469
 2441WAT      O 7564   7.362   5.083   3.643
 2441WAT     H1 7565   7.273   5.067   3.600
 2441WAT     H2 7566   7.423   5.127   3.577
 2442WAT      O 7567   0.568   8.037   1.817
 2442WAT     H1 7568   0.647   8.041   1.878
 2442WAT     H2 7569   0.554   8.125   1.773
 2443WAT      O 7570   4.329   4.066   1.981
 2443WAT     H1 7571   4.410   4.017   1.948
 2443WAT     H2 7572   4.318   4.050   2.079
 2444WAT      O 7573   3.430   4.871   5.197
 2444WAT     H1 7574   3.447   4.783   5.153
 2444WAT     H2 7575   3.512   4.928   5.191
 2445WAT      O 7576   7.691   8.801   5.995
 2445WAT     H1 7577   7.735   8.838   6.076
 2445WAT     H2 7578   7.743   8.826   5.914
 2446WAT      O 7579   7.227   8.970   2.054
 2446WAT     H1 7580   7.326   8.971   2.065
 2446WAT     H2 7581   7.203   8.928   1.966
 2447WAT      O 7582   6.461   3.216   0.552
 2447WAT     H1 7583   6.489   3.133   0.505
 2447WAT     H2 7584   6.458   3.292   0.487
 2448WAT      O 7585   7.162   5.705   9.137
 2448WAT     H1 7586   7.142   5.798   9.169
 2448WAT     H2 7587   7.085   5.645   9.158
 2449WAT      O 7588   0.215   9.704   0.460
 2449WAT     H1 7589   0.182   9.769   0.392
 2449WAT     H2 7590   0.312   9.685   0.444
 2450WAT      O 7591   7.980   7.625   0.159
 2450WAT     H1 7592   7.926   7.702   0.195
 2450WAT     H2 7593   8.071   7.658   0.134
 2451WAT      O 7594   0.978   3.071   7.077
 2451WAT     H1 7595   1.057   3.012   7.064
 2451WAT     H2 7596   0.997   3.137   7.149
 2452WAT      O 7597   5.483   6.926   0.072
 2452WAT     H1 7598   5.558   6.970   0.023
 2452WAT     H2 7599   5.430   6.870   0.008
 2453WAT      O 7600   1.716   5.459   8.706
 2453WAT     H1 7601   1.774   5.536   8.730
 2453WAT     H2 7602   1.620   5.484   8.719
 2454WAT      O 7603   7.304   3.767   7.073
 2454WAT     H1 7604   7.385   3.812   7.111
 2454WAT     H2 7605   7.331   3.705   7.000
 2455WAT      O 7606   5.490   0.147   3.156
 2455WAT     H1 7607   5.439   0.232   3.171
 2455WAT     H2 7608   5.588   0.167   3.157
 2456WAT      O 7609   4.844   5.086   5.843
 2456WAT     H1 7610   4.840   5.016   5.914
 2456WAT     H2 7611   4.940   5.106   5.822
 2457WAT      O 7612   3.428   1.185   6.944
 2457WAT     H1 7613   3.393   1.110   6.887
 2457WAT     H2 7614   3.466   1.147   7.028
 2458WAT      O 7615   3.198   3.281   0.224
 2458WAT     H1 7616   3.181   3.264   0.127
 2458WAT     H2 7617   3.292   3.256   0.247
 2459WAT      O 7618   0.667   5.157   3.072
 2459WAT     H1 7619   0.603   5.081   3.074
 2459WAT     H2 7620   0.664   5.207   3.159
 2460WAT      O 7621   6.518   1.970   9.485
 2460WAT     H1 7622   6.448   2.014   9.429
 2460WAT     H2 7623   6.576   2.039   9.527
 2461WAT      O 7624   6.565   6.357   8.477
 2461WAT     H1 7625   6.659   6.387   8.486
 2461WAT     H2 7626   6.543   6.344   8.380
 2462WAT      O 7627   5.836   4.070   0.637
 2462WAT     H1 7628   5.933   4.063   0.616
 2462WAT     H2 7629   5.799   4.154   0.598
 2463WAT      O 7630   2.221   3.055   1.329
 2463WAT     H1 7631   2.272   3.023   1.409
 2463WAT     H2 7632   2.258   3.012   1.247
 2464WAT      O 7633   5.719   1.309   0.088
 2464WAT     H1 7634   5.770   1.389   0.055
 2464WAT     H2 7635   5.770   1.226   0.065
 2465WAT      O 7636   1.139   1.546   3.658
 2465WAT     H1 7637   1.143   1.642   3.687
 2465WAT     H2 7638   1.185   1.536   3.570
 2466WAT      O 7639   7.540   3.956   0.724
 2466WAT     H1 7640   7.503   3.999   0.806
 2466WAT     H2 7641   7.477   3.970   0.647
 2467WAT      O 7642   3.128   7.819   1.669
 2467WAT     H1 7643   3.192   7.805   1.744
 2467WAT     H2 7644   3.113   7.918   1.656
 2468WAT      O 7645   3.752   2.777   7.182
 2468WAT     H1 7646   3.798   2.722   7.251
 2468WAT     H2 7647   3.671   2.728   7.149
 2469WAT      O 7648   9.188   7.693   3.823
 2469WAT     H1 7649   9.271   7.739   3.852
 2469WAT     H2 7650   9.202   7.651   3.733
 2470WAT      O 7651   0.336   2.474   3.943
 2470WAT     H1 7652   0.360   2.449   4.037
 2470WAT     H2 7653   0.390   2.553   3.915
 2471WAT      O 7654   7.841   5.325   3.907
 2471WAT     H1 7655   7.936   5.354   3.921
 2471WAT     H2 7656   7.786   5.403   3.878
 2472WAT      O 7657   2.262   2.580   8.158
 2472WAT     H1 7658   2.310   2.642   8.219
 2472WAT     H2 7659   2.242   2.626   8.072
 2473WAT      O 7660   3.593   2.538   3.413
 2473WAT     H1 7661   3.632   2.577   3.330
 2473WAT     H2 7662   3.581   2.439   3.402
 2474WAT      O 7663   4.939   7.355   7.979
 2474WAT     H1 7664   5.026   7.315   7.949
 2474WAT     H2 7665   4.923   7.441   7.931
 2475WAT      O 7666   2.789   6.660   8.176
 2475WAT     H1 7667   2.716   6.636   8.112
 2475WAT     H2 7668   2.826   6.576   8.216
 2476WAT      O 7669   4.159   2.371   5.703
 2476WAT     H1 7670   4.100   2.447   5.674
 2476WAT     H2 7671   4.136   2.345   5.797
 2477WAT      O 7672   4.859   2.260   4.933
 2477WAT     H1 7673   4.869   2.268   5.032
 2477WAT     H2 7674   4.785   2.196   4.912
 2478WAT      O 7675   6.826   2.884   3.036
 2478WAT     H1 7676   6.854   2.980   3.028
 2478WAT     H2 7677   6.908   2.826   3.044
 2479WAT      O 7678   0.842   3.443   7.298
 2479WAT     H1 7679   0.814   3.411   7.208
 2479WAT     H2 7680   0.767   3.431   7.363
 2480WAT      O 7681   3.865   2.967   1.950
 2480WAT     H1 7682   3.884   3.056   1.909
 2480WAT     H2 7683   3.917   2.896   1.903
 2481WAT      O 7684   5.069   1.695   8.646
 2481WAT     H1 7685   5.153   1.698   8.592
 2481WAT     H2 7686   5.017   1.779   8.632
 2482WAT      O 7687   7.711   8.891   3.105
 2482WAT     H1 7688   7.795   8.933   3.070
 2482WAT     H2 7689   7.723   8.871   3.202
 2483WAT      O 7690   3.280   2.696   9.121
 2483WAT     H1 7691   3.246   2.748   9.199
 2483WAT     H2 7692   3.360   2.742   9.083
 2484WAT      O 7693   1.488   3.571   0.021
 2484WAT     H1 7694   1.413   3.574  -0.045
 2484WAT     H2 7695   1.531   3.661   0.026
 2485WAT      O 7696   0.714   3.563   7.893
 2485WAT     H1 7697   0.737   3.561   7.990
 2485WAT     H2 7698   0.649   3.636   7.875
 2486WAT      O 7699   6.702   0.540   1.535
 2486WAT     H1 7700   6.750   0.472   1.590
 2486WAT     H2 7701   6.609   0.507   1.516
 2487WAT      O 7702   5.817   8.393   3.426
 2487WAT     H1 7703   5.871   8.451   3.487
 2487WAT     H2 7704   5.877   8.352   3.357
 2488WAT      O 7705   7.091   3.580   1.052
 2488WAT     H1 7706   7.072   3.482   1.055
 2488WAT     H2 7707   7.043   3.621   0.975
 2489WAT      O 7708   0.250   4.528   9.546
 2489WAT     H1 7709   0.268   4.626   9.533
 2489WAT     H2 7710   0.192   4.516   9.626
 2490WAT      O 7711   6.255   7.661   8.391
 2490WAT     H1 7712   6.290   7.572   8.421
 2490WAT     H2 7713   6.186   7.647   8.321
 2491WAT      O 7714   6.180   0.862   9.262
 2491WAT     H1 7715   6.173   0.890   9.357
 2491WAT     H2 7716   6.137   0.930   9.203
 2492WAT      O 7717   3.215   8.387   7.915
 2492WAT     H1 7718   3.233   8.290   7.935
 2492WAT     H2 7719   3.185   8.433   7.998
 2493WAT      O 7720   2.788   0.695   3.618
 2493WAT     H1 7721   2.755   0.601   3.623
 2493WAT     H2 7722   2.881   0.700   3.652
 2494WAT      O 7723   3.225   3.746   4.649
 2494WAT     H1 7724   3.308   3.756   4.594
 2494WAT     H2 7725   3.169   3.672   4.612
 2495WAT      O 7726   9.875   5.637   5.757
 2495WAT     H1 7727   9.779   5.625   5.735
 2495WAT     H2 7728   9.931   5.604   5.681
 2496WAT      O 7729   0.494   7.282   9.756
 2496WAT     H1 7730   0.457   7.293   9.848
 2496WAT     H2 7731   0.594   7.291   9.760
 2497WAT      O 7732   0.362   5.222   7.965
 2497WAT     H1 7733   0.389   5.296   8.026
 2497WAT     H2 7734   0.288   5.170   8.006
 2498WAT      O 7735   2.716   3.749   1.194
 2498WAT     H1 7736   2.775   3.823   1.161
 2498WAT     H2 7737   2.734   3.666   1.141
 2499WAT      O 7738   6.515   2.169   2.400
 2499WAT     H1 7739   6.601   2.210   2.430
 2499WAT     H2 7740   6.480   2.109   2.471
 2500WAT      O 7741   1.393   2.471   4.097
 2500WAT     H1 7742   1.409   2.563   4.062
 2500WAT     H2 7743   1.300   2.442   4.073
 2501WAT      O 7744   3.310   6.970   3.821
 2501WAT     H1 7745   3.362   7.006   3.744
 2501WAT     H2 7746   3.332   7.022   3.904
 2502WAT      O 7747   5.929   7.654   1.927
 2502WAT     H1 7748   5.837   7.690   1.944
 2502WAT     H2 7749   5.941   7.569   1.978
 2503WAT      O 7750   4.816   2.134   6.226
 2503WAT     H1 7751   4.811   2.139   6.326
 2503WAT     H2 7752   4.725   2.148   6.188
 2504WAT      O 7753   6.805   6.753   6.994
 2504WAT     H1 7754   6.835   6.703   7.076
 2504WAT     H2 7755   6.709   6.732   6.976
 2505WAT      O 7756   3.957   9.171   7.202
 2505WAT     H1 7757   3.989   9.182   7.108
 2505WAT     H2 7758   3.955   9.073   7.225
 2506WAT      O 7759   3.108   1.646   1.982
 2506WAT     H1 7760   3.107   1.559   1.933
 2506WAT     H2 7761   3.104   1.629   2.080
 2507WAT      O 7762   9.032   0.825   2.809
 2507WAT     H1 7763   9.117   0.784   2.841
 2507WAT     H2 7764   9.012   0.907   2.862
 2508WAT      O 7765   8.098   7.795   9.626
 2508WAT     H1 7766   8.075   7.700   9.647
 2508WAT     H2 7767   8.169   7.827   9.688
 2509WAT      O 7768   0.993   7.353   8.506
 2509WAT     H1 7769   0.915   7.292   8.500
 2509WAT     H2 7770   0.995   7.397   8.595
 2510WAT      O 7771   5.194   6.358   7.112
 2510WAT     H1 7772   5.115   6.386   7.165
 2510WAT     H2 7773   5.185   6.262   7.087
 2511WAT      O 7774   8.219   3.957   4.974
 2511WAT     H1 7775   8.219   3.883   4.907
 2511WAT     H2 7776   8.214   3.919   5.066
 2512WAT      O 7777   6.898   5.099   2.763
 2512WAT     H1 7778   6.871   5.175   2.823
 2512WAT     H2 7779   6.929   5.135   2.675
 2513WAT      O 7780   0.413   5.325   3.739
 2513WAT     H1 7781   0.507   5.346   3.765
 2513WAT     H2 7782   0.378   5.251   3.796
 2514WAT      O 7783   5.188   1.213   8.845
 2514WAT     H1 7784   5.145   1.219   8.755
 2514WAT     H2 7785   5.137   1.269   8.910
 2515WAT      O 7786   0.015   5.757   6.285
 2515WAT     H1 7787  -0.056   5.811   6.330
 2515WAT     H2 7788  -0.005   5.660   6.296
 2516WAT      O 7789   7.641   2.821   4.584
 2516WAT     H1 7790   7.561   2.841   4.526
 2516WAT     H2 7791   7.638   2.879   4.666
 2517WAT      O 7792   6.504   0.724   7.354
 2517WAT     H1 7793   6.489   0.629   7.327
 2517WAT     H2 7794   6.511   0.781   7.273
 2518WAT      O 7795   3.018   6.078   7.879
 2518WAT     H1 7796   2.955   6.129   7.821
 2518WAT     H2 7797   3.039   5.990   7.835
 2519WAT      O 7798   8.341   7.789   0.968
 2519WAT     H1 7799   8.327   7.849   0.888
 2519WAT     H2 7800   8.361   7.845   1.048
 2520WAT      O 7801   6.870   0.083   9.406
 2520WAT     H1 7802   6.936   0.076   9.481
 2520WAT     H2 7803   6.821  -0.004   9.396
 2521WAT      O 7804   3.301   1.153   8.179
 2521WAT     H1 7805   3.369   1.187   8.114
 2521WAT     H2 7806   3.256   1.072   8.141
 2522WAT      O 7807   7.202   3.310   5.570
 2522WAT     H1 7808   7.109   3.346   5.578
 2522WAT     H2 7809   7.201   3.211   5.579
 2523WAT      O 7810   8.630   1.653   1.519
 2523WAT     H1 7811   8.694   1.627   1.592
 2523WAT     H2 7812   8.607   1.750   1.529
 2524WAT      O 7813   5.426   8.030   5.535
 2524WAT     H1 7814   5.410   7.937   5.501
 2524WAT     H2 7815   5.497   8.027   5.606
 2525WAT      O 7816   9.613   4.090   8.467
 2525WAT     H1 7817   9.575   4.168   8.417
 2525WAT     H2 7818   9.570   4.006   8.434
 2526WAT      O 7819   5.637   8.616   0.341
 2526WAT     H1 7820   5.633   8.598   0.243
 2526WAT     H2 7821   5.576   8.692   0.364
 2527WAT      O 7822   6.994   9.610   2.148
 2527WAT     H1 7823   7.041   9.697   2.136
 2527WAT     H2 7824   6.911   9.608   2.093
 2528WAT      O 7825   5.990   7.831   9.285
 2528WAT     H1 7826   6.020   7.772   9.209
 2528WAT     H2 7827   5.978   7.924   9.251
 2529WAT      O 7828   3.522   6.867   1.774
 2529WAT     H1 7829   3.451   6.860   1.844
 2529WAT     H2 7830   3.505   6.797   1.703
 2530WAT      O 7831   5.259   8.274   2.375
 2530WAT     H1 7832   5.339   8.222   2.345
 2530WAT     H2 7833   5.236   8.247   2.469
 2531WAT      O 7834   6.615   7.464   4.916
 2531WAT     H1 7835   6.706   7.503   4.931
 2531WAT     H2 7836   6.559   7.477   4.998
 2532WAT      O 7837   6.464   1.386   6.233
 2532WAT     H1 7838   6.437   1.463   6.290
 2532WAT     H2 7839   6.382   1.346   6.191
 2533WAT      O 7840   9.298   7.558   0.550
 2533WAT     H1 7841   9.203   7.534   0.570
 2533WAT     H2 7842   9.345   7.478   0.513
 2534WAT      O 7843   6.156   5.706   7.886
 2534WAT     H1 7844   6.082   5.714   7.953
 2534WAT     H2 7845   6.241   5.740   7.925
 2535WAT      O 7846   5.119   7.779   0.968
 2535WAT     H1 7847   5.032   7.817   0.938
 2535WAT     H2 7848   5.186   7.785   0.894
 2536WAT      O 7849   4.632   8.465   9.528
 2536WAT     H1 7850   4.697   8.532   9.493
 2536WAT     H2 7851   4.547   8.512   9.553
 2537WAT      O 7852   1.319   4.899   9.047
 2537WAT     H1 7853   1.339   4.840   9.125
 2537WAT     H2 7854   1.326   4.995   9.074
 2538WAT      O 7855   7.347   4.362   9.865
 2538WAT     H1 7856   7.361   4.355   9.766
 2538WAT     H2 7857   7.260   4.318   9.890
 2539WAT      O 7858   0.209   2.538   9.423
 2539WAT     H1 7859   0.258   2.518   9.339
 2539WAT     H2 7860   0.119   2.494   9.421
 2540WAT      O 7861   0.741   6.581   0.677
 2540WAT     H1 7862   0.680   6.590   0.599
 2540WAT     H2 7863   0.834   6.609   0.651
 2541WAT      O 7864   7.476   9.260   2.570
 2541WAT     H1 7865   7.440   9.264   2.477
 2541WAT     H2 7866   7.487   9.165   2.597
 2542WAT      O 7867   6.008   0.433   0.503
 2542WAT     H1 7868   6.019   0.335   0.485
 2542WAT     H2 7869   6.042   0.455   0.594
 2543WAT      O 7870   0.517   5.870   2.180
 2543WAT     H1 7871   0.563   5.785   2.205
 2543WAT     H2 7872   0.442   5.887   2.244
 2544WAT      O 7873   8.572   2.942   1.935
 2544WAT     H1 7874   8.506   2.983   1.997
 2544WAT     H2 7875   8.554   2.844   1.927
 2545WAT      O 7876   7.851   5.481   7.768
 2545WAT     H1 7877   7.830   5.385   7.753
 2545WAT     H2 7878   7.905   5.516   7.692
 2546WAT      O 7879   2.143   9.728   8.094
 2546WAT     H1 7880   2.191   9.760   8.175
 2546WAT     H2 7881   2.144   9.628   8.091
 2547WAT      O 7882   2.722   9.423   0.651
 2547WAT     H1 7883   2.673   9.503   0.616
 2547WAT     H2 7884   2.729   9.355   0.578
 2548WAT      O 7885   5.790   2.259   4.551
 2548WAT     H1 7886   5.832   2.281   4.639
 2548WAT     H2 7887   5.736   2.176   4.560
 2549WAT      O 7888   9.699   2.423   5.583
 2549WAT     H1 7889   9.798   2.413   5.576
 2549WAT     H2 7890   9.657   2.412   5.493
 2550WAT      O 7891   0.252   0.790   8.899
 2550WAT     H1 7892   0.181   0.792   8.830
 2550WAT     H2 7893   0.296   0.700   8.899
 2551WAT      O 7894   4.961   9.619   8.416
 2551WAT     H1 7895   5.048   9.632   8.462
 2551WAT     H2 7896   4.973   9.629   8.317
 2552WAT      O 7897   0.597   7.294   4.560
 2552WAT     H1 7898   0.548   7.360   4.503
 2552WAT     H2 7899   0.694   7.318   4.562
 2553WAT      O 7900   9.404   5.958   0.353
 2553WAT     H1 7901   9.426   6.055   0.362
 2553WAT     H2 7902   9.435   5.909   0.434
 2554WAT      O 7903   5.592   2.200   7.709
 2554WAT     H1 7904   5.558   2.191   7.803
 2554WAT     H2 7905   5.651   2.121   7.688
 2555WAT      O 7906   0.947   8.318   4.695
 2555WAT     H1 7907   1.041   8.305   4.727
 2555WAT     H2 7908   0.931   8.414   4.675
 2556WAT      O 7909   6.032   2.009   8.639
 2556WAT     H1 7910   6.049   1.942   8.568
 2556WAT     H2 7911   6.119   2.051   8.667
 2557WAT      O 7912   4.008   5.929   3.542
 2557WAT     H1 7913   4.015   6.006   3.478
 2557WAT     H2 7914   4.036   5.959   3.633
 2558WAT      O 7915   7.920   9.220   4.431
 2558WAT     H1 7916   8.005   9.179   4.398
 2558WAT     H2 7917   7.883   9.164   4.505
 2559WAT      O 7918   3.296   5.191   9.321
 2559WAT     H1 7919   3.296   5.281   9.364
 2559WAT     H2 7920   3.374   5.184   9.258
 2560WAT      O 7921   1.755   1.753   5.855
 2560WAT     H1 7922   1.750   1.849   5.881
 2560WAT     H2 7923   1.664   1.713   5.857
 2561WAT      O 7924   1.903   1.217   2.931
 2561WAT     H1 7925   1.893   1.173   2.842
 2561WAT     H2 7926   1.827   1.190   2.990
 2562WAT      O 7927   2.705   7.168   1.059
 2562WAT     H1 7928   2.799   7.193   1.085
 2562WAT     H2 7929   2.649   7.160   1.140
 2563WAT      O 7930   2.211   7.679   7.112
 2563WAT     H1 7931   2.113   7.702   7.108
 2563WAT     H2 7932   2.259   7.727   7.038
 2564WAT      O 7933   3.409   6.482   1.802
 2564WAT     H1 7934   3.354   6.529   1.871
 2564WAT     H2 7935   3.437   6.547   1.731
 2565WAT      O 7936   5.180   2.771   3.272
 2565WAT     H1 7937   5.223   2.696   3.321
 2565WAT     H2 7938   5.248   2.842   3.252
 2566WAT      O 7939   9.414   6.956   1.375
 2566WAT     H1 7940   9.317   6.973   1.358
 2566WAT     H2 7941   9.469   7.012   1.312
 2567WAT      O 7942   4.010   7.073   3.754
 2567WAT     H1 7943   3.910   7.072   3.751
 2567WAT     H2 7944   4.042   7.165   3.734
 2568WAT      O 7945   1.859   9.810   8.380
 2568WAT     H1 7946   1.900   9.796   8.471
 2568WAT     H2 7947   1.848   9.908   8.363
 2569WAT      O 7948   2.560   6.833   3.579
 2569WAT     H1 7949   2.553   6.792   3.670
 2569WAT     H2 7950   2.561   6.933   3.587
 2570WAT      O 7951   6.052   1.045   2.460
 2570WAT     H1 7952   6.023   0.968   2.403
 2570WAT     H2 7953   6.138   1.022   2.505
 2571WAT      O 7954   5.829   6.182   3.135
 2571WAT     H1 7955   5.891   6.125   3.189
 2571WAT     H2 7956   5.778   6.243   3.196
 2572WAT      O 7957   3.386   1.600   1.410
 2572WAT     H1 7958   3.404   1.502   1.410
 2572WAT     H2 7959   3.470   1.650   1.433
 2573WAT      O 7960   3.287   9.494   7.587
 2573WAT     H1 7961   3.232   9.536   7.659
 2573WAT     H2 7962   3.227   9.458   7.516
 2574WAT      O 7963   3.554   1.749   8.198
 2574WAT     H1 7964   3.480   1.803   8.238
 2574WAT     H2 7965   3.639   1.802   8.200
 2575WAT      O 7966   3.081   7.858   7.373
 2575WAT     H1 7967   3.043   7.780   7.323
 2575WAT     H2 7968   3.009   7.924   7.391
 2576WAT      O 7969   0.998   5.176   8.502
 2576WAT     H1 7970   0.970   5.180   8.406
 2576WAT     H2 7971   0.918   5.168   8.560
 2577WAT      O 7972   2.825   7.326   6.341
 2577WAT     H1 7973   2.858   7.257   6.277
 2577WAT     H2 7974   2.883   7.327   6.423
 2578WAT      O 7975   9.464   7.227   9.142
 2578WAT     H1 7976   9.509   7.312   9.170
 2578WAT     H2 7977   9.405   7.194   9.216
 2579WAT      O 7978   3.706   6.379   2.665
 2579WAT     H1 7979   3.712   6.280   2.650
 2579WAT     H2 7980   3.643   6.397   2.740
 2580WAT      O 7981   7.842   3.841   6.193
 2580WAT     H1 7982   7.875   3.932   6.220
 2580WAT     H2 7983   7.920   3.779   6.185
 2581WAT      O 7984   2.554   1.387   0.656
 2581WAT     H1 7985   2.583   1.454   0.587
 2581WAT     H2 7986   2.589   1.297   0.631
 2582WAT      O 7987   3.379   8.476   9.487
 2582WAT     H1 7988   3.452   8.413   9.514
 2582WAT     H2 7989   3.306   8.473   9.554
 2583WAT      O 7990   6.183   2.166   3.290
 2583WAT     H1 7991   6.141   2.083   3.254
 2583WAT     H2 7992   6.201   2.155   3.387
 2584WAT      O 7993   3.051   6.004   2.269
 2584WAT     H1 7994   3.064   6.023   2.366
 2584WAT     H2 7995   2.993   5.923   2.258
 2585WAT      O 7996   3.858   5.642   9.790
 2585WAT     H1 7997   3.929   5.577   9.817
 2585WAT     H2 7998   3.896   5.707   9.723
 2586WAT      O 7999   0.668   8.646   8.873
 2586WAT     H1 8000   0.705   8.661   8.781
 2586WAT     H2 8001   0.740   8.611   8.933
 2587WAT      O 8002   3.730   9.542   6.905
 2587WAT     H1 8003   3.823   9.536   6.940
 2587WAT     H2 8004   3.681   9.457   6.924
 2588WAT      O 8005   7.263   8.866   7.220
 2588WAT     H1 8006   7.190   8.923   7.260
 2588WAT     H2 8007   7.272   8.887   7.123
 2589WAT      O 8008   3.359   4.454   1.101
 2589WAT     H1 8009   3.320   4.368   1.136
 2589WAT     H2 8010   3.449   4.468   1.142
 2590WAT      O 8011   0.208   2.968   7.102
 2590WAT     H1 8012   0.157   2.973   7.017
 2590WAT     H2 8013   0.274   3.044   7.106
 2591WAT      O 8014   7.015   5.275   7.259
 2591WAT     H1 8015   7.033   5.322   7.173
 2591WAT     H2 8016   7.068   5.190   7.263
 2592WAT      O 8017   1.002   9.715   2.517
 2592WAT     H1 8018   0.986   9.649   2.591
 2592WAT     H2 8019   1.068   9.676   2.452
 2593WAT      O 8020   6.308   6.870   2.791
 2593WAT     H1 8021   6.267   6.954   2.755
 2593WAT     H2 8022   6.402   6.862   2.759
 2594WAT      O 8023   2.269   5.282   6.995
 2594WAT     H1 8024   2.296   5.284   7.091
 2594WAT     H2 8025   2.341   5.325   6.940
 2595WAT      O 8026   0.426   6.723   2.072
 2595WAT     H1 8027   0.497   6.702   2.139
 2595WAT     H2 8028   0.469   6.737   1.982
 2596WAT      O 8029   8.970   0.704   6.753
 2596WAT     H1 8030   9.020   0.626   6.716
 2596WAT     H2 8031   8.883   0.714   6.704
 2597WAT      O 8032   9.707   3.178   5.694
 2597WAT     H1 8033   9.619   3.167   5.647
 2597WAT     H2 8034   9.713   3.272   5.729
 2598WAT      O 8035   8.978   4.211   3.207
 2598WAT     H1 8036   8.992   4.265   3.124
 2598WAT     H2 8037   9.061   4.214   3.263
 2599WAT      O 8038   5.657   7.696   0.272
 2599WAT     H1 8039   5.681   7.792   0.292
 2599WAT     H2 8040   5.566   7.676   0.308
 2600WAT      O 8041   3.088   9.703   6.677
 2600WAT     H1 8042   3.109   9.607   6.659
 2600WAT     H2 8043   3.035   9.740   6.600
 2601WAT      O 8044   1.894   3.518   4.827
 2601WAT     H1 8045   1.884   3.484   4.921
 2601WAT     H2 8046   1.991   3.528   4.806
 2602WAT      O 8047   5.950   0.278   6.985
 2602WAT     H1 8048   5.918   0.274   7.079
 2602WAT     H2 8049   5.873   0.293   6.923
 2603WAT      O 8050   1.801   5.140   5.006
 2603WAT     H1 8051   1.719   5.161   4.952
 2603WAT     H2 8052   1.774   5.097   5.092
 2604WAT      O 8053   8.866   6.318   8.550
 2604WAT     H1 8054   8.840   6.396   8.492
 2604WAT     H2 8055   8.879   6.350   8.644
 2605WAT      O 8056   9.486   8.142   1.491
 2605WAT     H1 8057   9.521   8.235   1.487
 2605WAT     H2 8058   9.466   8.117   1.586
 2606WAT      O 8059   9.217   5.199   9.481
 2606WAT     H1 8060   9.206   5.104   9.511
 2606WAT     H2 8061   9.172   5.260   9.548
 2607WAT      O 8062   9.714   2.152   6.539
 2607WAT     H1 8063   9.645   2.119   6.604
 2607WAT     H2 8064   9.670   2.173   6.452
 2608WAT      O 8065   3.385   4.723   1.575
 2608WAT     H1 8066   3.288   4.700   1.590
 2608WAT     H2 8067   3.441   4.675   1.643
 2609WAT      O 8068   0.135   2.111   2.349
 2609WAT     H1 8069   0.089   2.187   2.394
 2609WAT     H2 8070   0.077   2.075   2.276
 2610WAT      O 8071   4.808   7.464   6.224
 2610WAT     H1 8072   4.872   7.439   6.297
 2610WAT     H2 8073   4.718   7.482   6.264
 2611WAT      O 8074   3.802   1.297   9.652
 2611WAT     H1 8075   3.772   1.385   9.690
 2611WAT     H2 8076   3.866   1.254   9.716
 2612WAT      O 8077   8.734   7.594   0.061
 2612WAT     H1 8078   8.735   7.674   0.001
 2612WAT     H2 8079   8.819   7.590   0.112
 2613WAT      O 8080   4.160   0.390   8.945
 2613WAT     H1 8081   4.167   0.312   9.007
 2613WAT     H2 8082   4.236   0.453   8.963
 2614WAT      O 8083   4.445   6.331   8.152
 2614WAT     H1 8084   4.442   6.337   8.052
 2614WAT     H2 8085   4.443   6.235   8.180
 2615WAT      O 8086   7.295   8.989   3.579
 2615WAT     H1 8087   7.211   9.038   3.601
 2615WAT     H2 8088   7.275   8.914   3.516
 2616WAT      O 8089   9.064   8.628   9.236
 2616WAT     H1 8090   9.054   8.531   9.215
 2616WAT     H2 8091   9.055   8.641   9.335
 2617WAT      O 8092   6.519   0.825   7.847
 2617WAT     H1 8093   6.549   0.911   7.806
 2617WAT     H2 8094   6.476   0.844   7.936
 2618WAT      O 8095   4.713   9.048   7.904
 2618WAT     H1 8096   4.677   9.080   7.817
 2618WAT     H2 8097   4.719   8.948   7.903
 2619WAT      O 8098   9.259   2.453   3.860
 2619WAT     H1 8099   9.200   2.395   3.804
 2619WAT     H2 8100   9.340   2.401   3.888
 2620WAT      O 8101   6.744   9.723   7.808
 2620WAT     H1 8102   6.740   9.779   7.725
 2620WAT     H2 8103   6.669   9.749   7.869
 2621WAT      O 8104   8.941   4.946   5.073
 2621WAT     H1 8105   8.926   4.897   4.987
 2621WAT     H2 8106   8.926   5.044   5.059
 2622WAT      O 8107   5.529   7.731   2.750
 2622WAT     H1 8108   5.457   7.661   2.749
 2622WAT     H2 8109   5.492   7.817   2.714
 2623WAT      O 8110   0.495   3.357   8.007
 2623WAT     H1 8111   0.521   3.267   8.044
 2623WAT     H2 8112   0.520   3.428   8.072
 2624WAT      O 8113   6.828   7.196   2.622
 2624WAT     H1 8114   6.810   7.276   2.680
 2624WAT     H2 8115   6.824   7.113   2.678
 2625WAT      O 8116   8.614   8.674   1.273
 2625WAT     H1 8117   8.624   8.584   1.315
 2625WAT     H2 8118   8.704   8.717   1.264
 2626WAT      O 8119   5.662   2.367   6.578
 2626WAT     H1 8120   5.706   2.324   6.499
 2626WAT     H2 8121   5.714   2.449   6.605
 2627WAT      O 8122   1.978   4.454   2.123
 2627WAT     H1 8123   2.032   4.371   2.134
 2627WAT     H2 8124   1.899   4.434   2.064
 2628WAT      O 8125   9.546   9.242   4.322
 2628WAT     H1 8126   9.526   9.266   4.227
 2628WAT     H2 8127   9.537   9.323   4.380
 2629WAT      O 8128   6.470   0.702   3.273
 2629WAT     H1 8129   6.381   0.676   3.236
 2629WAT     H2 8130   6.534   0.626   3.263
 2630WAT      O 8131   8.511   0.306   4.403
 2630WAT     H1 8132   8.447   0.358   4.347
 2630WAT     H2 8133   8.482   0.311   4.499
 2631WAT      O 8134   9.556   4.254   9.541
 2631WAT     H1 8135   9.583   4.182   9.476
 2631WAT     H2 8136   9.637   4.292   9.585
 2632WAT      O 8137   3.612   8.494   8.471
 2632WAT     H1 8138   3.679   8.563   8.444
 2632WAT     H2 8139   3.649   8.438   8.544
 2633WAT      O 8140   6.559   2.282   6.178
 2633WAT     H1 8141   6.579   2.297   6.274
 2633WAT     H2 8142   6.460   2.288   6.162
 2634WAT      O 8143   6.726   7.311   3.219
 2634WAT     H1 8144   6.789   7.287   3.292
 2634WAT     H2 8145   6.777   7.322   3.133
 2635WAT      O 8146   3.999   2.380   8.873
 2635WAT     H1 8147   4.039   2.336   8.793
 2635WAT     H2 8148   4.055   2.459   8.900
 2636WAT      O 8149   0.314   6.303   0.998
 2636WAT     H1 8150   0.356   6.262   1.078
 2636WAT     H2 8151   0.271   6.389   1.023
 2637WAT      O 8152   6.608   3.552   7.104
 2637WAT     H1 8153   6.684   3.495   7.135
 2637WAT     H2 8154   6.628   3.648   7.123
 2638WAT      O 8155   3.951   0.550   4.862
 2638WAT     H1 8156   3.962   0.640   4.904
 2638WAT     H2 8157   4.027   0.491   4.888
 2639WAT      O 8158   2.609   3.289   7.382
 2639WAT     H1 8159   2.658   3.208   7.413
 2639WAT     H2 8160   2.673   3.366   7.375
 2640WAT      O 8161   7.831   7.585   6.134
 2640WAT     H1 8162   7.893   7.532   6.193
 2640WAT     H2 8163   7.881   7.662   6.094
 2641WAT      O 8164   8.306   1.432   4.158
 2641WAT     H1 8165   8.304   1.466   4.064
 2641WAT     H2 8166   8.371   1.485   4.211
 2642WAT      O 8167   1.155   1.991   1.405
 2642WAT     H1 8168   1.090   1.926   1.445
 2642WAT     H2 8169   1.219   1.942   1.346
 2643WAT      O 8170   3.612   0.613   1.027
 2643WAT     H1 8171   3.573   0.651   0.943
 2643WAT     H2 8172   3.665   0.684   1.073
 2644WAT      O 8173   0.397   9.059   3.399
 2644WAT     H1 8174   0.478   9.109   3.427
 2644WAT     H2 8175   0.368   9.090   3.308
 2645WAT      O 8176   0.218   6.623   2.204
 2645WAT     H1 8177   0.307   6.646   2.164
 2645WAT     H2 8178   0.222   6.635   2.303
 2646WAT      O 8179   5.815   7.009   6.669
 2646WAT     H1 8180   5.810   7.064   6.586
 2646WAT     H2 8181   5.765   6.924   6.656
 2647WAT      O 8182   9.499   8.646   4.958
 2647WAT     H1 8183   9.522   8.669   5.053
 2647WAT     H2 8184   9.526   8.552   4.938
 2648WAT      O 8185   5.940   9.547   4.391
 2648WAT     H1 8186   6.001   9.626   4.395
 2648WAT     H2 8187   5.846   9.576   4.409
 2649WAT      O 8188   8.034   8.635   4.695
 2649WAT     H1 8189   8.043   8.574   4.774
 2649WAT     H2 8190   7.955   8.694   4.707
 2650WAT      O 8191   0.733   0.208   1.577
 2650WAT     H1 8192   0.808   0.215   1.644
 2650WAT     H2 8193   0.651   0.174   1.622
 2651WAT      O 8194   0.009   0.346   3.041
 2651WAT     H1 8195  -0.055   0.419   3.068
 2651WAT     H2 8196   0.054   0.310   3.122
 2652WAT      O 8197   3.806   1.636   4.896
 2652WAT     H1 8198   3.893   1.586   4.897
 2652WAT     H2 8199   3.789   1.670   4.803
 2653WAT      O 8200   3.927   3.040   3.315
 2653WAT     H1 8201   3.949   3.105   3.243
 2653WAT     H2 8202   3.986   3.056   3.394
 2654WAT      O 8203   0.414   6.862   4.050
 2654WAT     H1 8204   0.502   6.849   4.004
 2654WAT     H2 8205   0.427   6.861   4.149
 2655WAT      O 8206   1.326   5.663   1.184
 2655WAT     H1 8207   1.263   5.676   1.261
 2655WAT     H2 8208   1.328   5.567   1.158
 2656WAT      O 8209   9.481   9.188   9.247
 2656WAT     H1 8210   9.556   9.249   9.273
 2656WAT     H2 8211   9.504   9.094   9.272
 2657WAT      O 8212   3.084   4.964   7.554
 2657WAT     H1 8213   3.055   5.048   7.601
 2657WAT     H2 8214   3.173   4.979   7.511
 2658WAT      O 8215   6.200   5.406   3.703
 2658WAT     H1 8216   6.244   5.422   3.614
 2658WAT     H2 8217   6.247   5.459   3.773
 2659WAT      O 8218   2.383   3.517   0.256
 2659WAT     H1 8219   2.312   3.511   0.187
 2659WAT     H2 8220   2.451   3.585   0.229
 2660WAT      O 8221   1.923   7.221   6.029
 2660WAT     H1 8222   1.922   7.293   6.098
 2660WAT     H2 8223   1.862   7.245   5.954
 2661WAT      O 8224   9.877   5.009   7.360
 2661WAT     H1 8225   9.785   4.983   7.388
 2661WAT     H2 8226   9.875   5.099   7.316
 2662WAT      O 8227   0.437   3.497   9.212
 2662WAT     H1 8228   0.456   3.547   9.296
 2662WAT     H2 8229   0.507   3.518   9.144
 2663WAT      O 8230   1.381   9.571   5.592
 2663WAT     H1 8231   1.472   9.538   5.617
 2663WAT     H2 8232   1.366   9.662   5.631
 2664WAT      O 8233   9.447   9.517   5.066
 2664WAT     H1 8234   9.378   9.459   5.021
 2664WAT     H2 8235   9.410   9.609   5.079
 2665WAT      O 8236   5.861   3.659   3.262
 2665WAT     H1 8237   5.941   3.683   3.208
 2665WAT     H2 8238   5.797   3.735   3.263
 2666WAT      O 8239   8.184   7.847   3.223
 2666WAT     H1 8240   8.132   7.791   3.159
 2666WAT     H2 8241   8.133   7.931   3.243
 2667WAT      O 8242   4.025   4.518   4.739
 2667WAT     H1 8243   3.969   4.599   4.722
 2667WAT     H2 8244   4.094   4.511   4.667
 2668WAT      O 8245   2.040   3.303   5.013
 2668WAT     H1 8246   2.135   3.272   5.011
 2668WAT     H2 8247   2.024   3.357   5.096
 2669WAT      O 8248   8.291   7.613   1.884
 2669WAT     H1 8249   8.373   7.652   1.925
 2669WAT     H2 8250   8.268   7.663   1.801
 2670WAT      O 8251   4.609   4.447   6.462
 2670WAT     H1 8252   4.548   4.467   6.385
 2670WAT     H2 8253   4.704   4.456   6.433
 2671WAT      O 8254   6.833   5.807   2.940
 2671WAT     H1 8255   6.865   5.853   2.856
 2671WAT     H2 8256   6.872   5.854   3.019
 2672WAT      O 8257   7.065   6.166   6.802
 2672WAT     H1 8258   7.037   6.143   6.708
 2672WAT     H2 8259   7.078   6.265   6.809
 2673WAT      O 8260   6.082   7.472   3.232
 2673WAT     H1 8261   6.053   7.530   3.308
 2673WAT     H2 8262   6.044   7.506   3.147
 2674WAT      O 8263   9.143   0.347   2.208
 2674WAT     H1 8264   9.212   0.380   2.143
 2674WAT     H2 8265   9.186   0.289   2.276
 2675WAT      O 8266   4.340   5.113   3.133
 2675WAT     H1 8267   4.344   5.022   3.094
 2675WAT     H2 8268   4.371   5.110   3.228
 2676WAT      O 8269   9.444   2.297   9.067
 2676WAT     H1 8270   9.450   2.224   8.998
 2676WAT     H2 8271   9.457   2.258   9.158
 2677WAT      O 8272   8.052   1.991   5.489
 2677WAT     H1 8273   8.027   1.905   5.533
 2677WAT     H2 8274   8.096   2.051   5.556
 2678WAT      O 8275   5.571   2.326   7.173
 2678WAT     H1 8276   5.492   2.386   7.165
 2678WAT     H2 8277   5.572   2.284   7.264
 2679WAT      O 8278   2.978   5.602   4.500
 2679WAT     H1 8279   3.065   5.563   4.529
 2679WAT     H2 8280   2.986   5.637   4.407
 2680WAT      O 8281   8.254   8.053   1.417
 2680WAT     H1 8282   8.298   7.982   1.472
 2680WAT     H2 8283   8.231   8.017   1.327
 2681WAT      O 8284   9.040   5.407   9.381
 2681WAT     H1 8285   9.047   5.461   9.297
 2681WAT     H2 8286   9.122   5.350   9.391
 2682WAT      O 8287   3.114   6.122   2.896
 2682WAT     H1 8288   3.063   6.125   2.982
 2682WAT     H2 8289   3.121   6.028   2.864
 2683WAT      O 8290   9.711   3.315   9.440
 2683WAT     H1 8291   9.711   3.415   9.442
 2683WAT     H2 8292   9.646   3.283   9.370
 2684WAT      O 8293   5.530   1.352   0.266
 2684WAT     H1 8294   5.585   1.400   0.335
 2684WAT     H2 8295   5.591   1.316   0.195
 2685WAT      O 8296   4.252   2.738   3.208
 2685WAT     H1 8297   4.290   2.739   3.115
 2685WAT     H2 8298   4.153   2.727   3.204
 2686WAT      O 8299   6.075   2.947   0.618
 2686WAT     H1 8300   6.051   3.012   0.546
 2686WAT     H2 8301   6.175   2.946   0.630
 2687WAT      O 8302   5.730   1.431   3.652
 2687WAT     H1 8303   5.779   1.359   3.702
 2687WAT     H2 8304   5.632   1.420   3.665
 2688WAT      O 8305   0.046   8.504   6.556
 2688WAT     H1 8306   0.020   8.525   6.650
 2688WAT     H2 8307   0.143   8.522   6.543
 2689WAT      O 8308   0.279   0.357   4.325
 2689WAT     H1 8309   0.193   0.309   4.339
 2689WAT     H2 8310   0.314   0.338   4.233
 2690WAT      O 8311   2.243   7.095   9.446
 2690WAT     H1 8312   2.179   7.119   9.373
 2690WAT     H2 8313   2.296   7.014   9.418
 2691WAT      O 8314   5.338   6.626   0.524
 2691WAT     H1 8315   5.433   6.626   0.554
 2691WAT     H2 8316   5.322   6.548   0.463
 2692WAT      O 8317   7.272   9.241   7.755
 2692WAT     H1 8318   7.283   9.182   7.675
 2692WAT     H2 8319   7.361   9.254   7.799
 2693WAT      O 8320   3.538   5.458   4.900
 2693WAT     H1 8321   3.536   5.514   4.817
 2693WAT     H2 8322   3.594   5.377   4.884
 2694WAT      O 8323   3.090   4.332   9.114
 2694WAT     H1 8324   3.174   4.330   9.168
 2694WAT     H2 8325   3.081   4.421   9.070
 2695WAT      O 8326   3.659   7.925   9.027
 2695WAT     H1 8327   3.729   7.918   8.956
 2695WAT     H2 8328   3.699   7.905   9.116
 2696WAT      O 8329   6.019   3.462   1.958
 2696WAT     H1 8330   5.930   3.435   1.995
 2696WAT     H2 8331   6.009   3.488   1.862
 2697WAT      O 8332   2.089   2.265   8.015
 2697WAT     H1 8333   2.095   2.349   8.067
 2697WAT     H2 8334   2.020   2.205   8.055
 2698WAT      O 8335   2.448   4.652   3.768
 2698WAT     H1 8336   2.414   4.736   3.726
 2698WAT     H2 8337   2.379   4.580   3.759
 2699WAT      O 8338   8.421   1.373   0.218
 2699WAT     H1 8339   8.436   1.432   0.138
 2699WAT     H2 8340   8.343   1.408   0.270
 2700WAT      O 8341   6.297   8.048   7.322
 2700WAT     H1 8342   6.256   8.025   7.410
 2700WAT     H2 8343   6.254   7.994   7.249
 2701WAT      O 8344   7.555   1.781   9.356
 2701WAT     H1 8345   7.460   1.750   9.364
 2701WAT     H2 8346   7.611   1.733   9.423
 2702WAT      O 8347   3.103   6.304   2.440
 2702WAT     H1 8348   3.076   6.211   2.464
 2702WAT     H2 8349   3.062   6.329   2.352
 2703WAT      O 8350   1.073   4.790   6.632
 2703WAT     H1 8351   1.037   4.797   6.726
 2703WAT     H2 8352   1.074   4.881   6.590
 2704WAT      O 8353   4.472   8.547   1.336
 2704WAT     H1 8354   4.434   8.579   1.423
 2704WAT     H2 8355   4.398   8.529   1.272
 2705WAT      O 8356   1.703   8.528   1.138
 2705WAT     H1 8357   1.645   8.570   1.208
 2705WAT     H2 8358   1.663   8.441   1.110
 2706WAT      O 8359   4.367   8.622   8.350
 2706WAT     H1 8360   4.277   8.616   8.308
 2706WAT     H2 8361   4.431   8.663   8.285
 2707WAT      O 8362   2.033   6.170   3.181
 2707WAT     H1 8363   1.999   6.142   3.091
 2707WAT     H2 8364   2.079   6.258   3.173
 2708WAT      O 8365   4.373   4.765   9.679
 2708WAT     H1 8366   4.304   4.732   9.743
 2708WAT     H2 8367   4.452   4.799   9.730
 2709WAT      O 8368   4.529   2.086   0.604
 2709WAT     H1 8369   4.578   2.019   0.549
 2709WAT     H2 8370   4.431   2.067   0.602
 2710WAT      O 8371   4.873   0.680   6.371
 2710WAT     H1 8372   4.947   0.744   6.352
 2710WAT     H2 8373   4.893   0.592   6.328
 2711WAT      O 8374   6.194   0.086   5.787
 2711WAT     H1 8375   6.250   0.007   5.763
 2711WAT     H2 8376   6.123   0.059   5.852
 2712WAT      O 8377   5.033   8.270   4.533
 2712WAT     H1 8378   4.936   8.265   4.510
 2712WAT     H2 8379   5.072   8.178   4.536
 2713WAT      O 8380   4.530   2.776   4.307
 2713WAT     H1 8381   4.491   2.691   4.343
 2713WAT     H2 8382   4.581   2.756   4.223
 2714WAT      O 8383   9.771   6.502   3.113
 2714WAT     H1 8384   9.798   6.513   3.017
 2714WAT     H2 8385   9.672   6.495   3.119
 2715WAT      O 8386   3.598   8.679   9.838
 2715WAT     H1 8387   3.674   8.659   9.776
 2715WAT     H2 8388   3.596   8.610   9.910
 2716WAT      O 8389   7.592   2.440   9.330
 2716WAT     H1 8390   7.509   2.482   9.366
 2716WAT     H2 8391   7.600   2.347   9.367
 2717WAT      O 8392   3.422   9.320   4.563
 2717WAT     H1 8393   3.489   9.381   4.605
 2717WAT     H2 8394   3.356   9.291   4.632
 2718WAT      O 8395   6.183   7.180   1.913
 2718WAT     H1 8396   6.252   7.137   1.972
 2718WAT     H2 8397   6.176   7.127   1.828
 2719WAT      O 8398   8.210   8.736   0.493
 2719WAT     H1 8399   8.176   8.650   0.455
 2719WAT     H2 8400   8.292   8.718   0.547
 2720WAT      O 8401   3.707   4.538   8.271
 2720WAT     H1 8402   3.736   4.506   8.181
 2720WAT     H2 8403   3.781   4.523   8.337
 2721WAT      O 8404   5.252   8.579   1.905
 2721WAT     H1 8405   5.234   8.672   1.938
 2721WAT     H2 8406   5.288   8.524   1.980
 2722WAT      O 8407   3.018   6.191   4.249
 2722WAT     H1 8408   2.977   6.228   4.333
 2722WAT     H2 8409   2.953   6.129   4.205
 2723WAT      O 8410   6.850   0.113   6.463
 2723WAT     H1 8411   6.926   0.067   6.415
 2723WAT     H2 8412   6.886   0.158   6.545
 2724WAT      O 8413   3.403   8.491   6.083
 2724WAT     H1 8414   3.320   8.519   6.036
 2724WAT     H2 8415   3.481   8.542   6.045
 2725WAT      O 8416   9.383   0.665   4.224
 2725WAT     H1 8417   9.339   0.618   4.146
 2725WAT     H2 8418   9.415   0.597   4.289
 2726WAT      O 8419   3.716   3.507   5.420
 2726WAT     H1 8420   3.645   3.506   5.491
 2726WAT     H2 8421   3.720   3.598   5.379
 2727WAT      O 8422   2.715   8.693   9.704
 2727WAT     H1 8423   2.667   8.752   9.638
 2727WAT     H2 8424   2.659   8.680   9.785
 2728WAT      O 8425   9.209   8.227   8.102
 2728WAT     H1 8426   9.274   8.292   8.141
 2728WAT     H2 8427   9.224   8.136   8.142
 2729WAT      O 8428   4.214   1.839   7.088
 2729WAT     H1 8429   4.213   1.863   7.185
 2729WAT     H2 8430   4.305   1.805   7.064
 2730WAT      O 8431   5.967   3.960   0.245
 2730WAT     H1 8432   5.955   4.051   0.284
 2730WAT     H2 8433   6.029   3.907   0.303
 2731WAT      O 8434   5.511   6.955   3.499
 2731WAT     H1 8435   5.517   7.045   3.543
 2731WAT     H2 8436   5.468   6.965   3.409
 2732WAT      O 8437   0.192   2.766   5.745
 2732WAT     H1 8438   0.262   2.809   5.689
 2732WAT     H2 8439   0.217   2.771   5.842
 2733WAT      O 8440   4.726   6.426   8.045
 2733WAT     H1 8441   4.708   6.328   8.050
 2733WAT     H2 8442   4.722   6.465   8.137
 2734WAT      O 8443   5.999   0.383   7.892
 2734WAT     H1 8444   6.094   0.357   7.906
 2734WAT     H2 8445   5.973   0.364   7.798
 2735WAT      O 8446   5.406   6.673   7.152
 2735WAT     H1 8447   5.420   6.583   7.193
 2735WAT     H2 8448   5.347   6.664   7.071
 2736WAT      O 8449   1.749   8.329   1.877
 2736WAT     H1 8450   1.831   8.283   1.841
 2736WAT     H2 8451   1.691   8.358   1.800
 2737WAT      O 8452   1.012   5.370   4.889
 2737WAT     H1 8453   1.110   5.356   4.905
 2737WAT     H2 8454   0.960   5.330   4.965
 2738WAT      O 8455   0.850   8.246   4.407
 2738WAT     H1 8456   0.896   8.233   4.495
 2738WAT     H2 8457   0.827   8.343   4.395
 2739WAT      O 8458   6.742   3.964   7.518
 2739WAT     H1 8459   6.743   3.865   7.530
 2739WAT     H2 8460   6.778   3.986   7.428
 2740WAT      O 8461   5.761   5.470   4.279
 2740WAT     H1 8462   5.685   5.528   4.249
 2740WAT     H2 8463   5.728   5.377   4.293
 2741WAT      O 8464   0.919   3.832   9.488
 2741WAT     H1 8465   0.904   3.736   9.510
 2741WAT     H2 8466   0.926   3.844   9.389
 2742WAT      O 8467   7.511   9.059   1.679
 2742WAT     H1 8468   7.610   9.041   1.683
 2742WAT     H2 8469   7.465   9.006   1.750
 2743WAT      O 8470   0.195   0.276   9.076
 2743WAT     H1 8471   0.244   0.239   9.154
 2743WAT     H2 8472   0.237   0.242   8.991
 2744WAT      O 8473   4.277   2.260   2.467
 2744WAT     H1 8474   4.343   2.187   2.448
 2744WAT     H2 8475   4.324   2.347   2.474
 2745WAT      O 8476   0.264   1.906   3.298
 2745WAT     H1 8477   0.359   1.916   3.270
 2745WAT     H2 8478   0.257   1.917   3.397
 2746WAT      O 8479   2.252   5.140   1.488
 2746WAT     H1 8480   2.157   5.142   1.457
 2746WAT     H2 8481   2.308   5.197   1.427
 2747WAT      O 8482   1.841   9.416   7.369
 2747WAT     H1 8483   1.900   9.481   7.322
 2747WAT     H2 8484   1.793   9.360   7.302
 2748WAT      O 8485   0.380   9.487   4.746
 2748WAT     H1 8486   0.456   9.423   4.737
 2748WAT     H2 8487   0.303   9.441   4.792
 2749WAT      O 8488   5.341   0.817   4.712
 2749WAT     H1 8489   5.248   0.799   4.745
 2749WAT     H2 8490   5.343   0.905   4.666
 2750WAT      O 8491   1.340   0.991   8.656
 2750WAT     H1 8492   1.299   0.941   8.579
 2750WAT     H2 8493   1.436   0.965   8.665
 2751WAT      O 8494   6.840   2.242   5.128
 2751WAT     H1 8495   6.902   2.164   5.132
 2751WAT     H2 8496   6.852   2.290   5.041
 2752WAT      O 8497   8.684   6.757   2.911
 2752WAT     H1 8498   8.611   6.694   2.937
 2752WAT     H2 8499   8.651   6.851   2.918
 2753WAT      O 8500   7.399   2.114   8.038
 2753WAT     H1 8501   7.315   2.075   8.001
 2753WAT     H2 8502   7.422   2.198   7.989
 2754WAT      O 8503   5.535   7.014   8.868
 2754WAT     H1 8504   5.624   6.985   8.832
 2754WAT     H2 8505   5.485   6.933   8.900
 2755WAT      O 8506   4.462   2.962   0.757
 2755WAT     H1 8507   4.425   2.907   0.832
 2755WAT     H2 8508   4.397   3.033   0.731
 2756WAT      O 8509   0.416   6.822   9.795
 2756WAT     H1 8510   0.481   6.763   9.746
 2756WAT     H2 8511   0.334   6.770   9.816
 2757WAT      O 8512   5.241   0.041   2.741
 2757WAT     H1 8513   5.161  -0.004   2.780
 2757WAT     H2 8514   5.317   0.035   2.806
 2758WAT      O 8515   3.639   4.407   3.305
 2758WAT     H1 8516   3.708   4.463   3.352
 2758WAT     H2 8517   3.677   4.371   3.220
 2759WAT      O 8518   7.890   1.741   5.916
 2759WAT     H1 8519   7.912   1.833   5.883
 2759WAT     H2 8520   7.800   1.714   5.881
 2760WAT      O 8521   3.224   7.547   4.636
 2760WAT     H1 8522   3.207   7.502   4.724
 2760WAT     H2 8523   3.137   7.571   4.593
 2761WAT      O 8524   5.342   2.111   5.043
 2761WAT     H1 8525   5.318   2.026   4.997
 2761WAT     H2 8526   5.400   2.166   4.982
 2762WAT      O 8527   2.334   2.473   7.782
 2762WAT     H1 8528   2.263   2.519   7.835
 2762WAT     H2 8529   2.292   2.424   7.705
 2763WAT      O 8530   5.827   2.552   3.694
 2763WAT     H1 8531   5.729   2.548   3.710
 2763WAT     H2 8532   5.873   2.587   3.776
 2764WAT      O 8533   0.839   8.405   2.135
 2764WAT     H1 8534   0.798   8.461   2.063
 2764WAT     H2 8535   0.767   8.365   2.192
 2765WAT      O 8536   3.732   9.821   5.162
 2765WAT     H1 8537   3.765   9.786   5.249
 2765WAT     H2 8538   3.724   9.921   5.167
 2766WAT      O 8539   1.169   1.832   4.231
 2766WAT     H1 8540   1.205   1.780   4.154
 2766WAT     H2 8541   1.111   1.906   4.197
 2767WAT      O 8542   7.830   4.160   9.669
 2767WAT     H1 8543   7.846   4.171   9.767
 2767WAT     H2 8544   7.732   4.158   9.651
 2768WAT      O 8545   3.747   3.503   5.027
 2768WAT     H1 8546   3.838   3.468   5.003
 2768WAT     H2 8547   3.732   3.493   5.125
 2769WAT      O 8548   8.287   3.912   6.005
 2769WAT     H1 8549   8.224   3.981   5.971
 2769WAT     H2 8550   8.354   3.954   6.066
 2770WAT      O 8551   4.362   2.385   8.182
 2770WAT     H1 8552   4.378   2.431   8.270
 2770WAT     H2 8553   4.404   2.439   8.109
 2771WAT      O 8554   0.930   1.646   5.514
 2771WAT     H1 8555   0.920   1.570   5.449
 2771WAT     H2 8556   0.869   1.631   5.592
 2772WAT      O 8557   7.560   4.599   1.295
 2772WAT     H1 8558   7.582   4.587   1.392
 2772WAT     H2 8559   7.592   4.520   1.243
 2773WAT      O 8560   9.180   9.151   5.510
 2773WAT     H1 8561   9.216   9.190   5.426
 2773WAT     H2 8562   9.114   9.079   5.489
 2774WAT      O 8563   2.122   5.560   6.494
 2774WAT     H1 8564   2.085   5.615   6.419
 2774WAT     H2 8565   2.130   5.464   6.466
 2775WAT      O 8566   6.615   3.723   9.818
 2775WAT     H1 8567   6.633   3.822   9.823
 2775WAT     H2 8568   6.518   3.706   9.836
 2776WAT      O 8569   4.721   2.652   0.525
 2776WAT     H1 8570   4.806   2.604   0.550
 2776WAT     H2 8571   4.729   2.749   0.548
 2777WAT      O 8572   8.265   3.596   2.224
 2777WAT     H1 8573   8.279   3.695   2.210
 2777WAT     H2 8574   8.249   3.578   2.321
 2778WAT      O 8575   0.557   8.704   6.353
 2778WAT     H1 8576   0.564   8.667   6.445
 2778WAT     H2 8577   0.599   8.795   6.350
 2779WAT      O 8578   0.054   2.374   1.066
 2779WAT     H1 8579   0.136   2.381   1.010
 2779WAT     H2 8580   0.006   2.462   1.066
 2780WAT      O 8581   7.086   5.701   3.189
 2780WAT     H1 8582   7.165   5.759   3.210
 2780WAT     H2 8583   7.026   5.696   3.269
 2781WAT      O 8584   0.641   6.747   6.908
 2781WAT     H1 8585   0.725   6.789   6.875
 2781WAT     H2 8586   0.575   6.818   6.931
 2782WAT      O 8587   6.074   3.119   4.623
 2782WAT     H1 8588   6.174   3.122   4.615
 2782WAT     H2 8589   6.048   3.101   4.717
 2783WAT      O 8590   5.455   7.317   3.831
 2783WAT     H1 8591   5.370   7.366   3.851
 2783WAT     H2 8592   5.473   7.251   3.903
 2784WAT      O 8593   3.937   4.928   9.137
 2784WAT     H1 8594   4.028   4.931   9.179
 2784WAT     H2 8595   3.870   4.897   9.204
 2785WAT      O 8596   5.220   8.769   9.067
 2785WAT     H1 8597   5.154   8.819   9.122
 2785WAT     H2 8598   5.225   8.674   9.099
 2786WAT      O 8599   5.590   1.329   4.068
 2786WAT     H1 8600   5.494   1.313   4.046
 2786WAT     H2 8601   5.600   1.421   4.106
 2787WAT      O 8602   6.410   0.504   2.340
 2787WAT     H1 8603   6.480   0.560   2.298
 2787WAT     H2 8604   6.452   0.422   2.380
 2788WAT      O 8605   1.584   2.092   0.842
 2788WAT     H1 8606   1.519   2.025   0.807
 2788WAT     H2 8607   1.539   2.150   0.910
 2789WAT      O 8608   7.310   7.134   5.516
 2789WAT     H1 8609   7.251   7.086   5.450
 2789WAT     H2 8610   7.388   7.173   5.467
 2790WAT      O 8611   7.310   1.513   5.537
 2790WAT     H1 8612   7.375   1.488   5.466
 2790WAT     H2 8613   7.329   1.461   5.620
 2791WAT      O 8614   0.027   1.485   5.443
 2791WAT     H1 8615  -0.035   1.496   5.520
 2791WAT     H2 8616  -0.009   1.534   5.364
 2792WAT      O 8617   5.774   9.620   5.570
 2792WAT     H1 8618   5.795   9.524   5.590
 2792WAT     H2 8619   5.836   9.652   5.498
 2793WAT      O 8620   2.381   8.638   1.740
 2793WAT     H1 8621   2.380   8.538   1.748
 2793WAT     H2 8622   2.417   8.665   1.651
 2794WAT      O 8623   9.230   5.032   3.709
 2794WAT     H1 8624   9.305   4.974   3.677
 2794WAT     H2 8625   9.267   5.120   3.739
 2795WAT      O 8626   7.224   1.433   5.900
 2795WAT     H1 8627   7.285   1.421   5.821
 2795WAT     H2 8628   7.216   1.345   5.948
 2796WAT      O 8629   5.398   6.995   4.468
 2796WAT     H1 8630   5.410   7.093   4.450
 2796WAT     H2 8631   5.300   6.973   4.465
 2797WAT      O 8632   5.359   4.102   3.239
 2797WAT     H1 8633   5.423   4.076   3.311
 2797WAT     H2 8634   5.378   4.195   3.209
 2798WAT      O 8635   9.177   3.889   6.442
 2798WAT     H1 8636   9.270   3.892   6.478
 2798WAT     H2 8637   9.115   3.855   6.512
 2799WAT      O 8638   9.690   5.434   0.353
 2799WAT     H1 8639   9.607   5.490   0.357
 2799WAT     H2 8640   9.722   5.430   0.258
 2800WAT      O 8641   9.044   0.589   0.242
 2800WAT     H1 8642   9.075   0.601   0.148
 2800WAT     H2 8643   8.966   0.527   0.244
 2801WAT      O 8644   7.249   3.651   2.041
 2801WAT     H1 8645   7.260   3.732   2.099
 2801WAT     H2 8646   7.212   3.679   1.953
 2802WAT      O 8647   8.182   8.291   0.087
 2802WAT     H1 8648   8.270   8.298   0.039
 2802WAT     H2 8649   8.115   8.351   0.043
 2803WAT      O 8650   5.666   5.625   6.331
 2803WAT     H1 8651   5.574   5.660   6.313
 2803WAT     H2 8652   5.668   5.527   6.311
 2804WAT      O 8653   1.232   6.528   6.997
 2804WAT     H1 8654   1.249   6.482   7.085
 2804WAT     H2 8655   1.243   6.462   6.922
 2805WAT      O 8656   5.343   3.072   4.933
 2805WAT     H1 8657   5.300   3.026   4.855
 2805WAT     H2 8658   5.296   3.046   5.017
 2806WAT      O 8659   4.714   1.436   3.101
 2806WAT     H1 8660   4.789   1.384   3.059
 2806WAT     H2 8661   4.735   1.533   3.096
 2807WAT      O 8662   6.903   4.301   5.226
 2807WAT     H1 8663   6.858   4.278   5.312
 2807WAT     H2 8664   6.882   4.231   5.158
 2808WAT      O 8665   6.954   4.386   4.025
 2808WAT     H1 8666   6.857   4.412   4.031
 2808WAT     H2 8667   7.009   4.469   4.017
 2809WAT      O 8668   1.265   1.051   5.116
 2809WAT     H1 8669   1.280   1.143   5.153
 2809WAT     H2 8670   1.326   1.037   5.038
 2810WAT      O 8671   0.240   1.508   3.978
 2810WAT     H1 8672   0.213   1.534   4.071
 2810WAT     H2 8673   0.169   1.451   3.937
 2811WAT      O 8674   6.019   4.842   7.512
 2811WAT     H1 8675   6.106   4.847   7.563
 2811WAT     H2 8676   5.976   4.753   7.530
 2812WAT      O 8677   5.357   5.447   9.638
 2812WAT     H1 8678   5.263   5.480   9.638
 2812WAT     H2 8679   5.390   5.440   9.543
 2813WAT      O 8680   6.810   5.012   5.551
 2813WAT     H1 8681   6.838   5.102   5.583
 2813WAT     H2 8682   6.877   4.943   5.580
 2814WAT      O 8683   0.291   4.114   8.897
 2814WAT     H1 8684   0.284   4.194   8.837
 2814WAT     H2 8685   0.200   4.074   8.909
 2815WAT      O 8686   4.744   1.601   6.184
 2815WAT     H1 8687   4.654   1.626   6.220
 2815WAT     H2 8688   4.786   1.532   6.244
 2816WAT      O 8689   2.115   4.138   5.135
 2816WAT     H1 8690   2.096   4.051   5.090
 2816WAT     H2 8691   2.105   4.213   5.069
 2817WAT      O 8692   2.182   8.535   2.525
 2817WAT     H1 8693   2.196   8.548   2.623
 2817WAT     H2 8694   2.096   8.579   2.498
 2818WAT      O 8695   3.550   0.475   9.867
 2818WAT     H1 8696   3.534   0.564   9.910
 2818WAT     H2 8697   3.643   0.444   9.889
 2819WAT      O 8698   6.707   2.376   4.261
 2819WAT     H1 8699   6.658   2.290   4.270
 2819WAT     H2 8700   6.702   2.408   4.166
 2820WAT      O 8701   7.345   4.739   3.975
 2820WAT     H1 8702   7.307   4.658   4.020
 2820WAT     H2 8703   7.444   4.726   3.961
 2821WAT      O 8704   9.789   1.384   4.981
 2821WAT     H1 8705   9.785   1.364   4.883
 2821WAT     H2 8706   9.698   1.374   5.021
 2822WAT      O 8707   5.035   6.777   7.926
 2822WAT     H1 8708   4.969   6.730   7.985
 2822WAT     H2 8709   4.994   6.862   7.892
 2823WAT      O 8710   8.145   5.920   4.501
 2823WAT     H1 8711   8.070   5.982   4.478
 2823WAT     H2 8712   8.126   5.876   4.590
 2824WAT      O 8713   9.561   8.619   7.620
 2824WAT     H1 8714   9.526   8.526   7.631
 2824WAT     H2 8715   9.660   8.616   7.605
 2825WAT      O 8716   1.099   5.275   2.464
 2825WAT     H1 8717   1.045   5.311   2.540
 2825WAT     H2 8718   1.163   5.344   2.432
 2826WAT      O 8719   1.348   2.992   2.237
 2826WAT     H1 8720   1.415   3.066   2.242
 2826WAT     H2 8721   1.312   2.974   2.329
 2827WAT      O 8722   1.052   1.296   0.539
 2827WAT     H1 8723   1.136   1.314   0.488
 2827WAT     H2 8724   1.010   1.211   0.506
 2828WAT      O 8725   5.692   2.026   0.482
 2828WAT     H1 8726   5.615   2.031   0.419
 2828WAT     H2 8727   5.671   2.078   0.565
 2829WAT      O 8728   8.359   1.500   0.981
 2829WAT     H1 8729   8.393   1.538   1.068
 2829WAT     H2 8730   8.385   1.561   0.906
 2830WAT      O 8731   8.264   9.543   9.161
 2830WAT     H1 8732   8.345   9.557   9.217
 2830WAT     H2 8733   8.289   9.539   9.065
 2831WAT      O 8734   0.263   0.716  -0.003
 2831WAT     H1 8735   0.254   0.618   0.017
 2831WAT     H2 8736   0.335   0.755   0.054
 2832WAT      O 8737   3.302   4.170   9.847
 2832WAT     H1 8738   3.232   4.109   9.885
 2832WAT     H2 8739   3.349   4.123   9.773
 2833WAT      O 8740   8.263   3.234   4.889
 2833WAT     H1 8741   8.237   3.160   4.827
 2833WAT     H2 8742   8.182   3.265   4.940
 2834WAT      O 8743   9.369   8.402   9.736
 2834WAT     H1 8744   9.355   8.462   9.657
 2834WAT     H2 8745   9.467   8.383   9.745
 2835WAT      O 8746   6.339   7.009   4.415
 2835WAT     H1 8747   6.246   7.025   4.382
 2835WAT     H2 8748   6.372   7.090   4.463
 2836WAT      O 8749   5.179   0.689   1.331
 2836WAT     H1 8750   5.208   0.598   1.300
 2836WAT     H2 8751   5.255   0.753   1.319
 2837WAT      O 8752   7.913   3.102   1.361
 2837WAT     H1 8753   7.912   3.024   1.299
 2837WAT     H2 8754   7.819   3.129   1.382
 2838WAT      O 8755   9.190   7.669   7.737
 2838WAT     H1 8756   9.288   7.683   7.748
 2838WAT     H2 8757   9.143   7.704   7.818
 2839WAT      O 8758   4.238   9.198   8.452
 2839WAT     H1 8759   4.203   9.121   8.505
 2839WAT     H2 8760   4.166   9.266   8.439
 2840WAT      O 8761   5.675   8.950   6.594
 2840WAT     H1 8762   5.714   8.897   6.519
 2840WAT     H2 8763   5.747   8.975   6.658
 2841WAT      O 8764   0.277   8.290   2.696
 2841WAT     H1 8765   0.256   8.370   2.640
 2841WAT     H2 8766   0.200   8.226   2.693
 2842WAT      O 8767   6.952   2.086   9.657
 2842WAT     H1 8768   7.014   2.138   9.716
 2842WAT     H2 8769   6.998   2.002   9.627
 2843WAT      O 8770   8.945   8.940   6.872
 2843WAT     H1 8771   9.001   8.883   6.812
 2843WAT     H2 8772   8.964   8.917   6.967
 2844WAT      O 8773   5.358   1.517   0.140
 2844WAT     H1 8774   5.328   1.475   0.055
 2844WAT     H2 8775   5.419   1.454   0.188
 2845WAT      O 8776   7.770   0.285   2.653
 2845WAT     H1 8777   7.746   0.200   2.699
 2845WAT     H2 8778   7.773   0.360   2.719
 2846WAT      O 8779   9.390   2.903   9.857
 2846WAT     H1 8780   9.413   2.805   9.852
 2846WAT     H2 8781   9.321   2.918   9.927
 2847WAT      O 8782   5.100   9.617   7.341
 2847WAT     H1 8783   5.124   9.706   7.302
 2847WAT     H2 8784   5.037   9.630   7.417
 2848WAT      O 8785   6.421   3.385   6.982
 2848WAT     H1 8786   6.357   3.356   7.053
 2848WAT     H2 8787   6.495   3.439   7.024
 2849WAT      O 8788   3.374   5.603   0.728
 2849WAT     H1 8789   3.348   5.691   0.690
 2849WAT     H2 8790   3.328   5.530   0.678
 2850WAT      O 8791   8.533   7.215   4.745
 2850WAT     H1 8792   8.590   7.163   4.681
 2850WAT     H2 8793   8.437   7.207   4.717
 2851WAT      O 8794   1.607   7.679   8.416
 2851WAT     H1 8795   1.689   7.634   8.379
 2851WAT     H2 8796   1.558   7.725   8.341
 2852WAT      O 8797   1.840   7.946   2.869
 2852WAT     H1 8798   1.822   7.980   2.777
 2852WAT     H2 8799   1.765   7.973   2.930
 2853WAT      O 8800   4.007   5.603   9.075
 2853WAT     H1 8801   4.066   5.626   8.999
 2853WAT     H2 8802   4.003   5.679   9.140
 2854WAT      O 8803   6.017   9.599   8.104
 2854WAT     H1 8804   5.966   9.590   8.018
 2854WAT     H2 8805   6.077   9.679   8.098
 2855WAT      O 8806   3.437   6.713   3.497
 2855WAT     H1 8807   3.534   6.725   3.519
 2855WAT     H2 8808   3.402   6.796   3.455
 2856WAT      O 8809   0.655   7.000   3.237
 2856WAT     H1 8810   0.647   6.975   3.141
 2856WAT     H2 8811   0.656   7.099   3.246
 2857WAT      O 8812   4.748   6.382   2.045
 2857WAT     H1 8813   4.696   6.314   2.096
 2857WAT     H2 8814   4.753   6.468   2.097
 2858WAT      O 8815   6.339   6.467   0.719
 2858WAT     H1 8816   6.351   6.371   0.744
 2858WAT     H2 8817   6.335   6.475   0.620
 2859WAT      O 8818   5.081   6.019   0.175
 2859WAT     H1 8819   5.175   5.988   0.156
 2859WAT     H2 8820   5.037   5.954   0.238
 2860WAT      O 8821   5.738   3.348   7.249
 2860WAT     H1 8822   5.723   3.447   7.245
 2860WAT     H2 8823   5.701   3.305   7.167
 2861WAT      O 8824   5.842   5.870   0.413
 2861WAT     H1 8825   5.743   5.866   0.398
 2861WAT     H2 8826   5.860   5.895   0.508
 2862WAT      O 8827   4.525   8.475   0.866
 2862WAT     H1 8828   4.500   8.378   0.860
 2862WAT     H2 8829   4.563   8.505   0.779
 2863WAT      O 8830   4.695   0.056   3.409
 2863WAT     H1 8831   4.617   0.086   3.354
 2863WAT     H2 8832   4.710   0.121   3.483
 2864WAT      O 8833   8.282   2.641   8.225
 2864WAT     H1 8834   8.327   2.630   8.313
 2864WAT     H2 8835   8.214   2.568   8.213
 2865WAT      O 8836   5.554   0.696   3.402
 2865WAT     H1 8837   5.573   0.788   3.366
 2865WAT     H2 8838   5.481   0.701   3.470
 2866WAT      O 8839   5.006   3.975   6.267
 2866WAT     H1 8840   5.092   3.971   6.318
 2866WAT     H2 8841   4.938   3.916   6.311
 2867WAT      O 8842   2.541   0.329   1.522
 2867WAT     H1 8843   2.547   0.278   1.608
 2867WAT     H2 8844   2.584   0.276   1.449
 2868WAT      O 8845   4.071   0.509   8.491
 2868WAT     H1 8846   4.022   0.596   8.494
 2868WAT     H2 8847   4.004   0.434   8.495
 2869WAT      O 8848   3.844   5.027   8.903
 2869WAT     H1 8849   3.899   4.997   8.981
 2869WAT     H2 8850   3.810   5.120   8.920
 2870WAT      O 8851   0.895   9.109   8.487
 2870WAT     H1 8852   0.829   9.044   8.523
 2870WAT     H2 8853   0.849   9.171   8.423
 2871WAT      O 8854   0.445   4.720   8.754
 2871WAT     H1 8855   0.422   4.649   8.821
 2871WAT     H2 8856   0.385   4.799   8.767
 2872WAT      O 8857   5.578   0.038   6.694
 2872WAT     H1 8858   5.520   0.119   6.705
 2872WAT     H2 8859   5.545  -0.016   6.616
 2873WAT      O 8860   7.332   4.783   4.747
 2873WAT     H1 8861   7.357   4.708   4.686
 2873WAT     H2 8862   7.285   4.854   4.695
 2874WAT      O 8863   5.737   9.614   7.238
 2874WAT     H1 8864   5.716   9.701   7.193
 2874WAT     H2 8865   5.829   9.620   7.278
 2875WAT      O 8866   5.880   2.931   7.507
 2875WAT     H1 8867   5.898   3.013   7.452
 2875WAT     H2 8868   5.958   2.912   7.566
 2876WAT      O 8869   5.408   4.307   7.924
 2876WAT     H1 8870   5.455   4.324   8.010
 2876WAT     H2 8871   5.389   4.209   7.915
 2877WAT      O 8872   3.903   1.156   3.040
 2877WAT     H1 8873   3.944   1.202   3.119
 2877WAT     H2 8874   3.804   1.169   3.042
 2878WAT      O 8875   5.617   4.092   0.843
 2878WAT     H1 8876   5.628   4.019   0.910
 2878WAT     H2 8877   5.697   4.095   0.783
 2879WAT      O 8878   6.096   8.212   5.357
 2879WAT     H1 8879   6.065   8.257   5.441
 2879WAT     H2 8880   6.101   8.278   5.282
 2880WAT      O 8881   3.460   0.215   4.843
 2880WAT     H1 8882   3.535   0.278   4.862
 2880WAT     H2 8883   3.403   0.252   4.769
 2881WAT      O 8884   5.477   1.061   3.739
 2881WAT     H1 8885   5.434   1.151   3.746
 2881WAT     H2 8886   5.474   1.029   3.644
 2882WAT      O 8887   9.401   1.692   5.993
 2882WAT     H1 8888   9.447   1.781   5.992
 2882WAT     H2 8889   9.319   1.696   5.935
 2883WAT      O 8890   6.580   8.294   9.219
 2883WAT     H1 8891   6.498   8.246   9.249
 2883WAT     H2 8892   6.649   8.293   9.292
 2884WAT      O 8893   7.551   4.387   6.271
 2884WAT     H1 8894   7.549   4.369   6.173
 2884WAT     H2 8895   7.625   4.335   6.313
 2885WAT      O 8896   5.513   5.932   3.086
 2885WAT     H1 8897   5.552   5.840   3.084
 2885WAT     H2 8898   5.553   5.987   3.013
 2886WAT      O 8899   9.399   8.092   9.553
 2886WAT     H1 8900   9.357   8.011   9.513
 2886WAT     H2 8901   9.350   8.118   9.637
 2887WAT      O 8902   5.546   7.092   6.157
 2887WAT     H1 8903   5.524   7.047   6.243
 2887WAT     H2 8904   5.644   7.084   6.139
 2888WAT      O 8905   2.269   9.639   7.376
 2888WAT     H1 8906   2.270   9.539   7.380
 2888WAT     H2 8907   2.184   9.670   7.335
 2889WAT      O 8908   7.454   8.853   1.849
 2889WAT     H1 8909   7.482   8.757   1.836
 2889WAT     H2 8910   7.484   8.885   1.939
 2890WAT      O 8911   1.485   0.555   5.790
 2890WAT     H1 8912   1.420   0.592   5.723
 2890WAT     H2 8913   1.442   0.549   5.879
 2891WAT      O 8914   4.433   7.039   7.964
 2891WAT     H1 8915   4.393   7.058   8.054
 2891WAT     H2 8916   4.396   7.103   7.897
 2892WAT      O 8917   4.419   0.967   5.154
 2892WAT     H1 8918   4.515   0.991   5.137
 2892WAT     H2 8919   4.360   1.028   5.102
 2893WAT      O 8920   9.415   9.074   0.263
 2893WAT     H1 8921   9.368   9.019   0.332
 2893WAT     H2 8922   9.355   9.149   0.233
 2894WAT      O 8923   1.624   9.240   8.938
 2894WAT     H1 8924   1.590   9.153   8.904
 2894WAT     H2 8925   1.604   9.312   8.872
 2895WAT      O 8926   3.063   1.623   9.610
 2895WAT     H1 8927   3.039   1.693   9.677
 2895WAT     H2 8928   2.985   1.561   9.598
 2896WAT      O 8929   6.429   1.904   1.203
 2896WAT     H1 8930   6.521   1.913   1.240
 2896WAT     H2 8931   6.364   1.892   1.278
 2897WAT      O 8932   7.171   9.397   8.224
 2897WAT     H1 8933   7.217   9.320   8.180
 2897WAT     H2 8934   7.074   9.398   8.199
 2898WAT      O 8935   0.014   7.405   7.342
 2898WAT     H1 8936   0.111   7.418   7.363
 2898WAT     H2 8937  -0.040   7.473   7.392
 2899WAT      O 8938   7.650   0.806   0.549
 2899WAT     H1 8939   7.716   0.817   0.475
 2899WAT     H2 8940   7.558   0.831   0.517
 2900WAT      O 8941   1.252   1.864   2.770
 2900WAT     H1 8942   1.280   1.948   2.723
 2900WAT     H2 8943   1.176   1.885   2.832
 2901WAT      O 8944   3.135   6.789   0.631
 2901WAT     H1 8945   3.211   6.840   0.591
 2901WAT     H2 8946   3.052   6.844   0.627
 2902WAT      O 8947   0.838   2.619   0.977
 2902WAT     H1 8948   0.887   2.649   1.059
 2902WAT     H2 8949   0.795   2.698   0.934
 2903WAT      O 8950   9.844   3.433   6.046
 2903WAT     H1 8951   9.767   3.427   6.109
 2903WAT     H2 8952   9.849   3.525   6.007
 2904WAT      O 8953   7.464   2.820   1.552
 2904WAT     H1 8954   7.485   2.723   1.563
 2904WAT     H2 8955   7.528   2.874   1.606
 2905WAT      O 8956   3.993   9.242   2.308
 2905WAT     H1 8957   3.910   9.186   2.307
 2905WAT     H2 8958   4.068   9.190   2.350
 2906WAT      O 8959   9.096   7.867   0.946
 2906WAT     H1 8960   9.043   7.900   1.024
 2906WAT     H2 8961   9.039   7.808   0.889
 2907WAT      O 8962   8.850   0.377   0.247
 2907WAT     H1 8963   8.758   0.413   0.231
 2907WAT     H2 8964   8.875   0.316   0.172
 2908WAT      O 8965   9.710   0.146   7.076
 2908WAT     H1 8966   9.732   0.082   7.149
 2908WAT     H2 8967   9.621   0.123   7.037
 2909WAT      O 8968   2.862   2.302   5.152
 2909WAT     H1 8969   2.832   2.329   5.244
 2909WAT     H2 8970   2.888   2.206   5.152
 2910WAT      O 8971   7.715   2.927   5.911
 2910WAT     H1 8972   7.747   2.842   5.954
 2910WAT     H2 8973   7.622   2.947   5.942
 2911WAT      O 8974   9.840   8.503   6.183
 2911WAT     H1 8975   9.936   8.516   6.206
 2911WAT     H2 8976   9.806   8.419   6.227
 2912WAT      O 8977   4.020   5.092   5.686
 2912WAT     H1 8978   4.008   4.996   5.714
 2912WAT     H2 8979   3.936   5.124   5.643
 2913WAT      O 8980   6.616   7.038   8.055
 2913WAT     H1 8981   6.712   7.031   8.082
 2913WAT     H2 8982   6.610   7.061   7.957
 2914WAT      O 8983   3.818   3.614   7.732
 2914WAT     H1 8984   3.735   3.612   7.677
 2914WAT     H2 8985   3.808   3.681   7.805
 2915WAT      O 8986   5.677   6.049   4.006
 2915WAT     H1 8987   5.650   6.051   4.102
 2915WAT     H2 8988   5.615   5.989   3.955
 2916WAT      O 8989   3.805   4.087   7.396
 2916WAT     H1 8990   3.833   3.996   7.426
 2916WAT     H2 8991   3.775   4.083   7.301
 2917WAT      O 8992   2.455   1.838   3.748
 2917WAT     H1 8993   2.414   1.913   3.800
 2917WAT     H2 8994   2.417   1.751   3.781
 2918WAT      O 8995   9.059   7.269   5.258
 2918WAT     H1 8996   9.040   7.265   5.356
 2918WAT     H2 8997   9.044   7.179   5.218
 2919WAT      O 8998   8.871   6.714   8.943
 2919WAT     H1 8999   8.870   6.690   9.040
 2919WAT     H2 9000   8.777   6.731   8.912
 2920WAT      O 9001   6.970   6.788   4.035
 2920WAT     H1 9002   7.032   6.744   4.101
 2920WAT     H2 9003   7.023   6.821   3.957
 2921WAT      O 9004   6.202   6.041   7.170
 2921WAT     H1 9005   6.266   6.101   7.122
 2921WAT     H2 9006   6.214   6.052   7.269
 2922WAT      O 9007   3.017   0.594   5.877
 2922WAT     H1 9008   2.984   0.590   5.783
 2922WAT     H2 9009   3.045   0.503   5.907
 2923WAT      O 9010   1.222   8.198   4.480
 2923WAT     H1 9011   1.299   8.261   4.485
 2923WAT     H2 9012   1.176   8.209   4.392
 2924WAT      O 9013   4.806   6.486   9.572
 2924WAT     H1 9014   4.784   6.507   9.668
 2924WAT     H2 9015   4.744   6.414   9.539
 2925WAT      O 9016   0.557   2.830   8.141
 2925WAT     H1 9017   0.632   2.841   8.076
 2925WAT     H2 9018   0.472   2.864   8.100
 2926WAT      O 9019   0.046   8.996   7.262
 2926WAT     H1 9020  -0.019   8.978   7.336
 2926WAT     H2 9021   0.019   9.079   7.214
 2927WAT      O 9022   2.404   0.369   7.662
 2927WAT     H1 9023   2.384   0.271   7.655
 2927WAT     H2 9024   2.402   0.410   7.570
 2928WAT      O 9025   6.866   1.311   7.507
 2928WAT     H1 9026   6.873   1.385   7.574
 2928WAT     H2 9027   6.821   1.232   7.549
 2929WAT      O 9028   8.499   4.039   5.661
 2929WAT     H1 9029   8.568   4.061   5.730
 2929WAT     H2 9030   8.533   3.965   5.603
 2930WAT      O 9031   9.672   5.314   2.864
 2930WAT     H1 9032   9.642   5.326   2.769
 2930WAT     H2 9033   9.631   5.385   2.921
 2931WAT      O 9034   9.819   3.591   6.451
 2931WAT     H1 9035   9.884   3.518   6.469
 2931WAT     H2 9036   9.758   3.564   6.377
 2932WAT      O 9037   2.476   3.969   6.521
 2932WAT     H1 9038   2.530   3.924   6.450
 2932WAT     H2 9039   2.394   4.008   6.480
 2933WAT      O 9040   7.451   0.016   6.328
 2933WAT     H1 9041   7.454   0.075   6.248
 2933WAT     H2 9042   7.388  -0.060   6.312
 2934WAT      O 9043   2.228   1.363   9.565
 2934WAT     H1 9044   2.204   1.267   9.582
 2934WAT     H2 9045   2.280   1.369   9.480
 2935WAT      O 9046   3.587   2.306   2.470
 2935WAT     H1 9047   3.507   2.295   2.530
 2935WAT     H2 9048   3.632   2.393   2.491
 2936WAT      O 9049   6.571   3.615   8.798
 2936WAT     H1 9050   6.608   3.706   8.782
 2936WAT     H2 9051   6.600   3.582   8.888
 2937WAT      O 9052   3.758   1.446   9.078
 2937WAT     H1 9053   3.816   1.392   9.018
 2937WAT     H2 9054   3.700   1.385   9.133
 2938WAT      O 9055   8.644   3.899   8.268
 2938WAT     H1 9056   8.697   3.906   8.353
 2938WAT     H2 9057   8.698   3.850   8.199
 2939WAT      O 9058   8.982   3.123   3.864
 2939WAT     H1 9059   9.027   3.099   3.778
 2939WAT     H2 9060   9.017   3.211   3.897
 2940WAT      O 9061   4.877   0.076   7.077
 2940WAT     H1 9062   4.879   0.127   6.991
 2940WAT     H2 9063   4.796   0.018   7.080
 2941WAT      O 9064   7.737   4.949   7.040
 2941WAT     H1 9065   7.654   4.969   7.092
 2941WAT     H2 9066   7.817   4.963   7.098
 2942WAT      O 9067   0.302   4.439   6.140
 2942WAT     H1 9068   0.355   4.484   6.068
 2942WAT     H2 9069   0.274   4.506   6.208
 2943WAT      O 9070   9.762   9.622   4.180
 2943WAT     H1 9071   9.794   9.533   4.146
 2943WAT     H2 9072   9.724   9.675   4.105
 2944WAT      O 9073   6.158   5.581   9.568
 2944WAT     H1 9074   6.120   5.604   9.658
 2944WAT     H2 9075   6.248   5.539   9.580
 2945WAT      O 9076   0.921   2.292   2.611
 2945WAT     H1 9077   0.926   2.196   2.583
 2945WAT     H2 9078   0.825   2.320   2.618
 2946WAT      O 9079   3.974   8.488   4.429
 2946WAT     H1 9080   3.894   8.430   4.415
 2946WAT     H2 9081   3.966   8.534   4.517
 2947WAT      O 9082   4.187   8.260   1.012
 2947WAT     H1 9083   4.186   8.324   0.936
 2947WAT     H2 9084   4.230   8.303   1.092
 2948WAT      O 9085   1.101   4.043   8.100
 2948WAT     H1 9086   1.173   4.081   8.042
 2948WAT     H2 9087   1.136   3.963   8.149
 2949WAT      O 9088   9.313   7.615   7.013
 2949WAT     H1 9089   9.244   7.662   6.958
 2949WAT     H2 9090   9.366   7.554   6.955
 2950WAT      O 9091   3.543   0.817   8.742
 2950WAT     H1 9092   3.553   0.907   8.783
 2950WAT     H2 9093   3.632   0.771   8.741
 2951WAT      O 9094   8.767   0.040   3.608
 2951WAT     H1 9095   8.756  -0.010   3.522
 2951WAT     H2 9096   8.833  -0.007   3.666
 2952WAT      O 9097   3.919   3.883   1.150
 2952WAT     H1 9098   3.821   3.892   1.136
 2952WAT     H2 9099   3.950   3.796   1.112
 2953WAT      O 9100   4.689   0.313   1.132
 2953WAT     H1 9101   4.606   0.315   1.187
 2953WAT     H2 9102   4.766   0.346   1.186
 2954WAT      O 9103   9.689   6.080   5.224
 2954WAT     H1 9104   9.707   6.152   5.157
 2954WAT     H2 9105   9.773   6.030   5.243
 2955WAT      O 9106   8.256   9.100   7.951
 2955WAT     H1 9107   8.255   9.140   8.043
 2955WAT     H2 9108   8.273   9.171   7.884
 2956WAT      O 9109   2.262   9.545   1.433
 2956WAT     H1 9110   2.223   9.568   1.344
 2956WAT     H2 9111   2.189   9.508   1.492
 2957WAT      O 9112   2.094   8.838   3.232
 2957WAT     H1 9113   2.042   8.911   3.277
 2957WAT     H2 9114   2.069   8.750   3.272
 2958WAT      O 9115   6.043   7.540   1.184
 2958WAT     H1 9116   5.976   7.466   1.179
 2958WAT     H2 9117   6.082   7.543   1.275
 2959WAT      O 9118   0.023   1.447   2.563
 2959WAT     H1 9119   0.039   1.349   2.547
 2959WAT     H2 9120  -0.038   1.458   2.642
 2960WAT      O 9121   7.667   1.329   1.524
 2960WAT     H1 9122   7.621   1.240   1.524
 2960WAT     H2 9123   7.700   1.350   1.432
 2961WAT      O 9124   0.559   0.465   8.851
 2961WAT     H1 9125   0.535   0.418   8.766
 2961WAT     H2 9126   0.624   0.409   8.903
 2962WAT      O 9127   2.543   6.926   9.023
 2962WAT     H1 9128   2.461   6.965   9.064
 2962WAT     H2 9129   2.578   6.987   8.952
 2963WAT      O 9130   9.502   5.055   2.972
 2963WAT     H1 9131   9.568   5.129   2.985
 2963WAT     H2 9132   9.516   4.984   3.041
 2964WAT      O 9133   8.828   5.704   4.982
 2964WAT     H1 9134   8.901   5.669   5.041
 2964WAT     H2 9135   8.757   5.635   4.972
 2965WAT      O 9136   5.671   7.679   8.348
 2965WAT     H1 9137   5.695   7.692   8.252
 2965WAT     H2 9138   5.751   7.698   8.405
 2966WAT      O 9139   7.082   5.161   3.877
 2966WAT     H1 9140   7.069   5.217   3.796
 2966WAT     H2 9141   7.179   5.161   3.902
 2967WAT      O 9142   8.473   4.929   0.442
 2967WAT     H1 9143   8.396   4.931   0.505
 2967WAT     H2 9144   8.500   4.834   0.425
 2968WAT      O 9145   7.162   4.999   2.302
 2968WAT     H1 9146   7.204   4.909   2.286
 2968WAT     H2 9147   7.209   5.067   2.245
 2969WAT      O 9148   9.408   3.082   3.651
 2969WAT     H1 9149   9.352   3.157   3.617
 2969WAT     H2 9150   9.504   3.110   3.653
 2970WAT      O 9151   9.278   2.818   6.276
 2970WAT     H1 9152   9.234   2.890   6.221
 2970WAT     H2 9153   9.279   2.733   6.224
 2971WAT      O 9154   7.854   1.365   3.038
 2971WAT     H1 9155   7.825   1.357   2.942
 2971WAT     H2 9156   7.905   1.283   3.065
 2972WAT      O 9157   0.957   3.422   3.149
 2972WAT     H1 9158   0.929   3.342   3.201
 2972WAT     H2 9159   1.015   3.394   3.073
 2973WAT      O 9160   2.859   9.732   8.900
 2973WAT     H1 9161   2.764   9.700   8.897
 2973WAT     H2 9162   2.866   9.820   8.853
 2974WAT      O 9163   2.184   4.967   8.442
 2974WAT     H1 9164   2.182   4.867   8.434
 2974WAT     H2 9165   2.165   5.009   8.354
 2975WAT      O 9166   2.865   7.975   3.453
 2975WAT     H1 9167   2.849   7.909   3.526
 2975WAT     H2 9168   2.784   7.982   3.395
 2976WAT      O 9169   7.980   8.723   2.247
 2976WAT     H1 9170   7.985   8.705   2.345
 2976WAT     H2 9171   8.004   8.819   2.229
 2977WAT      O 9172   1.544   5.394   8.024
 2977WAT     H1 9173   1.502   5.349   8.104
 2977WAT     H2 9174   1.479   5.457   7.983
 2978WAT      O 9175   5.319   1.612   1.559
 2978WAT     H1 9176   5.411   1.614   1.597
 2978WAT     H2 9177   5.297   1.702   1.520
 2979WAT      O 9178   5.637   3.756   6.533
 2979WAT     H1 9179   5.617   3.767   6.630
 2979WAT     H2 9180   5.710   3.689   6.521
 2980WAT      O 9181   3.305   3.059   1.231
 2980WAT     H1 9182   3.213   3.024   1.248
 2980WAT     H2 9183   3.327   3.130   1.297
 2981WAT      O 9184   6.677   9.199   4.376
 2981WAT     H1 9185   6.585   9.186   4.415
 2981WAT     H2 9186   6.688   9.137   4.298
 2982WAT      O 9187   9.777   9.176   4.584
 2982WAT     H1 9188   9.700   9.164   4.647
 2982WAT     H2 9189   9.755   9.246   4.517
 2983WAT      O 9190   9.716   5.101   9.605
 2983WAT     H1 9191   9.720   5.181   9.545
 2983WAT     H2 9192   9.796   5.043   9.588
 2984WAT      O 9193   0.548   6.305   8.633
 2984WAT     H1 9194   0.546   6.230   8.699
 2984WAT     H2 9195   0.455   6.329   8.606
 2985WAT      O 9196   6.748   0.609   2.633
 2985WAT     H1 9197   6.772   0.655   2.547
 2985WAT     H2 9198   6.651   0.625   2.653
 2986WAT      O 9199   0.715   1.758   9.237
 2986WAT     H1 9200   0.669   1.686   9.288
 2986WAT     H2 9201   0.647   1.819   9.197
 2987WAT      O 9202   4.341   2.294   8.856
 2987WAT     H1 9203   4.386   2.211   8.891
 2987WAT     H2 9204   4.314   2.351   8.933
 2988WAT      O 9205   2.340   2.758   6.147
 2988WAT     H1 9206   2.389   2.845   6.159
 2988WAT     H2 9207   2.379   2.689   6.207
 2989WAT      O 9208   9.374   8.632   0.695
 2989WAT     H1 9209   9.322   8.663   0.775
 2989WAT     H2 9210   9.419   8.545   0.716
 2990WAT      O 9211   4.547   4.123   8.011
 2990WAT     H1 9212   4.471   4.143   7.949
 2990WAT     H2 9213   4.534   4.173   8.097
 2991WAT      O 9214   3.314   6.082   2.242
 2991WAT     H1 9215   3.356   6.028   2.169
 2991WAT     H2 9216   3.221   6.050   2.257
 2992WAT      O 9217   3.201   8.468   0.509
 2992WAT     H1 9218   3.234   8.379   0.479
 2992WAT     H2 9219   3.270   8.538   0.493
 2993WAT      O 9220   8.160   5.612   4.278
 2993WAT     H1 9221   8.182   5.520   4.248
 2993WAT     H2 9222   8.229   5.643   4.344
 2994WAT      O 9223   9.703   0.254   9.119
 2994WAT     H1 9224   9.770   0.327   9.134
 2994WAT     H2 9225   9.740   0.188   9.054
 2995WAT      O 9226   6.926   9.255   5.085
 2995WAT     H1 9227   6.838   9.211   5.105
 2995WAT     H2 9228   6.954   9.234   4.992
 2996WAT      O 9229   0.428   3.628   6.189
 2996WAT     H1 9230   0.410   3.555   6.123
 2996WAT     H2 9231   0.352   3.694   6.187
 2997WAT      O 9232   5.588   8.513   3.368
 2997WAT     H1 9233   5.565   8.591   3.425
 2997WAT     H2 9234   5.680   8.480   3.391
 2998WAT      O 9235   9.586   7.357   0.138
 2998WAT     H1 9236   9.647   7.315   0.206
 2998WAT     H2 9237   9.561   7.289   0.069
 2999WAT      O 9238   7.179   3.395   4.796
 2999WAT     H1 9239   7.091   3.351   4.779
 2999WAT     H2 9240   7.171   3.457   4.873
 3000WAT      O 9241   4.923   2.571   8.809
 3000WAT     H1 9242   4.952   2.545   8.716
 3000WAT     H2 9243   4.964   2.508   8.875
 3001WAT      O 9244   3.213   0.149   6.514
 3001WAT     H1 9245   3.261   0.062   6.504
 3001WAT     H2 9246   3.224   0.203   6.431
 3002WAT      O 9247   1.724   2.298   7.549
 3002WAT     H1 9248   1.685   2.374   7.497
 3002WAT     H2 9249   1.724   2.321   7.647
 3003WAT      O 9250   3.968   5.014   3.704
 3003WAT     H1 9251   3.961   5.028   3.802
 3003WAT     H2 9252   3.971   4.916   3.684
 3004WAT      O 9253   6.360   4.242   5.547
 3004WAT     H1 9254   6.310   4.177   5.490
 3004WAT     H2 9255   6.446   4.265   5.503
 3005WAT      O 9256   7.998   4.342   0.600
 3005WAT     H1 9257   8.048   4.332   0.514
 3005WAT     H2 9258   7.943   4.426   0.597
 3006WAT      O 9259   1.948   1.698   3.876
 3006WAT     H1 9260   1.893   1.669   3.798
 3006WAT     H2 9261   1.895   1.760   3.934
 3007WAT      O 9262   2.068   5.162   0.620
 3007WAT     H1 9263   2.048   5.209   0.706
 3007WAT     H2 9264   2.164   5.175   0.597
 3008WAT      O 9265   9.231   1.021   1.892
 3008WAT     H1 9266   9.139   0.989   1.873
 3008WAT     H2 9267   9.264   0.980   1.977
 3009WAT      O 9268   4.355   9.777   0.145
 3009WAT     H1 9269   4.349   9.780   0.045
 3009WAT     H2 9270   4.444   9.810   0.174
 3010WAT      O 9271   6.023   6.579   0.333
 3010WAT     H1 9272   5.995   6.487   0.361
 3010WAT     H2 9273   5.948   6.624   0.284
 3011WAT      O 9274   0.126   1.323   8.136
 3011WAT     H1 9275   0.137   1.295   8.040
 3011WAT     H2 9276   0.178   1.261   8.194
 3012WAT      O 9277   2.707   8.085   8.059
 3012WAT     H1 9278   2.699   8.126   8.150
 3012WAT     H2 9279   2.697   8.155   7.989
 3013WAT      O 9280   2.054   3.334   7.678
 3013WAT     H1 9281   2.019   3.406   7.619
 3013WAT     H2 9282   2.154   3.334   7.677
 3014WAT      O 9283   1.239   6.457   1.034
 3014WAT     H1 9284   1.294   6.414   0.963
 3014WAT     H2 9285   1.296   6.478   1.113
 3015WAT      O 9286   6.059   2.505   1.401
 3015WAT     H1 9287   6.034   2.601   1.389
 3015WAT     H2 9288   6.032   2.453   1.320
 3016WAT      O 9289   7.818   3.920   2.199
 3016WAT     H1 9290   7.913   3.932   2.229
 3016WAT     H2 9291   7.817   3.882   2.107
 3017WAT      O 9292   3.895   1.331   3.618
 3017WAT     H1 9293   3.908   1.389   3.699
 3017WAT     H2 9294   3.977   1.332   3.562
 3018WAT      O 9295   3.298   0.662   5.793
 3018WAT     H1 9296   3.238   0.604   5.739
 3018WAT     H2 9297   3.292   0.636   5.889
 3019WAT      O 9298   2.221   1.631   3.588
 3019WAT     H1 9299   2.196   1.623   3.684
 3019WAT     H2 9300   2.269   1.547   3.558
 3020WAT      O 9301   0.543   6.521   6.387
 3020WAT     H1 9302   0.535   6.587   6.312
 3020WAT     H2 9303   0.466   6.533   6.450
 3021WAT      O 9304   9.194   5.065   2.606
 3021WAT     H1 9305   9.157   5.064   2.513
 3021WAT     H2 9306   9.121   5.089   2.670
 3022WAT      O 9307   1.801   7.454   3.985
 3022WAT     H1 9308   1.790   7.450   4.084
 3022WAT     H2 9309   1.878   7.396   3.958
 3023WAT      O 9310   8.795   9.161   0.019
 3023WAT     H1 9311   8.716   9.099   0.019
 3023WAT     H2 9312   8.855   9.137  -0.057
 3024WAT      O 9313   9.639   4.930   7.095
 3024WAT     H1 9314   9.736   4.909   7.094
 3024WAT     H2 9315   9.621   5.008   7.036
 3025WAT      O 9316   2.928   3.177   0.340
 3025WAT     H1 9317   2.974   3.254   0.295
 3025WAT     H2 9318   2.955   3.091   0.297
 3026WAT      O 9319   9.328   2.814   2.512
 3026WAT     H1 9320   9.308   2.807   2.415
 3026WAT     H2 9321   9.427   2.816   2.526
 3027WAT      O 9322   4.658   2.987   5.203
 3027WAT     H1 9323   4.602   2.905   5.198
 3027WAT     H2 9324   4.658   3.021   5.297
 3028WAT      O 9325   2.237   1.424   5.660
 3028WAT     H1 9326   2.306   1.496   5.667
 3028WAT     H2 9327   2.156   1.450   5.712
 3029WAT      O 9328   2.356   6.101   5.873
 3029WAT     H1 9329   2.425   6.069   5.809
 3029WAT     H2 9330   2.299   6.170   5.828
 3030WAT      O 9331   8.628   9.550   4.435
 3030WAT     H1 9332   8.717   9.513   4.411
 3030WAT     H2 9333   8.567   9.475   4.463
 3031WAT      O 9334   4.991   4.933   7.434
 3031WAT     H1 9335   4.923   4.980   7.490
 3031WAT     H2 9336   4.961   4.933   7.338
 3032WAT      O 9337   2.706   2.291   2.896
 3032WAT     H1 9338   2.689   2.327   2.805
 3032WAT     H2 9339   2.755   2.360   2.950
 3033WAT      O 9340   9.153   3.025   1.163
 3033WAT     H1 9341   9.097   2.943   1.150
 3033WAT     H2 9342   9.122   3.074   1.244
 3034WAT      O 9343   9.303   6.103   3.365
 3034WAT     H1 9344   9.242   6.167   3.411
 3034WAT     H2 9345   9.331   6.031   3.430
 3035WAT      O 9346   3.386   0.617   8.072
 3035WAT     H1 9347   3.362   0.613   8.169
 3035WAT     H2 9348   3.391   0.713   8.043
 3036WAT      O 9349   0.034   7.710   6.980
 3036WAT     H1 9350   0.123   7.700   7.025
 3036WAT     H2 9351   0.035   7.792   6.922
 3037WAT      O 9352   4.338   4.435   1.059
 3037WAT     H1 9353   4.339   4.338   1.035
 3037WAT     H2 9354   4.319   4.490   0.978
 3038WAT      O 9355   6.454   5.258   2.126
 3038WAT     H1 9356   6.406   5.188   2.179
 3038WAT     H2 9357   6.395   5.293   2.054
 3039WAT      O 9358   8.973   7.420   2.294
 3039WAT     H1 9359   8.942   7.515   2.299
 3039WAT     H2 9360   8.913   7.369   2.231
 3040WAT      O 9361   0.058   3.636   3.115
 3040WAT     H1 9362   0.154   3.663   3.103
 3040WAT     H2 9363   0.008   3.651   3.030
 3041WAT      O 9364   2.791   2.801   0.266
 3041WAT     H1 9365   2.730   2.723   0.278
 3041WAT     H2 9366   2.784   2.834   0.172
 3042WAT      O 9367   5.315   6.350   0.886
 3042WAT     H1 9368   5.387   6.298   0.934
 3042WAT     H2 9369   5.348   6.442   0.867
 3043WAT      O 9370   3.088   1.772   2.882
 3043WAT     H1 9371   3.006   1.801   2.930
 3043WAT     H2 9372   3.069   1.690   2.829
 3044WAT      O 9373   4.203   1.263   2.014
 3044WAT     H1 9374   4.168   1.169   2.006
 3044WAT     H2 9375   4.180   1.300   2.104
 3045WAT      O 9376   4.387   7.401   5.990
 3045WAT     H1 9377   4.341   7.388   6.078
 3045WAT     H2 9378   4.486   7.400   6.004
 3046WAT      O 9379   8.893   8.522   3.489
 3046WAT     H1 9380   8.932   8.484   3.573
 3046WAT     H2 9381   8.802   8.557   3.507
 3047WAT      O 9382   0.017   6.003   7.073
 3047WAT     H1 9383  -0.026   5.914   7.064
 3047WAT     H2 9384  -0.053   6.075   7.071
 3048WAT      O 9385   2.030   6.728   3.569
 3048WAT     H1 9386   2.078   6.747   3.483
 3048WAT     H2 9387   2.090   6.675   3.629
 3049WAT      O 9388   1.169   3.974   5.469
 3049WAT     H1 9389   1.167   4.065   5.511
 3049WAT     H2 9390   1.258   3.960   5.425
 3050WAT      O 9391   3.145   1.400   1.900
 3050WAT     H1 9392   3.112   1.310   1.873
 3050WAT     H2 9393   3.176   1.450   1.819
 3051WAT      O 9394   0.027   9.740   4.643
 3051WAT     H1 9395   0.003   9.746   4.546
 3051WAT     H2 9396  -0.026   9.666   4.686
 3052WAT      O 9397   8.624   5.130   3.653
 3052WAT     H1 9398   8.709   5.151   3.606
 3052WAT     H2 9399   8.567   5.212   3.660
 3053WAT      O 9400   3.727   5.415   4.098
 3053WAT     H1 9401   3.637   5.458   4.101
 3053WAT     H2 9402   3.736   5.352   4.176
 3054WAT      O 9403   0.093   1.693   9.611
 3054WAT     H1 9404   0.139   1.627   9.551
 3054WAT     H2 9405   0.071   1.650   9.698
 3055WAT      O 9406   7.035   4.709   7.646
 3055WAT     H1 9407   7.033   4.771   7.725
 3055WAT     H2 9408   7.129   4.703   7.611
 3056WAT      O 9409   6.523   3.095   7.096
 3056WAT     H1 9410   6.586   3.107   7.173
 3056WAT     H2 9411   6.458   3.171   7.095
 3057WAT      O 9412   4.729   1.782   4.364
 3057WAT     H1 9413   4.781   1.764   4.280
 3057WAT     H2 9414   4.719   1.881   4.375
 3058WAT      O 9415   2.902   6.957   6.650
 3058WAT     H1 9416   2.845   6.901   6.710
 3058WAT     H2 9417   2.858   6.964   6.560
 3059WAT      O 9418   0.881   6.906   2.718
 3059WAT     H1 9419   0.834   6.827   2.757
 3059WAT     H2 9420   0.876   6.902   2.618
 3060WAT      O 9421   5.386   9.135   7.917
 3060WAT     H1 9422   5.409   9.227   7.951
 3060WAT     H2 9423   5.288   9.120   7.927
 3061WAT      O 9424   5.459   8.231   1.650
 3061WAT     H1 9425   5.401   8.293   1.702
 3061WAT     H2 9426   5.403   8.158   1.610
 3062WAT      O 9427   5.473   1.826   5.191
 3062WAT     H1 9428   5.416   1.889   5.243
 3062WAT     H2 9429   5.536   1.779   5.253
 3063WAT      O 9430   9.247   0.980   3.110
 3063WAT     H1 9431   9.158   0.934   3.116
 3063WAT     H2 9432   9.299   0.941   3.033
 3064WAT      O 9433   5.390   5.189   3.798
 3064WAT     H1 9434   5.403   5.282   3.764
 3064WAT     H2 9435   5.473   5.136   3.783
 3065WAT      O 9436   7.432   8.954   5.572
 3065WAT     H1 9437   7.415   9.019   5.645
 3065WAT     H2 9438   7.506   8.892   5.598
 3066WAT      O 9439   5.844   8.531   4.229
 3066WAT     H1 9440   5.869   8.435   4.237
 3066WAT     H2 9441   5.747   8.543   4.248
 3067WAT      O 9442   1.889   3.782   9.263
 3067WAT     H1 9443   1.869   3.768   9.166
 3067WAT     H2 9444   1.806   3.769   9.316
 3068WAT      O 9445   5.931   2.445   3.270
 3068WAT     H1 9446   5.879   2.454   3.185
 3068WAT     H2 9447   6.024   2.412   3.250
 3069WAT      O 9448   5.868   1.264   1.455
 3069WAT     H1 9449   5.948   1.280   1.513
 3069WAT     H2 9450   5.786   1.256   1.513
 3070WAT      O 9451   7.985   7.944   1.971
 3070WAT     H1 9452   7.935   7.857   1.965
 3070WAT     H2 9453   8.069   7.930   2.023
 3071WAT      O 9454   8.618   3.179   2.586
 3071WAT     H1 9455   8.573   3.228   2.661
 3071WAT     H2 9456   8.597   3.081   2.593
 3072WAT      O 9457   7.540   0.962   4.584
 3072WAT     H1 9458   7.598   0.883   4.604
 3072WAT     H2 9459   7.489   0.987   4.666
 3073WAT      O 9460   9.091   8.444   8.681
 3073WAT     H1 9461   9.061   8.539   8.690
 3073WAT     H2 9462   9.081   8.398   8.769
 3074WAT      O 9463   5.446   7.068   6.844
 3074WAT     H1 9464   5.538   7.101   6.865
 3074WAT     H2 9465   5.378   7.131   6.883
 3075WAT      O 9466   6.249   8.308   5.962
 3075WAT     H1 9467   6.299   8.394   5.969
 3075WAT     H2 9468   6.186   8.300   6.039
 3076WAT      O 9469   0.034   2.146   3.460
 3076WAT     H1 9470  -0.058   2.109   3.469
 3076WAT     H2 9471   0.072   2.163   3.551
 3077WAT      O 9472   9.270   9.811   2.070
 3077WAT     H1 9473   9.269   9.733   2.132
 3077WAT     H2 9474   9.331   9.882   2.106
 3078WAT      O 9475   8.435   5.859   1.930
 3078WAT     H1 9476   8.356   5.821   1.979
 3078WAT     H2 9477   8.456   5.950   1.966
 3079WAT      O 9478   1.840   9.695   2.928
 3079WAT     H1 9479   1.865   9.784   2.890
 3079WAT     H2 9480   1.921   9.636   2.929
 3080WAT      O 9481   4.081   4.045   0.964
 3080WAT     H1 9482   4.125   3.963   0.927
 3080WAT     H2 9483   4.018   4.018   1.038
 3081WAT      O 9484   2.604   0.328   6.265
 3081WAT     H1 9485   2.531   0.335   6.333
 3081WAT     H2 9486   2.569   0.278   6.185
 3082WAT      O 9487   6.412   2.597   9.294
 3082WAT     H1 9488   6.500   2.645   9.294
 3082WAT     H2 9489   6.341   2.657   9.330
 3083WAT      O 9490   5.153   9.129   7.410
 3083WAT     H1 9491   5.190   9.114   7.318
 3083WAT     H2 9492   5.227   9.157   7.472
 3084WAT      O 9493   0.754   6.027   6.662
 3084WAT     H1 9494   0.700   6.003   6.743
 3084WAT     H2 9495   0.692   6.044   6.585
 3085WAT      O 9496   1.883   0.151   9.418
 3085WAT     H1 9497   1.866   0.236   9.469
 3085WAT     H2 9498   1.905   0.078   9.483
 3086WAT      O 9499   8.249   5.904   7.610
 3086WAT     H1 9500   8.153   5.915   7.633
 3086WAT     H2 9501   8.268   5.808   7.590
 3087WAT      O 9502   8.545   3.988   3.928
 3087WAT     H1 9503   8.586   4.059   3.985
 3087WAT     H2 9504   8.533   3.904   3.982
 3088WAT      O 9505   5.916   2.303   0.257
 3088WAT     H1 9506   5.870   2.378   0.305
 3088WAT     H2 9507   5.879   2.294   0.165
 3089WAT      O 9508   3.307   4.842   7.328
 3089WAT     H1 9509   3.364   4.832   7.246
 3089WAT     H2 9510   3.361   4.820   7.409
 3090WAT      O 9511   5.731   0.272   4.195
 3090WAT     H1 9512   5.831   0.265   4.203
 3090WAT     H2 9513   5.707   0.355   4.146
 3091WAT      O 9514   7.345   1.747   6.918
 3091WAT     H1 9515   7.278   1.769   6.847
 3091WAT     H2 9516   7.372   1.651   6.909
 3092WAT      O 9517   2.693   4.726   4.834
 3092WAT     H1 9518   2.773   4.668   4.817
 3092WAT     H2 9519   2.719   4.800   4.897
 3093WAT      O 9520   0.679   9.448   4.859
 3093WAT     H1 9521   0.722   9.488   4.779
 3093WAT     H2 9522   0.618   9.515   4.902
 3094WAT      O 9523   8.294   3.306   6.126
 3094WAT     H1 9524   8.229   3.382   6.118
 3094WAT     H2 9525   8.380   3.340   6.163
 3095WAT      O 9526   4.083   4.240   6.652
 3095WAT     H1 9527   4.134   4.279   6.729
 3095WAT     H2 9528   4.147   4.200   6.587
 3096WAT      O 9529   9.669   8.939   2.316
 3096WAT     H1 9530   9.645   8.959   2.411
 3096WAT     H2 9531   9.751   8.990   2.291
 3097WAT      O 9532   7.482   0.596   4.884
 3097WAT     H1 9533   7.515   0.507   4.917
 3097WAT     H2 9534   7.422   0.636   4.953
 3098WAT      O 9535   3.870   9.792   1.548
 3098WAT     H1 9536   3.789   9.771   1.602
 3098WAT     H2 9537   3.903   9.708   1.504
 3099WAT      O 9538   2.948   7.986   8.565
 3099WAT     H1 9539   3.032   7.933   8.566
 3099WAT     H2 9540   2.872   7.928   8.595
 3100WAT      O 9541   6.783   9.223   3.647
 3100WAT     H1 9542   6.883   9.223   3.647
 3100WAT     H2 9543   6.750   9.206   3.740
 3101WAT      O 9544   4.352   6.271   7.044
 3101WAT     H1 9545   4.402   6.187   7.064
 3101WAT     H2 9546   4.308   6.304   7.127
 3102WAT      O 9547   1.838   5.187   5.864
 3102WAT     H1 9548   1.755   5.218   5.911
 3102WAT     H2 9549   1.895   5.136   5.929
 3103WAT      O 9550   4.851   6.758   9.133
 3103WAT     H1 9551   4.782   6.809   9.183
 3103WAT     H2 9552   4.851   6.787   9.037
 3104WAT      O 9553   0.833   3.901   3.202
 3104WAT     H1 9554   0.780   3.881   3.120
 3104WAT     H2 9555   0.906   3.833   3.213
 3105WAT      O 9556   8.386   6.372   1.232
 3105WAT     H1 9557   8.314   6.420   1.282
 3105WAT     H2 9558   8.345   6.297   1.178
 3106WAT      O 9559   3.680   8.333   9.867
 3106WAT     H1 9560   3.624   8.318   9.786
 3106WAT     H2 9561   3.719   8.245   9.897
 3107WAT      O 9562   7.968   0.085   5.625
 3107WAT     H1 9563   8.062   0.051   5.624
 3107WAT     H2 9564   7.943   0.116   5.533
 3108WAT      O 9565   0.284   4.711   6.965
 3108WAT     H1 9566   0.319   4.701   6.872
 3108WAT     H2 9567   0.360   4.718   7.029
 3109WAT      O 9568   5.488   1.874   0.667
 3109WAT     H1 9569   5.424   1.832   0.603
 3109WAT     H2 9570   5.567   1.815   0.679
 3110WAT      O 9571   0.259   4.193   9.154
 3110WAT     H1 9572   0.307   4.174   9.069
 3110WAT     H2 9573   0.219   4.109   9.190
 3111WAT      O 9574   6.964   9.164   9.786
 3111WAT     H1 9575   6.953   9.261   9.808
 3111WAT     H2 9576   7.047   9.129   9.829
 3112WAT      O 9577   4.089   2.201   9.592
 3112WAT     H1 9578   4.027   2.246   9.527
 3112WAT     H2 9579   4.104   2.261   9.670
 3113WAT      O 9580   1.815   9.470   5.248
 3113WAT     H1 9581   1.810   9.554   5.302
 3113WAT     H2 9582   1.723   9.431   5.238
 3114WAT      O 9583   5.984   1.234   5.577
 3114WAT     H1 9584   6.010   1.310   5.517
 3114WAT     H2 9585   6.031   1.151   5.548
 3115WAT      O 9586   0.389   5.640   9.107
 3115WAT     H1 9587   0.469   5.593   9.070
 3115WAT     H2 9588   0.377   5.616   9.203
 3116WAT      O 9589   9.346   1.361   6.201
 3116WAT     H1 9590   9.433   1.330   6.163
 3116WAT     H2 9591   9.345   1.461   6.203
 3117WAT      O 9592   6.485   3.396   9.155
 3117WAT     H1 9593   6.537   3.466   9.106
 3117WAT     H2 9594   6.422   3.351   9.092
 3118WAT      O 9595   5.336   4.397   6.786
 3118WAT     H1 9596   5.338   4.452   6.870
 3118WAT     H2 9597   5.403   4.323   6.794
 3119WAT      O 9598   5.210   3.388   2.209
 3119WAT     H1 9599   5.153   3.396   2.291
 3119WAT     H2 9600   5.235   3.293   2.195
 3120WAT      O 9601   8.724   4.559   6.357
 3120WAT     H1 9602   8.677   4.546   6.270
 3120WAT     H2 9603   8.656   4.574   6.429
 3121WAT      O 9604   8.977   5.678   7.236
 3121WAT     H1 9605   9.065   5.656   7.196
 3121WAT     H2 9606   8.950   5.605   7.300
 3122WAT      O 9607   9.892   9.184   8.099
 3122WAT     H1 9608   9.793   9.169   8.103
 3122WAT     H2 9609   9.923   9.227   8.184
 3123WAT      O 9610   9.419   7.589   8.560
 3123WAT     H1 9611   9.388   7.570   8.467
 3123WAT     H2 9612   9.344   7.572   8.624
 3124WAT      O 9613   5.594   1.782   8.577
 3124WAT     H1 9614   5.632   1.731   8.654
 3124WAT     H2 9615   5.664   1.795   8.507
 3125WAT      O 9616   3.741   5.271   8.998
 3125WAT     H1 9617   3.758   5.281   9.096
 3125WAT     H2 9618   3.726   5.361   8.957
 3126WAT      O 9619   6.019   6.001   5.503
 3126WAT     H1 9620   5.980   5.945   5.431
 3126WAT     H2 9621   6.055   6.086   5.464
 3127WAT      O 9622   5.340   8.182   8.833
 3127WAT     H1 9623   5.292   8.145   8.912
 3127WAT     H2 9624   5.275   8.195   8.758
 3128WAT      O 9625   2.330   1.714   2.185
 3128WAT     H1 9626   2.264   1.758   2.125
 3128WAT     H2 9627   2.304   1.729   2.280
 3129WAT      O 9628   6.665   6.154   2.232
 3129WAT     H1 9629   6.689   6.239   2.185
 3129WAT     H2 9630   6.616   6.177   2.317
 3130WAT      O 9631   8.931   7.165   9.150
 3130WAT     H1 9632   8.944   7.092   9.082
 3130WAT     H2 9633   8.907   7.250   9.103
 3131WAT      O 9634   2.669   1.069   3.087
 3131WAT     H1 9635   2.645   1.084   2.991
 3131WAT     H2 9636   2.767   1.050   3.094
 3132WAT      O 9637   0.337   8.951   6.290
 3132WAT     H1 9638   0.433   8.951   6.317
 3132WAT     H2 9639   0.279   8.963   6.372
 3133WAT      O 9640   9.163   3.989   1.813
 3133WAT     H1 9641   9.176   4.017   1.908
 3133WAT     H2 9642   9.091   3.920   1.808
 3134WAT      O 9643   8.585   2.107   4.352
 3134WAT     H1 9644   8.666   2.055   4.376
 3134WAT     H2 9645   8.608   2.204   4.343
 3135WAT      O 9646   3.032   9.649   2.053
 3135WAT     H1 9647   3.105   9.651   2.122
 3135WAT     H2 9648   2.945   9.670   2.096
 3136WAT      O 9649   0.262   1.888   9.444
 3136WAT     H1 9650   0.250   1.808   9.502
 3136WAT     H2 9651   0.221   1.968   9.489
 3137WAT      O 9652   0.768   4.508   6.105
 3137WAT     H1 9653   0.743   4.591   6.055
 3137WAT     H2 9654   0.761   4.525   6.203
 3138WAT      O 9655   3.949   4.138   4.286
 3138WAT     H1 9656   3.937   4.204   4.212
 3138WAT     H2 9657   4.047   4.130   4.307
 3139WAT      O 9658   8.979   9.676   6.769
 3139WAT     H1 9659   9.054   9.723   6.723
 3139WAT     H2 9660   8.895   9.687   6.715
 3140WAT      O 9661   6.160   2.366   4.254
 3140WAT     H1 9662   6.219   2.314   4.316
 3140WAT     H2 9663   6.067   2.327   4.257
 3141WAT      O 9664   8.805   4.119   7.907
 3141WAT     H1 9665   8.751   4.097   7.826
 3141WAT     H2 9666   8.750   4.172   7.971
 3142WAT      O 9667   7.317   4.656   9.583
 3142WAT     H1 9668   7.337   4.689   9.491
 3142WAT     H2 9669   7.288   4.560   9.579
 3143WAT      O 9670   4.183   5.112   0.382
 3143WAT     H1 9671   4.224   5.096   0.292
 3143WAT     H2 9672   4.113   5.182   0.374
 3144WAT      O 9673   9.408   5.118   8.266
 3144WAT     H1 9674   9.412   5.083   8.173
 3144WAT     H2 9675   9.478   5.188   8.278
 3145WAT      O 9676   8.877   5.046   7.295
 3145WAT     H1 9677   8.956   4.999   7.337
 3145WAT     H2 9678   8.811   4.977   7.266
 3146WAT      O 9679   3.869   4.053   6.664
 3146WAT     H1 9680   3.891   3.975   6.723
 3146WAT     H2 9681   3.948   4.113   6.658
 3147WAT      O 9682   4.567   6.292   3.556
 3147WAT     H1 9683   4.607   6.262   3.642
 3147WAT     H2 9684   4.525   6.382   3.569
 3148WAT      O 9685   3.306   0.708   8.321
 3148WAT     H1 9686   3.208   0.730   8.318
 3148WAT     H2 9687   3.354   0.779   8.373
 3149WAT      O 9688   7.987   7.055   8.813
 3149WAT     H1 9689   8.037   6.987   8.759
 3149WAT     H2 9690   8.048   7.132   8.833
 3150WAT      O 9691   3.776   1.031   0.300
 3150WAT     H1 9692   3.706   1.003   0.366
 3150WAT     H2 9693   3.827   1.109   0.336
 3151WAT      O 9694   6.337   8.722   9.352
 3151WAT     H1 9695   6.305   8.632   9.380
 3151WAT     H2 9696   6.261   8.772   9.309
 3152WAT      O 9697   2.018   5.835   7.122
 3152WAT     H1 9698   1.963   5.752   7.112
 3152WAT     H2 9699   2.050   5.865   7.032
 3153WAT      O 9700   6.681   4.604   8.037
 3153WAT     H1 9701   6.702   4.590   8.134
 3153WAT     H2 9702   6.766   4.615   7.986
 3154WAT      O 9703   8.239   5.497   9.883
 3154WAT     H1 9704   8.154   5.459   9.846
 3154WAT     H2 9705   8.317   5.461   9.832
 3155WAT      O 9706   9.795   2.387   2.499
 3155WAT     H1 9707   9.767   2.331   2.577
 3155WAT     H2 9708   9.731   2.463   2.488
 3156WAT      O 9709   0.849   3.569   9.399
 3156WAT     H1 9710   0.841   3.485   9.452
 3156WAT     H2 9711   0.878   3.547   9.306
 3157WAT      O 9712   1.691   8.849   0.462
 3157WAT     H1 9713   1.723   8.941   0.485
 3157WAT     H2 9714   1.739   8.782   0.519
 3158WAT      O 9715   9.856   1.401   4.694
 3158WAT     H1 9716   9.938   1.439   4.736
 3158WAT     H2 9717   9.843   1.442   4.604
 3159WAT      O 9718   2.467   5.393   1.524
 3159WAT     H1 9719   2.494   5.483   1.490
 3159WAT     H2 9720   2.469   5.327   1.448
 3160WAT      O 9721   5.397   9.438   2.619
 3160WAT     H1 9722   5.297   9.442   2.629
 3160WAT     H2 9723   5.439   9.502   2.685
 3161WAT      O 9724   3.524   1.802   7.318
 3161WAT     H1 9725   3.467   1.737   7.369
 3161WAT     H2 9726   3.618   1.797   7.350
 3162WAT      O 9727   7.045   2.096   8.331
 3162WAT     H1 9728   6.957   2.135   8.358
 3162WAT     H2 9729   7.071   2.132   8.242
 3163WAT      O 9730   5.097   3.697   6.668
 3163WAT     H1 9731   5.175   3.737   6.622
 3163WAT     H2 9732   5.054   3.628   6.609
 3164WAT      O 9733   6.661   2.993   8.972
 3164WAT     H1 9734   6.589   2.994   9.041
 3164WAT     H2 9735   6.627   3.037   8.888
 3165WAT      O 9736   6.856   7.610   4.943
 3165WAT     H1 9737   6.930   7.547   4.917
 3165WAT     H2 9738   6.877   7.650   5.032
 3166WAT      O 9739   3.059   9.397   6.988
 3166WAT     H1 9740   3.129   9.442   6.932
 3166WAT     H2 9741   3.060   9.299   6.969
 3167WAT      O 9742   6.301   1.511   3.880
 3167WAT     H1 9743   6.388   1.558   3.866
 3167WAT     H2 9744   6.315   1.429   3.935
 3168WAT      O 9745   3.316   7.697   1.510
 3168WAT     H1 9746   3.314   7.598   1.526
 3168WAT     H2 9747   3.231   7.737   1.543
 3169WAT      O 9748   3.473   8.692   8.122
 3169WAT     H1 9749   3.505   8.602   8.152
 3169WAT     H2 9750   3.446   8.747   8.201
 3170WAT      O 9751   4.231   7.392   9.609
 3170WAT     H1 9752   4.170   7.347   9.674
 3170WAT     H2 9753   4.312   7.334   9.594
 3171WAT      O 9754   3.190   9.547   8.182
 3171WAT     H1 9755   3.201   9.603   8.264
 3171WAT     H2 9756   3.271   9.489   8.170
 3172WAT      O 9757   1.114   5.687   4.584
 3172WAT     H1 9758   1.145   5.782   4.589
 3172WAT     H2 9759   1.015   5.684   4.598
 3173WAT      O 9760   7.389   4.262   4.539
 3173WAT     H1 9761   7.336   4.279   4.622
 3173WAT     H2 9762   7.467   4.204   4.561
 3174WAT      O 9763   3.384   6.371   2.140
 3174WAT     H1 9764   3.301   6.414   2.105
 3174WAT     H2 9765   3.362   6.281   2.177
 3175WAT      O 9766   2.346   5.554   9.834
 3175WAT     H1 9767   2.427   5.600   9.871
 3175WAT     H2 9768   2.264   5.605   9.860
 3176WAT      O 9769   2.306   3.233   5.057
 3176WAT     H1 9770   2.323   3.155   4.996
 3176WAT     H2 9771   2.324   3.318   5.007
 3177WAT      O 9772   3.242   2.387   3.636
 3177WAT     H1 9773   3.217   2.352   3.726
 3177WAT     H2 9774   3.222   2.318   3.567
 3178WAT      O 9775   4.427   4.261   3.521
 3178WAT     H1 9776   4.520   4.297   3.516
 3178WAT     H2 9777   4.363   4.329   3.484
 3179WAT      O 9778   1.049   4.166   8.615
 3179WAT     H1 9779   1.063   4.082   8.668
 3179WAT     H2 9780   1.066   4.148   8.518
 3180WAT      O 9781   2.661   1.067   7.208
 3180WAT     H1 9782   2.726   1.099   7.138
 3180WAT     H2 9783   2.569   1.095   7.183
 3181WAT      O 9784   6.391   7.052   5.080
 3181WAT     H1 9785   6.364   6.976   5.020
 3181WAT     H2 9786   6.434   7.124   5.026
 3182WAT      O 9787   4.766   5.859   6.212
 3182WAT     H1 9788   4.677   5.888   6.245
 3182WAT     H2 9789   4.756   5.779   6.153
 3183WAT      O 9790   9.474   7.413   2.020
 3183WAT     H1 9791   9.512   7.355   1.947
 3183WAT     H2 9792   9.444   7.500   1.980
 3184WAT      O 9793   9.303   7.981   4.035
 3184WAT     H1 9794   9.294   8.080   4.023
 3184WAT     H2 9795   9.336   7.940   3.950
 3185WAT      O 9796   6.389   3.997   8.695
 3185WAT     H1 9797   6.358   3.984   8.790
 3185WAT     H2 9798   6.478   4.043   8.695
 3186WAT      O 9799   1.564   7.706   5.210
 3186WAT     H1 9800   1.559   7.805   5.227
 3186WAT     H2 9801   1.637   7.687   5.145
 3187WAT      O 9802   1.381   8.769   4.446
 3187WAT     H1 9803   1.414   8.713   4.370
 3187WAT     H2 9804   1.412   8.729   4.532
 3188WAT      O 9805   1.164   2.276   9.728
 3188WAT     H1 9806   1.151   2.360   9.676
 3188WAT     H2 9807   1.175   2.199   9.665
 3189WAT      O 9808   1.073   9.530   8.148
 3189WAT     H1 9809   1.103   9.600   8.083
 3189WAT     H2 9810   1.100   9.440   8.115
 3190WAT      O 9811   3.271   6.799   8.333
 3190WAT     H1 9812   3.207   6.725   8.352
 3190WAT     H2 9813   3.242   6.881   8.383
 3191WAT      O 9814   9.596   7.903   6.269
 3191WAT     H1 9815   9.626   7.832   6.205
 3191WAT     H2 9816   9.597   7.992   6.223
 3192WAT      O 9817   8.256   6.049   7.184
 3192WAT     H1 9818   8.347   6.080   7.157
 3192WAT     H2 9819   8.195   6.053   7.105
 3193WAT      O 9820   2.707   1.154   2.041
 3193WAT     H1 9821   2.624   1.098   2.049
 3193WAT     H2 9822   2.786   1.095   2.027
 3194WAT      O 9823   6.018   4.722   9.544
 3194WAT     H1 9824   5.956   4.692   9.472
 3194WAT     H2 9825   6.015   4.657   9.620
 3195WAT      O 9826   0.388   8.870   5.960
 3195WAT     H1 9827   0.487   8.863   5.948
 3195WAT     H2 9828   0.369   8.897   6.055
 3196WAT      O 9829   9.594   2.433   3.002
 3196WAT     H1 9830   9.631   2.371   3.071
 3196WAT     H2 9831   9.556   2.380   2.926
 3197WAT      O 9832   4.784   9.665   2.969
 3197WAT     H1 9833   4.831   9.577   2.970
 3197WAT     H2 9834   4.831   9.727   2.905
 3198WAT      O 9835   9.433   1.578   5.064
 3198WAT     H1 9836   9.353   1.572   5.004
 3198WAT     H2 9837   9.472   1.670   5.059
 3199WAT      O 9838   7.368   4.671   5.852
 3199WAT     H1 9839   7.460   4.670   5.892
 3199WAT     H2 9840   7.358   4.752   5.794
 3200WAT      O 9841   9.195   1.786   8.426
 3200WAT     H1 9842   9.102   1.774   8.392
 3200WAT     H2 9843   9.198   1.764   8.524
 3201WAT      O 9844   8.859   6.020   9.807
 3201WAT     H1 9845   8.772   5.988   9.771
 3201WAT     H2 9846   8.927   6.022   9.733
 3202WAT      O 9847   0.039   9.583   6.749
 3202WAT     H1 9848   0.112   9.650   6.764
 3202WAT     H2 9849   0.029   9.526   6.830
 3203WAT      O 9850   0.561   1.274   7.532
 3203WAT     H1 9851   0.522   1.346   7.474
 3203WAT     H2 9852   0.602   1.315   7.614
 3204WAT      O 9853   3.621   8.731   2.627
 3204WAT     H1 9854   3.607   8.679   2.712
 3204WAT     H2 9855   3.663   8.819   2.648
 3205WAT      O 9856   6.894   2.466   1.503
 3205WAT     H1 9857   6.956   2.451   1.426
 3205WAT     H2 9858   6.895   2.563   1.529
 3206WAT      O 9859   7.672   0.349   7.786
 3206WAT     H1 9860   7.737   0.300   7.728
 3206WAT     H2 9861   7.581   0.309   7.775
 3207WAT      O 9862   3.447   9.633   1.305
 3207WAT     H1 9863   3.348   9.649   1.302
 3207WAT     H2 9864   3.465   9.542   1.343
 3208WAT      O 9865   0.598   8.744   5.673
 3208WAT     H1 9866   0.639   8.690   5.746
 3208WAT     H2 9867   0.658   8.744   5.593
 3209WAT      O 9868   6.253   7.704   2.929
 3209WAT     H1 9869   6.290   7.700   2.836
 3209WAT     H2 9870   6.299   7.777   2.980
 3210WAT      O 9871   7.205   0.265   5.105
 3210WAT     H1 9872   7.259   0.187   5.135
 3210WAT     H2 9873   7.142   0.292   5.177
 3211WAT      O 9874   4.998   2.213   0.695
 3211WAT     H1 9875   5.059   2.257   0.629
 3211WAT     H2 9876   5.043   2.209   0.784
 3212WAT      O 9877   7.392   5.234   4.458
 3212WAT     H1 9878   7.470   5.217   4.518
 3212WAT     H2 9879   7.326   5.292   4.505
 3213WAT      O 9880   0.382   9.335   9.027
 3213WAT     H1 9881   0.353   9.243   9.000
 3213WAT     H2 9882   0.306   9.398   9.015
 3214WAT      O 9883   7.948   1.539   1.176
 3214WAT     H1 9884   7.896   1.609   1.225
 3214WAT     H2 9885   7.884   1.473   1.136
 3215WAT      O 9886   4.296   7.505   3.291
 3215WAT     H1 9887   4.335   7.528   3.202
 3215WAT     H2 9888   4.345   7.555   3.362
 3216WAT      O 9889   9.408   7.305   0.524
 3216WAT     H1 9890   9.479   7.244   0.488
 3216WAT     H2 9891   9.321   7.255   0.529
 3217WAT      O 9892   8.588   4.196   0.342
 3217WAT     H1 9893   8.554   4.188   0.249
 3217WAT     H2 9894   8.519   4.162   0.406
 3218WAT      O 9895   7.672   3.386   6.105
 3218WAT     H1 9896   7.584   3.339   6.111
 3218WAT     H2 9897   7.664   3.477   6.146
 3219WAT      O 9898   1.306   6.344   7.241
 3219WAT     H1 9899   1.384   6.284   7.222
 3219WAT     H2 9900   1.340   6.433   7.273
 3220WAT      O 9901   7.317   5.642   9.566
 3220WAT     H1 9902   7.245   5.574   9.559
 3220WAT     H2 9903   7.282   5.724   9.610
 3221WAT      O 9904   3.606   3.241   2.816
 3221WAT     H1 9905   3.553   3.322   2.843
 3221WAT     H2 9906   3.675   3.222   2.885
 3222WAT      O 9907   9.707   0.984   3.774
 3222WAT     H1 9908   9.759   1.007   3.855
 3222WAT     H2 9909   9.735   0.895   3.739
 3223WAT      O 9910   8.968   8.447   0.708
 3223WAT     H1 9911   8.997   8.362   0.753
 3223WAT     H2 9912   9.047   8.492   0.667
 3224WAT      O 9913   1.464   0.261   9.028
 3224WAT     H1 9914   1.559   0.273   9.057
 3224WAT     H2 9915   1.404   0.263   9.108
 3225WAT      O 9916   4.850   2.244   9.762
 3225WAT     H1 9917   4.935   2.231   9.710
 3225WAT     H2 9918   4.777   2.192   9.719
 3226WAT      O 9919   5.145   0.844   1.529
 3226WAT     H1 9920   5.054   0.884   1.525
 3226WAT     H2 9921   5.150   0.765   1.468
 3227WAT      O 9922   7.039   3.505   2.670
 3227WAT     H1 9923   7.053   3.407   2.654
 3227WAT     H2 9924   7.010   3.548   2.584
 3228WAT      O 9925   7.918   2.131   0.856
 3228WAT     H1 9926   7.974   2.087   0.785
 3228WAT     H2 9927   7.976   2.151   0.935
 3229WAT      O 9928   6.916   0.807   6.865
 3229WAT     H1 9929   6.904   0.906   6.869
 3229WAT     H2 9930   6.888   0.773   6.776
 3230WAT      O 9931   4.459   9.410   2.725
 3230WAT     H1 9932   4.554   9.394   2.697
 3230WAT     H2 9933   4.398   9.374   2.655
 3231WAT      O 9934   5.888   7.210   4.938
 3231WAT     H1 9935   5.910   7.115   4.962
 3231WAT     H2 9936   5.962   7.269   4.970
 3232WAT      O 9937   0.474   5.980   4.616
 3232WAT     H1 9938   0.531   6.038   4.673
 3232WAT     H2 9939   0.435   5.906   4.672
 3233WAT      O 9940   5.755   3.090   8.949
 3233WAT     H1 9941   5.662   3.060   8.971
 3233WAT     H2 9942   5.784   3.160   9.013
 3234WAT      O 9943   8.229   7.639   7.092
 3234WAT     H1 9944   8.287   7.558   7.078
 3234WAT     H2 9945   8.144   7.612   7.138
 3235WAT      O 9946   8.023   1.059   0.140
 3235WAT     H1 9947   7.975   1.113   0.071
 3235WAT     H2 9948   8.112   1.100   0.158
 3236WAT      O 9949   9.251   9.459   4.585
 3236WAT     H1 9950   9.239   9.448   4.486
 3236WAT     H2 9951   9.347   9.448   4.609
 3237WAT      O 9952   7.053   6.847   9.697
 3237WAT     H1 9953   6.962   6.806   9.695
 3237WAT     H2 9954   7.072   6.891   9.610
 3238WAT      O 9955   1.178   1.485   2.062
 3238WAT     H1 9956   1.233   1.417   2.014
 3238WAT     H2 9957   1.198   1.576   2.026
 3239WAT      O 9958   4.185   3.223   7.874
 3239WAT     H1 9959   4.212   3.260   7.963
 3239WAT     H2 9960   4.085   3.217   7.870
 3240WAT      O 9961   8.278   9.393   3.854
 3240WAT     H1 9962   8.295   9.298   3.827
 3240WAT     H2 9963   8.307   9.406   3.949
 3241WAT      O 9964   4.057   6.368   8.066
 3241WAT     H1 9965   4.041   6.352   8.164
 3241WAT     H2 9966   3.985   6.427   8.030
 3242WAT      O 9967   6.184   7.061   7.730
 3242WAT     H1 9968   6.187   6.962   7.745
 3242WAT     H2 9969   6.185   7.080   7.631
 3243WAT      O 9970   9.422   0.418   0.800
 3243WAT     H1 9971   9.334   0.415   0.849
 3243WAT     H2 9972   9.458   0.512   0.803
 3244WAT      O 9973   1.048   3.241   2.951
 3244WAT     H1 9974   1.004   3.155   2.928
 3244WAT     H2 9975   1.147   3.228   2.955
 3245WAT      O 9976   0.275   8.670   0.133
 3245WAT     H1 9977   0.234   8.739   0.192
 3245WAT     H2 9978   0.205   8.606   0.102
 3246WAT      O 9979   4.661   4.005   8.447
 3246WAT     H1 9980   4.727   4.029   8.519
 3246WAT     H2 9981   4.711   3.979   8.364
 3247WAT      O 9982   9.841   1.254   7.615
 3247WAT     H1 9983   9.905   1.232   7.690
 3247WAT     H2 9984   9.752   1.278   7.654
 3248WAT      O 9985   9.237   5.860   6.197
 3248WAT     H1 9986   9.224   5.817   6.108
 3248WAT     H2 9987   9.317   5.820   6.242
 3249WAT      O 9988   9.277   0.265   6.484
 3249WAT     H1 9989   9.197   0.308   6.525
 3249WAT     H2 9990   9.291   0.301   6.392
 3250WAT      O 9991   0.695   5.574   0.710
 3250WAT     H1 9992   0.664   5.480   0.720
 3250WAT     H2 9993   0.621   5.636   0.735
 3251WAT      O 9994   1.347   1.336   7.544
 3251WAT     H1 9995   1.319   1.402   7.614
 3251WAT     H2 9996   1.271   1.321   7.480
 3252WAT      O 9997   5.468   4.646   9.333
 3252WAT     H1 9998   5.393   4.614   9.275
 3252WAT     H2 9999   5.456   4.611   9.426
 3253WAT      O10000   1.445   4.260   8.839
 3253WAT     H110001   1.372   4.266   8.771
 3253WAT     H210002   1.533   4.278   8.795
 3254WAT      O10003   0.167   2.189   4.468
 3254WAT     H110004   0.134   2.276   4.505
 3254WAT     H210005   0.120   2.113   4.514
 3255WAT      O10006   9.679   1.446   3.568
 3255WAT     H110007   9.698   1.430   3.472
 3255WAT     H210008   9.766   1.458   3.618
 3256WAT      O10009   7.762   1.066   9.457
 3256WAT     H110010   7.685   1.022   9.412
 3256WAT     H210011   7.760   1.164   9.438
 3257WAT      O10012   5.890   8.529   8.024
 3257WAT     H110013   5.812   8.588   8.039
 3257WAT     H210014   5.947   8.528   8.106
 3258WAT      O10015   8.471   8.344   2.892
 3258WAT     H110016   8.440   8.435   2.915
 3258WAT     H210017   8.552   8.321   2.946
 3259WAT      O10018   8.431   6.943   0.972
 3259WAT     H110019   8.526   6.940   1.003
 3259WAT     H210020   8.419   6.877   0.897
 3260WAT      O10021   1.724   4.590   9.285
 3260WAT     H110022   1.781   4.532   9.344
 3260WAT     H210023   1.732   4.685   9.316
 3261WAT      O10024   9.473   5.838   8.264
 3261WAT     H110025   9.534   5.858   8.187
 3261WAT     H210026   9.381   5.872   8.243
 3262WAT      O10027   2.683   7.332   5.689
 3262WAT     H110028   2.706   7.346   5.786
 3262WAT     H210029   2.736   7.395   5.633
 3263WAT      O10030   2.464   5.838   1.583
 3263WAT     H110031   2.542   5.894   1.612
 3263WAT     H210032   2.382   5.895   1.577
 3264WAT      O10033   3.942   5.120   2.005
 3264WAT     H110034   3.967   5.217   2.000
 3264WAT     H210035   4.008   5.065   1.954
 3265WAT      O10036   1.835   7.595   0.777
 3265WAT     H110037   1.846   7.507   0.731
 3265WAT     H210038   1.785   7.581   0.863
 3266WAT      O10039   8.381   6.265   7.931
 3266WAT     H110040   8.362   6.191   7.866
 3266WAT     H210041   8.296   6.304   7.963
 3267WAT      O10042   3.634   6.241   2.016
 3267WAT     H110043   3.620   6.215   1.921
 3267WAT     H210044   3.546   6.263   2.059
 3268WAT      O10045   9.171   4.070   5.190
 3268WAT     H110046   9.212   4.134   5.125
 3268WAT     H210047   9.184   4.105   5.283
 3269WAT      O10048   4.191   1.488   2.733
 3269WAT     H110049   4.142   1.465   2.817
 3269WAT     H210050   4.275   1.433   2.728
 3270WAT      O10051   8.088   4.747   6.551
 3270WAT     H110052   8.106   4.809   6.474
 3270WAT     H210053   7.998   4.767   6.589
 3271WAT      O10054   9.206   6.728   2.338
 3271WAT     H110055   9.228   6.817   2.298
 3271WAT     H210056   9.227   6.656   2.271
 3272WAT      O10057   0.512   6.913   2.460
 3272WAT     H110058   0.588   6.975   2.443
 3272WAT     H210059   0.539   6.845   2.529
 3273WAT      O10060   4.169   9.119   7.737
 3273WAT     H110061   4.190   9.050   7.668
 3273WAT     H210062   4.181   9.079   7.828
 3274WAT      O10063   8.587   4.874   7.905
 3274WAT     H110064   8.547   4.839   7.820
 3274WAT     H210065   8.628   4.798   7.956
 3275WAT      O10066   3.103   5.386   2.932
 3275WAT     H110067   3.123   5.421   2.841
 3275WAT     H210068   3.113   5.286   2.933
 3276WAT      O10069   5.686   5.006   7.789
 3276WAT     H110070   5.644   4.988   7.700
 3276WAT     H210071   5.744   4.928   7.815
 3277WAT      O10072   0.855   0.895   3.151
 3277WAT     H110073   0.809   0.934   3.231
 3277WAT     H210074   0.954   0.904   3.162
 3278WAT      O10075   3.032   7.518   8.056
 3278WAT     H110076   3.022   7.502   7.958
 3278WAT     H210077   3.093   7.450   8.095
 3279WAT      O10078   8.469   6.765   2.566
 3279WAT     H110079   8.563   6.756   2.532
 3279WAT     H210080   8.462   6.846   2.624
 3280WAT      O10081   8.878   9.696   3.814
 3280WAT     H110082   8.829   9.730   3.894
 3280WAT     H210083   8.830   9.617   3.776
 3281WAT      O10084   8.764   9.385   1.755
 3281WAT     H110085   8.855   9.350   1.734
 3281WAT     H210086   8.695   9.321   1.720
 3282WAT      O10087   7.194   5.845   2.661
 3282WAT     H110088   7.227   5.816   2.571
 3282WAT     H210089   7.256   5.813   2.732
 3283WAT      O10090   7.161   2.508   8.473
 3283WAT     H110091   7.064   2.528   8.491
 3283WAT     H210092   7.188   2.551   8.388
 3284WAT      O10093   4.020   9.142   6.836
 3284WAT     H110094   4.086   9.174   6.767
 3284WAT     H210095   4.050   9.054   6.872
 3285WAT      O10096   0.104   7.695   1.505
 3285WAT     H110097   0.020   7.648   1.532
 3285WAT     H210098   0.173   7.627   1.481
 3286WAT      O10099   9.839   6.805   6.624
 3286WAT     H110100   9.865   6.718   6.582
 3286WAT     H210101   9.745   6.827   6.600
 3287WAT      O10102   8.322   2.462   3.010
 3287WAT     H110103   8.247   2.527   3.023
 3287WAT     H210104   8.392   2.502   2.951
 3288WAT      O10105   3.520   0.139   7.286
 3288WAT     H110106   3.436   0.124   7.235
 3288WAT     H210107   3.597   0.144   7.223
 3289WAT      O10108   0.810   6.596   4.023
 3289WAT     H110109   0.805   6.631   4.117
 3289WAT     H210110   0.906   6.577   4.000
 3290WAT      O10111   6.482   3.533   7.497
 3290WAT     H110112   6.508   3.456   7.439
 3290WAT     H210113   6.473   3.502   7.592
 3291WAT      O10114   3.424   6.076   5.377
 3291WAT     H110115   3.493   6.139   5.410
 3291WAT     H210116   3.367   6.122   5.308
 3292WAT      O10117   5.856   5.039   9.806
 3292WAT     H110118   5.771   5.062   9.853
 3292WAT     H210119   5.888   4.950   9.838
 3293WAT      O10120   4.010   3.594   8.827
 3293WAT     H110121   4.023   3.507   8.779
 3293WAT     H210122   4.097   3.623   8.867
 3294WAT      O10123   4.983   1.312   3.596
 3294WAT     H110124   4.977   1.362   3.510
 3294WAT     H210125   5.000   1.215   3.577
 3295WAT      O10126   2.394   8.807   3.215
 3295WAT     H110127   2.294   8.810   3.208
 3295WAT     H210128   2.430   8.745   3.146
 3296WAT      O10129   2.131   5.402   5.530
 3296WAT     H110130   2.181   5.323   5.495
 3296WAT     H210131   2.035   5.377   5.544
 3297WAT      O10132   3.065   2.472   8.832
 3297WAT     H110133   3.047   2.406   8.905
 3297WAT     H210134   3.122   2.430   8.762
 3298WAT      O10135   9.317   8.736   9.744
 3298WAT     H110136   9.227   8.754   9.703
 3298WAT     H210137   9.346   8.815   9.797
 3299WAT      O10138   4.624   9.729   9.867
 3299WAT     H110139   4.684   9.801   9.833
 3299WAT     H210140   4.619   9.655   9.801
 3300WAT      O10141   4.497   5.243   5.807
 3300WAT     H110142   4.590   5.232   5.769
 3300WAT     H210143   4.442   5.164   5.782
 3301WAT      O10144   9.244   8.244   8.563
 3301WAT     H110145   9.201   8.331   8.587
 3301WAT     H210146   9.308   8.257   8.488
 3302WAT      O10147   9.103   4.779   1.380
 3302WAT     H110148   9.130   4.873   1.403
 3302WAT     H210149   9.006   4.778   1.355
 3303WAT      O10150   6.817   1.222   0.301
 3303WAT     H110151   6.899   1.271   0.329
 3303WAT     H210152   6.737   1.280   0.317
 3304WAT      O10153   9.062   1.457   2.575
 3304WAT     H110154   9.150   1.487   2.538
 3304WAT     H210155   9.014   1.536   2.613
 3305WAT      O10156   3.848   0.374   8.086
 3305WAT     H110157   3.916   0.413   8.149
 3305WAT     H210158   3.848   0.425   8.000
 3306WAT      O10159   3.517   1.601   4.856
 3306WAT     H110160   3.453   1.590   4.931
 3306WAT     H210161   3.610   1.609   4.892
 3307WAT      O10162   4.379   6.872   4.693
 3307WAT     H110163   4.322   6.791   4.707
 3307WAT     H210164   4.376   6.929   4.775
 3308WAT      O10165   5.810   5.517   2.122
 3308WAT     H110166   5.895   5.569   2.126
 3308WAT     H210167   5.789   5.481   2.213
 3309WAT      O10168   1.458   3.880   1.799
 3309WAT     H110169   1.420   3.928   1.878
 3309WAT     H210170   1.471   3.784   1.821
 3310WAT      O10171   5.532   9.102   0.085
 3310WAT     H110172   5.594   9.041   0.036
 3310WAT     H210173   5.568   9.195   0.084
 3311WAT      O10174   0.950   1.936   0.754
 3311WAT     H110175   0.960   1.895   0.845
 3311WAT     H210176   1.020   2.006   0.742
 3312WAT      O10177   7.411   7.548   7.309
 3312WAT     H110178   7.420   7.453   7.338
 3312WAT     H210179   7.452   7.559   7.219
 3313WAT      O10180   6.933   5.965   3.159
 3313WAT     H110181   6.983   5.978   3.245
 3313WAT     H210182   6.846   6.014   3.163
 3314WAT      O10183   1.487   3.095   8.883
 3314WAT     H110184   1.545   3.073   8.961
 3314WAT     H210185   1.517   3.044   8.803
 3315WAT      O10186   1.806   9.446   8.556
 3315WAT     H110187   1.749   9.392   8.494
 3315WAT     H210188   1.827   9.391   8.637
 3316WAT      O10189   3.430   6.715   3.898
 3316WAT     H110190   3.497   6.710   3.823
 3316WAT     H210191   3.362   6.785   3.876
 3317WAT      O10192   2.349   2.783   8.762
 3317WAT     H110193   2.416   2.850   8.731
 3317WAT     H210194   2.264   2.795   8.710
 3318WAT      O10195   6.676   0.267   9.420
 3318WAT     H110196   6.754   0.205   9.410
 3318WAT     H210197   6.645   0.267   9.515
 3319WAT      O10198   6.094   4.449   5.751
 3319WAT     H110199   6.049   4.532   5.784
 3319WAT     H210200   6.193   4.464   5.746
 3320WAT      O10201   3.568   8.298   7.106
 3320WAT     H110202   3.529   8.299   7.014
 3320WAT     H210203   3.565   8.206   7.144
 3321WAT      O10204   7.994   8.338   5.765
 3321WAT     H110205   7.966   8.399   5.690
 3321WAT     H210206   8.081   8.296   5.742
 3322WAT      O10207   4.855   8.210   0.628
 3322WAT     H110208   4.882   8.115   0.640
 3322WAT     H210209   4.793   8.218   0.550
 3323WAT      O10210   3.339   5.821   5.711
 3323WAT     H110211   3.375   5.911   5.736
 3323WAT     H210212   3.346   5.809   5.612
 3324WAT      O10213   4.666   3.103   6.911
 3324WAT     H110214   4.595   3.079   6.846
 3324WAT     H210215   4.629   3.165   6.980
 3325WAT      O10216   6.086   2.034   0.116
 3325WAT     H110217   6.023   1.960   0.095
 3325WAT     H210218   6.117   2.026   0.211
 3326WAT      O10219   3.508   5.752   1.728
 3326WAT     H110220   3.443   5.677   1.713
 3326WAT     H210221   3.522   5.801   1.642
 3327WAT      O10222   4.351   9.745   3.413
 3327WAT     H110223   4.399   9.782   3.333
 3327WAT     H210224   4.384   9.653   3.432
 3328WAT      O10225   5.211   3.764   4.463
 3328WAT     H110226   5.127   3.792   4.509
 3328WAT     H210227   5.237   3.835   4.397
 3329WAT      O10228   8.885   1.676   2.590
 3329WAT     H110229   8.801   1.632   2.622
 3329WAT     H210230   8.884   1.681   2.490
 3330WAT      O10231   8.750   0.574   7.877
 3330WAT     H110232   8.833   0.614   7.841
 3330WAT     H210233   8.751   0.475   7.863
 3331WAT      O10234   4.573   3.854   0.583
 3331WAT     H110235   4.595   3.936   0.637
 3331WAT     H210236   4.476   3.857   0.556
 3332WAT      O10237   1.257   3.163   5.660
 3332WAT     H110238   1.241   3.077   5.707
 3332WAT     H210239   1.355   3.175   5.644
 3333WAT      O10240   9.731   0.057   8.247
 3333WAT     H110241   9.758   0.153   8.242
 3333WAT     H210242   9.810   0.001   8.271
 3334WAT      O10243   9.749   8.850   1.881
 3334WAT     H110244   9.708   8.764   1.849
 3334WAT     H210245   9.818   8.830   1.951
 3335WAT      O10246   8.874   3.410   8.793
 3335WAT     H110247   8.810   3.402   8.717
 3335WAT     H210248   8.829   3.456   8.870
 3336WAT      O10249   0.636   6.965   0.126
 3336WAT     H110250   0.571   6.902   0.169
 3336WAT     H210251   0.594   7.055   0.116
 3337WAT      O10252   5.462   8.885   6.134
 3337WAT     H110253   5.370   8.902   6.099
 3337WAT     H210254   5.491   8.963   6.190
 3338WAT      O10255   8.847   3.395   5.393
 3338WAT     H110256   8.800   3.310   5.416
 3338WAT     H210257   8.856   3.402   5.294
 3339WAT      O10258   8.672   6.928   5.053
 3339WAT     H110259   8.751   6.971   5.010
 3339WAT     H210260   8.671   6.951   5.151
 3340WAT      O10261   5.111   3.026   6.324
 3340WAT     H110262   5.067   3.068   6.245
 3340WAT     H210263   5.210   3.036   6.316
 3341WAT      O10264   2.298   9.790   4.978
 3341WAT     H110265   2.348   9.874   4.999
 3341WAT     H210266   2.283   9.738   5.062
 3342WAT      O10267   5.883   8.174   7.800
 3342WAT     H110268   5.783   8.175   7.798
 3342WAT     H210269   5.914   8.156   7.894
 3343WAT      O10270   2.180   1.982   5.367
 3343WAT     H110271   2.095   1.938   5.397
 3343WAT     H210272   2.207   1.944   5.279
 3344WAT      O10273   5.822   5.805   0.057
 3344WAT     H110274   5.881   5.729   0.032
 3344WAT     H210275   5.878   5.884   0.084
 3345WAT      O10276   6.355   3.642   5.769
 3345WAT     H110277   6.386   3.560   5.817
 3345WAT     H210278   6.407   3.653   5.684
 3346WAT      O10279   5.300   4.598   3.077
 3346WAT     H110280   5.298   4.576   2.979
 3346WAT     H210281   5.380   4.653   3.098
 3347WAT      O10282   1.787   5.962   2.040
 3347WAT     H110283   1.794   6.036   2.108
 3347WAT     H210284   1.827   5.879   2.077
 3348WAT      O10285   8.694   4.340   3.879
 3348WAT     H110286   8.622   4.405   3.858
 3348WAT     H210287   8.660   4.272   3.944
 3349WAT      O10288   0.786   6.807   8.552
 3349WAT     H110289   0.800   6.844   8.460
 3349WAT     H210290   0.753   6.880   8.612
 3350WAT      O10291   3.666   0.777   6.185
 3350WAT     H110292   3.747   0.781   6.244
 3350WAT     H210293   3.638   0.681   6.173
 3351WAT      O10294   4.357   5.759   9.844
 3351WAT     H110295   4.315   5.668   9.844
 3351WAT     H210296   4.457   5.749   9.853
 3352WAT      O10297   2.522   5.485   5.722
 3352WAT     H110298   2.614   5.522   5.728
 3352WAT     H210299   2.463   5.532   5.788
 3353WAT      O10300   0.039   8.178   9.878
 3353WAT     H110301   0.075   8.256   9.827
 3353WAT     H210302  -0.061   8.181   9.877
 3354WAT      O10303   5.691   3.432   2.313
 3354WAT     H110304   5.633   3.431   2.394
 3354WAT     H210305   5.758   3.506   2.320
 3355WAT      O10306   1.687   8.710   4.863
 3355WAT     H110307   1.779   8.686   4.834
 3355WAT     H210308   1.659   8.652   4.939
 3356WAT      O10309   5.010   6.003   8.560
 3356WAT     H110310   4.959   5.918   8.549
 3356WAT     H210311   5.095   5.997   8.508
 3357WAT      O10312   2.444   2.328   2.000
 3357WAT     H110313   2.485   2.415   1.975
 3357WAT     H210314   2.471   2.304   2.093
 3358WAT      O10315   4.278   5.341   7.426
 3358WAT     H110316   4.318   5.422   7.383
 3358WAT     H210317   4.213   5.370   7.497
 3359WAT      O10318   4.223   5.235   4.550
 3359WAT     H110319   4.131   5.275   4.554
 3359WAT     H210320   4.257   5.240   4.456
 3360WAT      O10321   9.438   6.563   0.005
 3360WAT     H110322   9.528   6.555   0.046
 3360WAT     H210323   9.420   6.658  -0.019
 3361WAT      O10324   6.615   8.145   3.755
 3361WAT     H110325   6.553   8.166   3.830
 3361WAT     H210326   6.647   8.050   3.763
 3362WAT      O10327   6.616   8.025   0.469
 3362WAT     H110328   6.647   7.973   0.549
 3362WAT     H210329   6.519   8.004   0.452
 3363WAT      O10330   7.071   5.460   0.545
 3363WAT     H110331   7.041   5.368   0.518
 3363WAT     H210332   7.026   5.528   0.487
 3364WAT      O10333   9.653   6.394   2.746
 3364WAT     H110334   9.612   6.337   2.818
 3364WAT     H210335   9.741   6.429   2.778
 3365WAT      O10336   3.951   6.114   4.938
 3365WAT     H110337   3.964   6.070   5.027
 3365WAT     H210338   3.901   6.051   4.878
 3366WAT      O10339   1.048   4.506   5.154
 3366WAT     H110340   1.020   4.434   5.218
 3366WAT     H210341   0.974   4.522   5.088
 3367WAT      O10342   0.597   1.875   2.276
 3367WAT     H110343   0.685   1.918   2.300
 3367WAT     H210344   0.565   1.820   2.353
 3368WAT      O10345   5.585   5.337   2.542
 3368WAT     H110346   5.566   5.413   2.604
 3368WAT     H210347   5.629   5.263   2.592
 3369WAT      O10348   8.108   1.777   0.523
 3369WAT     H110349   8.038   1.720   0.482
 3369WAT     H210350   8.066   1.861   0.558
 3370WAT      O10351   7.800   6.904   6.343
 3370WAT     H110352   7.817   6.892   6.441
 3370WAT     H210353   7.754   6.992   6.329
 3371WAT      O10354   0.906   4.316   4.700
 3371WAT     H110355   0.842   4.391   4.716
 3371WAT     H210356   0.920   4.306   4.601
 3372WAT      O10357   1.326   0.818   3.360
 3372WAT     H110358   1.350   0.728   3.398
 3372WAT     H210359   1.246   0.854   3.409
 3373WAT      O10360   9.660   7.962   4.243
 3373WAT     H110361   9.569   7.929   4.221
 3373WAT     H210362   9.704   7.899   4.307
 3374WAT      O10363   3.207   2.677   6.215
 3374WAT     H110364   3.199   2.584   6.251
 3374WAT     H210365   3.266   2.731   6.275
 3375WAT      O10366   3.107   7.765   5.786
 3375WAT     H110367   3.072   7.705   5.858
 3375WAT     H210368   3.037   7.830   5.759
 3376WAT      O10369   2.724   6.258   6.715
 3376WAT     H110370   2.756   6.225   6.627
 3376WAT     H210371   2.716   6.181   6.778
 3377WAT      O10372   2.101   3.261   4.744
 3377WAT     H110373   2.086   3.280   4.841
 3377WAT     H210374   2.199   3.255   4.726
 3378WAT      O10375   1.391   4.567   5.494
 3378WAT     H110376   1.366   4.582   5.589
 3378WAT     H210377   1.344   4.486   5.459
 3379WAT      O10378   9.761   6.625   8.618
 3379WAT     H110379   9.823   6.578   8.681
 3379WAT     H210380   9.753   6.571   8.534
 3380WAT      O10381   4.322   1.076   3.809
 3380WAT     H110382   4.363   1.070   3.718
 3380WAT     H210383   4.222   1.075   3.800
 3381WAT      O10384   9.360   1.417   7.770
 3381WAT     H110385   9.340   1.511   7.742
 3381WAT     H210386   9.436   1.381   7.716
 3382WAT      O10387   1.931   4.146   3.535
 3382WAT     H110388   1.988   4.174   3.613
 3382WAT     H210389   1.855   4.210   3.525
 3383WAT      O10390   8.401   9.624   7.922
 3383WAT     H110391   8.355   9.657   7.839
 3383WAT     H210392   8.337   9.568   7.975
 3384WAT      O10393   0.136   2.112   9.604
 3384WAT     H110394   0.221   2.155   9.577
 3384WAT     H210395   0.099   2.157   9.685
 3385WAT      O10396   1.586   5.240   5.994
 3385WAT     H110397   1.551   5.247   5.900
 3385WAT     H210398   1.529   5.293   6.055
 3386WAT      O10399   0.044   2.916   2.914
 3386WAT     H110400   0.018   3.013   2.922
 3386WAT     H210401   0.079   2.899   2.822
 3387WAT      O10402   5.774   0.365   0.418
 3387WAT     H110403   5.706   0.344   0.488
 3387WAT     H210404   5.859   0.395   0.461
 3388WAT      O10405   2.098   6.474   8.223
 3388WAT     H110406   2.011   6.437   8.192
 3388WAT     H210407   2.083   6.561   8.271
 3389WAT      O10408   4.011   8.831   1.497
 3389WAT     H110409   4.021   8.930   1.511
 3389WAT     H210410   4.034   8.783   1.582
 3390WAT      O10411   2.039   5.515   0.816
 3390WAT     H110412   2.116   5.510   0.878
 3390WAT     H210413   1.964   5.566   0.859
 3391WAT      O10414   4.059   3.014   0.681
 3391WAT     H110415   4.050   3.105   0.641
 3391WAT     H210416   4.006   2.948   0.628
 3392WAT      O10417   5.060   5.092   0.092
 3392WAT     H110418   5.104   5.176   0.059
 3392WAT     H210419   4.998   5.057   0.021
 3393WAT      O10420   1.695   4.851   1.209
 3393WAT     H110421   1.628   4.781   1.186
 3393WAT     H210422   1.700   4.917   1.134
 3394WAT      O10423   0.303   5.671   5.137
 3394WAT     H110424   0.217   5.624   5.121
 3394WAT     H210425   0.306   5.756   5.083
 3395WAT      O10426   2.864   6.522   0.461
 3395WAT     H110427   2.883   6.541   0.364
 3395WAT     H210428   2.933   6.460   0.497
 3396WAT      O10429   6.484   3.833   5.914
 3396WAT     H110430   6.431   3.762   5.869
 3396WAT     H210431   6.458   3.839   6.010
 3397WAT      O10432   1.678   8.646   5.127
 3397WAT     H110433   1.604   8.687   5.180
 3397WAT     H210434   1.765   8.682   5.159
 3398WAT      O10435   3.996   8.181   5.478
 3398WAT     H110436   3.940   8.102   5.452
 3398WAT     H210437   4.088   8.170   5.442
 3399WAT      O10438   8.466   6.409   6.654
 3399WAT     H110439   8.462   6.509   6.648
 3399WAT     H210440   8.390   6.370   6.602
 3400WAT      O10441   5.811   1.301   0.852
 3400WAT     H110442   5.833   1.222   0.794
 3400WAT     H210443   5.712   1.316   0.852
 3401WAT      O10444   2.771   7.366   8.991
 3401WAT     H110445   2.831   7.322   9.059
 3401WAT     H210446   2.678   7.329   9.000
 3402WAT      O10447   2.879   1.192   3.354
 3402WAT     H110448   2.949   1.159   3.418
 3402WAT     H210449   2.888   1.291   3.343
 3403WAT      O10450   1.137   4.627   3.886
 3403WAT     H110451   1.105   4.685   3.960
 3403WAT     H210452   1.088   4.540   3.888
 3404WAT      O10453   0.953   8.554   5.981
 3404WAT     H110454   0.896   8.558   6.064
 3404WAT     H210455   1.045   8.524   6.005
 3405WAT      O10456   7.099   3.190   9.729
 3405WAT     H110457   7.115   3.266   9.666
 3405WAT     H210458   7.183   3.170   9.780
 3406WAT      O10459   4.913   7.514   9.544
 3406WAT     H110460   4.828   7.468   9.568
 3406WAT     H210461   4.967   7.456   9.484
 3407WAT      O10462   9.217   2.532   5.696
 3407WAT     H110463   9.184   2.440   5.715
 3407WAT     H210464   9.316   2.536   5.713
 3408WAT      O10465   8.398   9.335   1.272
 3408WAT     H110466   8.487   9.370   1.244
 3408WAT     H210467   8.390   9.339   1.372
 3409WAT      O10468   2.153   0.051   3.100
 3409WAT     H110469   2.055   0.073   3.100
 3409WAT     H210470   2.180   0.021   3.191
 3410WAT      O10471   0.759   5.790   2.656
 3410WAT     H110472   0.717   5.762   2.743
 3410WAT     H210473   0.755   5.714   2.591
 3411WAT      O10474   5.943   7.894   6.806
 3411WAT     H110475   6.040   7.876   6.822
 3411WAT     H210476   5.925   7.992   6.813
 3412WAT      O10477   4.726   6.776   9.422
 3412WAT     H110478   4.694   6.683   9.400
 3412WAT     H210479   4.742   6.783   9.520
 3413WAT      O10480   5.729   0.566   2.743
 3413WAT     H110481   5.750   0.480   2.790
 3413WAT     H210482   5.672   0.547   2.663
 3414WAT      O10483   0.750   3.957   1.540
 3414WAT     H110484   0.683   4.009   1.592
 3414WAT     H210485   0.705   3.882   1.492
 3415WAT      O10486   7.501   0.101   6.884
 3415WAT     H110487   7.487   0.063   6.792
 3415WAT     H210488   7.566   0.177   6.879
 3416WAT      O10489   7.458   4.946   7.093
 3416WAT     H110490   7.417   4.898   7.016
 3416WAT     H210491   7.499   4.879   7.156
 3417WAT      O10492   3.962   0.260   1.265
 3417WAT     H110493   3.866   0.248   1.290
 3417WAT     H210494   3.982   0.358   1.255
 3418WAT      O10495   1.378   5.998   0.078
 3418WAT     H110496   1.288   5.954   0.080
 3418WAT     H210497   1.428   5.968  -0.003
 3419WAT      O10498   6.648   3.427   2.636
 3419WAT     H110499   6.643   3.337   2.592
 3419WAT     H210500   6.663   3.416   2.734
 3420WAT      O10501   9.328   1.677   6.611
 3420WAT     H110502   9.231   1.654   6.621
 3420WAT     H210503   9.384   1.607   6.657
 3421WAT      O10504   9.339   7.518   0.208
 3421WAT     H110505   9.432   7.482   0.202
 3421WAT     H210506   9.329   7.593   0.143
 3422WAT      O10507   4.138   1.162   5.181
 3422WAT     H110508   4.109   1.099   5.253
 3422WAT     H210509   4.196   1.233   5.220
 3423WAT      O10510   2.608   6.365   1.354
 3423WAT     H110511   2.581   6.336   1.262
 3423WAT     H210512   2.538   6.425   1.392
 3424WAT      O10513   6.018   8.875   4.832
 3424WAT     H110514   5.975   8.861   4.921
 3424WAT     H210515   6.096   8.936   4.842
 3425WAT      O10516   8.853   7.264   1.709
 3425WAT     H110517   8.952   7.271   1.699
 3425WAT     H210518   8.814   7.355   1.724
 3426WAT      O10519   2.348   0.414   2.921
 3426WAT     H110520   2.397   0.332   2.891
 3426WAT     H210521   2.326   0.472   2.843
 3427WAT      O10522   5.810   5.648   5.214
 3427WAT     H110523   5.748   5.598   5.274
 3427WAT     H210524   5.804   5.746   5.234
 3428WAT      O10525   8.510   8.286   4.668
 3428WAT     H110526   8.413   8.300   4.650
 3428WAT     H210527   8.562   8.293   4.583
 3429WAT      O10528   0.309   3.204   1.573
 3429WAT     H110529   0.217   3.187   1.608
 3429WAT     H210530   0.303   3.232   1.477
 3430WAT      O10531   3.718   7.792   9.849
 3430WAT     H110532   3.684   7.756   9.762
 3430WAT     H210533   3.817   7.774   9.855
 3431WAT      O10534   4.098   3.857   7.778
 3431WAT     H110535   4.113   3.866   7.877
 3431WAT     H210536   4.121   3.765   7.749
 3432WAT      O10537   1.927   4.409   6.516
 3432WAT     H110538   1.914   4.360   6.429
 3432WAT     H210539   1.876   4.495   6.514
 3433WAT      O10540   4.431   5.507   5.596
 3433WAT     H110541   4.387   5.587   5.637
 3433WAT     H210542   4.530   5.513   5.609
 3434WAT      O10543   6.666   5.991   7.602
 3434WAT     H110544   6.695   5.950   7.516
 3434WAT     H210545   6.744   5.999   7.664
 3435WAT      O10546   2.493   6.809   3.320
 3435WAT     H110547   2.501   6.811   3.420
 3435WAT     H210548   2.502   6.902   3.284
 3436WAT      O10549   7.228   7.205   7.749
 3436WAT     H110550   7.234   7.158   7.661
 3436WAT     H210551   7.198   7.299   7.735
 3437WAT      O10552   9.535   1.920   8.388
 3437WAT     H110553   9.520   2.004   8.440
 3437WAT     H210554   9.557   1.845   8.451
 3438WAT      O10555   8.888   8.660   7.085
 3438WAT     H110556   8.891   8.566   7.051
 3438WAT     H210557   8.802   8.703   7.058
 3439WAT      O10558   1.058   1.672   0.895
 3439WAT     H110559   1.036   1.610   0.820
 3439WAT     H210560   0.974   1.698   0.943
 3440WAT      O10561   6.617   7.628   5.563
 3440WAT     H110562   6.538   7.633   5.501
 3440WAT     H210563   6.593   7.571   5.642
 3441WAT      O10564   6.172   1.701   5.988
 3441WAT     H110565   6.123   1.614   6.001
 3441WAT     H210566   6.262   1.695   6.032
 3442WAT      O10567   2.241   2.426   7.162
 3442WAT     H110568   2.163   2.488   7.151
 3442WAT     H210569   2.212   2.343   7.210
 3443WAT      O10570   2.895   0.040   1.063
 3443WAT     H110571   2.875   0.134   1.037
 3443WAT     H210572   2.846  -0.022   1.002
 3444WAT      O10573   8.167   3.204   0.355
 3444WAT     H110574   8.262   3.186   0.332
 3444WAT     H210575   8.131   3.277   0.297
 3445WAT      O10576   0.850   0.021   1.132
 3445WAT     H110577   0.837  -0.072   1.097
 3445WAT     H210578   0.848   0.018   1.232
 3446WAT      O10579   9.139   1.784   3.769
 3446WAT     H110580   9.066   1.848   3.747
 3446WAT     H210581   9.113   1.692   3.739
 3447WAT      O10582   0.119   2.348   4.852
 3447WAT     H110583   0.037   2.297   4.828
 3447WAT     H210584   0.155   2.312   4.939
 3448WAT      O10585   6.806   4.779   9.697
 3448WAT     H110586   6.881   4.769   9.763
 3448WAT     H210587   6.775   4.874   9.696
 3449WAT      O10588   2.465   3.717   6.947
 3449WAT     H110589   2.445   3.810   6.977
 3449WAT     H210590   2.478   3.716   6.847
 3450WAT      O10591   9.731   3.519   1.287
 3450WAT     H110592   9.753   3.433   1.241
 3450WAT     H210593   9.650   3.507   1.343
 3451WAT      O10594   4.713   4.326   4.644
 3451WAT     H110595   4.649   4.354   4.572
 3451WAT     H210596   4.803   4.365   4.625
 3452WAT      O10597   1.401   3.294   4.598
 3452WAT     H110598   1.422   3.310   4.502
 3452WAT     H210599   1.485   3.269   4.647
 3453WAT      O10600   2.776   5.874   6.418
 3453WAT     H110601   2.811   5.888   6.326
 3453WAT     H210602   2.812   5.788   6.455
 3454WAT      O10603   0.927   2.268   6.869
 3454WAT     H110604   0.864   2.260   6.946
 3454WAT     H210605   0.888   2.330   6.801
 3455WAT      O10606   5.228   0.175   5.123
 3455WAT     H110607   5.246   0.095   5.065
 3455WAT     H210608   5.150   0.226   5.086
 3456WAT      O10609   2.016   8.470   8.747
 3456WAT     H110610   2.080   8.429   8.812
 3456WAT     H210611   2.048   8.454   8.654
 3457WAT      O10612   4.568   0.998   1.036
 3457WAT     H110613   4.546   0.901   1.037
 3457WAT     H210614   4.572   1.031   0.942
 3458WAT      O10615   9.462   6.494   1.114
 3458WAT     H110616   9.384   6.494   1.052
 3458WAT     H210617   9.505   6.403   1.114
 3459WAT      O10618   6.479   4.279   9.189
 3459WAT     H110619   6.416   4.252   9.117
 3459WAT     H210620   6.456   4.370   9.222
 3460WAT      O10621   4.039   3.006   0.977
 3460WAT     H110622   4.028   3.047   0.886
 3460WAT     H210623   3.988   3.060   1.043
 3461WAT      O10624   6.846   0.152   3.398
 3461WAT     H110625   6.750   0.179   3.384
 3461WAT     H210626   6.904   0.233   3.389
 3462WAT      O10627   7.521   0.415   6.405
 3462WAT     H110628   7.474   0.452   6.485
 3462WAT     H210629   7.499   0.470   6.325
 3463WAT      O10630   3.289   6.048   6.499
 3463WAT     H110631   3.294   6.139   6.540
 3463WAT     H210632   3.265   5.981   6.569
 3464WAT      O10633   3.206   9.083   9.731
 3464WAT     H110634   3.199   9.031   9.816
 3464WAT     H210635   3.242   9.024   9.659
 3465WAT      O10636   7.958   9.745   0.113
 3465WAT     H110637   8.041   9.729   0.167
 3465WAT     H210638   7.899   9.665   0.119
 3466WAT      O10639   3.823   7.731   4.444
 3466WAT     H110640   3.755   7.740   4.517
 3466WAT     H210641   3.818   7.810   4.383
 3467WAT      O10642   4.814   1.553   9.699
 3467WAT     H110643   4.836   1.479   9.636
 3467WAT     H210644   4.715   1.560   9.709
 3468WAT      O10645   3.841   2.593   3.921
 3468WAT     H110646   3.761   2.609   3.863
 3468WAT     H210647   3.911   2.661   3.901
 3469WAT      O10648   1.617   1.553   3.992
 3469WAT     H110649   1.686   1.555   3.920
 3469WAT     H210650   1.646   1.611   4.068
 3470WAT      O10651   1.448   5.906   7.059
 3470WAT     H110652   1.433   5.808   7.076
 3470WAT     H210653   1.461   5.953   7.146
 3471WAT      O10654   0.824   8.068   9.218
 3471WAT     H110655   0.827   7.978   9.174
 3471WAT     H210656   0.873   8.064   9.305
 3472WAT      O10657   4.394   6.936   9.581
 3472WAT     H110658   4.348   6.888   9.506
 3472WAT     H210659   4.384   6.882   9.665
 3473WAT      O10660   9.192   4.531   5.565
 3473WAT     H110661   9.216   4.463   5.634
 3473WAT     H210662   9.270   4.592   5.550
 3474WAT      O10663   8.326   3.068   3.818
 3474WAT     H110664   8.271   3.112   3.888
 3474WAT     H210665   8.418   3.050   3.854
 3475WAT      O10666   1.337   3.484   1.621
 3475WAT     H110667   1.410   3.496   1.554
 3475WAT     H210668   1.302   3.390   1.617
 3476WAT      O10669   5.484   5.106   1.308
 3476WAT     H110670   5.552   5.034   1.322
 3476WAT     H210671   5.531   5.192   1.286
 3477WAT      O10672   9.255   3.405   7.492
 3477WAT     H110673   9.230   3.361   7.579
 3477WAT     H210674   9.172   3.422   7.439
 3478WAT      O10675   7.059   4.073   3.644
 3478WAT     H110676   6.998   4.007   3.599
 3478WAT     H210677   7.006   4.153   3.671
 3479WAT      O10678   5.952   3.550   0.930
 3479WAT     H110679   6.041   3.526   0.892
 3479WAT     H210680   5.888   3.475   0.914
 3480WAT      O10681   7.898   2.909   8.963
 3480WAT     H110682   7.977   2.944   9.014
 3480WAT     H210683   7.814   2.926   9.015
 3481WAT      O10684   2.818   9.695   2.211
 3481WAT     H110685   2.763   9.612   2.226
 3481WAT     H210686   2.866   9.718   2.296
 3482WAT      O10687   3.622   5.043   6.559
 3482WAT     H110688   3.683   5.026   6.481
 3482WAT     H210689   3.547   5.101   6.530
 3483WAT      O10690   3.238   5.347   3.811
 3483WAT     H110691   3.291   5.309   3.735
 3483WAT     H210692   3.276   5.436   3.836
 3484WAT      O10693   8.343   9.474   1.770
 3484WAT     H110694   8.314   9.569   1.760
 3484WAT     H210695   8.290   9.430   1.843
 3485WAT      O10696   7.859   7.525   2.724
 3485WAT     H110697   7.820   7.610   2.687
 3485WAT     H210698   7.792   7.480   2.781
 3486WAT      O10699   1.654   0.019   5.601
 3486WAT     H110700   1.578   0.009   5.665
 3486WAT     H210701   1.621   0.057   5.515
 3487WAT      O10702   0.851   6.952   9.365
 3487WAT     H110703   0.837   6.953   9.266
 3487WAT     H210704   0.948   6.948   9.385
 3488WAT      O10705   1.997   8.287   3.085
 3488WAT     H110706   1.968   8.332   3.000
 3488WAT     H210707   1.932   8.215   3.109
 3489WAT      O10708   5.307   5.827   9.592
 3489WAT     H110709   5.217   5.810   9.552
 3489WAT     H210710   5.372   5.758   9.561
 3490WAT      O10711   6.219   2.609   3.756
 3490WAT     H110712   6.192   2.533   3.697
 3490WAT     H210713   6.207   2.583   3.851
 3491WAT      O10714   6.595   1.209   1.705
 3491WAT     H110715   6.520   1.190   1.769
 3491WAT     H210716   6.597   1.138   1.635
 3492WAT      O10717   5.685   0.983   4.535
 3492WAT     H110718   5.737   0.898   4.545
 3492WAT     H210719   5.695   1.017   4.441
 3493WAT      O10720   4.760   5.969   4.025
 3493WAT     H110721   4.755   5.976   3.925
 3493WAT     H210722   4.745   6.059   4.066
 3494WAT      O10723   2.741   1.786   2.538
 3494WAT     H110724   2.810   1.809   2.469
 3494WAT     H210725   2.748   1.849   2.615
 3495WAT      O10726   3.630   4.477   1.283
 3495WAT     H110727   3.618   4.552   1.348
 3495WAT     H210728   3.687   4.508   1.207
 3496WAT      O10729   2.830   2.693   0.658
 3496WAT     H110730   2.830   2.776   0.602
 3496WAT     H210731   2.909   2.695   0.720
 3497WAT      O10732   6.764   1.751   8.189
 3497WAT     H110733   6.719   1.741   8.277
 3497WAT     H210734   6.771   1.848   8.166
 3498WAT      O10735   1.958   1.061   0.588
 3498WAT     H110736   2.017   1.053   0.508
 3498WAT     H210737   1.885   1.127   0.569
 3499WAT      O10738   3.028   2.294   9.387
 3499WAT     H110739   3.055   2.202   9.357
 3499WAT     H210740   3.099   2.331   9.446
 3500WAT      O10741   9.247   2.487   7.075
 3500WAT     H110742   9.296   2.401   7.064
 3500WAT     H210743   9.180   2.497   7.001
 3501WAT      O10744   2.833   4.759   8.932
 3501WAT     H110745   2.859   4.677   8.983
 3501WAT     H210746   2.788   4.733   8.847
 3502WAT      O10747   5.732   5.647   6.002
 3502WAT     H110748   5.645   5.665   6.049
 3502WAT     H210749   5.729   5.558   5.958
 3503WAT      O10750   4.907   8.367   6.818
 3503WAT     H110751   4.854   8.440   6.860
 3503WAT     H210752   4.892   8.368   6.719
 3504WAT      O10753   2.573   9.754   2.850
 3504WAT     H110754   2.477   9.777   2.866
 3504WAT     H210755   2.580   9.659   2.820
 3505WAT      O10756   4.371   0.890   3.077
 3505WAT     H110757   4.284   0.848   3.101
 3505WAT     H210758   4.355   0.982   3.040
 3506WAT      O10759   6.965   1.764   7.047
 3506WAT     H110760   6.883   1.743   7.101
 3506WAT     H210761   6.980   1.863   7.047
 3507WAT      O10762   7.675   3.090   6.824
 3507WAT     H110763   7.586   3.067   6.784
 3507WAT     H210764   7.664   3.116   6.919
 3508WAT      O10765   1.984   6.577   6.715
 3508WAT     H110766   1.915   6.512   6.682
 3508WAT     H210767   2.062   6.577   6.652
 3509WAT      O10768   1.010   7.772   7.048
 3509WAT     H110769   0.960   7.837   6.992
 3509WAT     H210770   1.085   7.731   6.995
 3510WAT      O10771   8.791   8.164   9.855
 3510WAT     H110772   8.695   8.164   9.884
 3510WAT     H210773   8.837   8.246   9.890
 3511WAT      O10774   4.989   1.148   9.416
 3511WAT     H110775   5.065   1.128   9.479
 3511WAT     H210776   5.020   1.213   9.346
 3512WAT      O10777   6.420   0.046   6.893
 3512WAT     H110778   6.502  -0.002   6.862
 3512WAT     H210779   6.365  -0.016   6.950
 3513WAT      O10780   6.698   3.282   2.881
 3513WAT     H110781   6.725   3.265   2.976
 3513WAT     H210782   6.617   3.228   2.859
 3514WAT      O10783   8.932   1.789   8.327
 3514WAT     H110784   8.922   1.864   8.393
 3514WAT     H210785   8.898   1.704   8.368
 3515WAT      O10786   8.442   8.896   5.176
 3515WAT     H110787   8.447   8.827   5.103
 3515WAT     H210788   8.534   8.929   5.197
 3516WAT      O10789   1.625   0.459   8.105
 3516WAT     H110790   1.563   0.418   8.172
 3516WAT     H210791   1.698   0.395   8.083
 3517WAT      O10792   0.331   0.731   3.095
 3517WAT     H110793   0.345   0.682   3.009
 3517WAT     H210794   0.238   0.767   3.099
 3518WAT      O10795   6.163   2.982   3.813
 3518WAT     H110796   6.151   3.025   3.903
 3518WAT     H210797   6.080   2.933   3.788
 3519WAT      O10798   6.137   0.575   4.334
 3519WAT     H110799   6.138   0.576   4.234
 3519WAT     H210800   6.043   0.564   4.366
 3520WAT      O10801   9.332   5.595   3.081
 3520WAT     H110802   9.260   5.555   3.138
 3520WAT     H210803   9.291   5.647   3.006
 3521WAT      O10804   8.913   1.384   1.520
 3521WAT     H110805   9.000   1.432   1.513
 3521WAT     H210806   8.857   1.427   1.590
 3522WAT      O10807   9.594   2.728   5.226
 3522WAT     H110808   9.607   2.827   5.219
 3522WAT     H210809   9.670   2.682   5.181
 3523WAT      O10810   2.995   3.349   1.294
 3523WAT     H110811   3.017   3.387   1.204
 3523WAT     H210812   2.901   3.376   1.319
 3524WAT      O10813   3.525   7.828   5.401
 3524WAT     H110814   3.480   7.831   5.312
 3524WAT     H210815   3.462   7.862   5.471
 3525WAT      O10816   2.092   6.973   0.864
 3525WAT     H110817   2.075   7.005   0.958
 3525WAT     H210818   2.043   6.887   0.849
 3526WAT      O10819   7.481   5.442   7.324
 3526WAT     H110820   7.472   5.531   7.280
 3526WAT     H210821   7.458   5.370   7.259
 3527WAT      O10822   7.520   9.747   3.997
 3527WAT     H110823   7.429   9.788   3.991
 3527WAT     H210824   7.587   9.819   4.015
 3528WAT      O10825   3.847   8.563   1.644
 3528WAT     H110826   3.769   8.572   1.581
 3528WAT     H210827   3.812   8.543   1.736
 3529WAT      O10828   8.778   8.137   6.731
 3529WAT     H110829   8.825   8.214   6.775
 3529WAT     H210830   8.845   8.079   6.684
 3530WAT      O10831   8.047   3.118   5.971
 3530WAT     H110832   7.987   3.157   6.041
 3530WAT     H210833   7.992   3.086   5.894
 3531WAT      O10834   9.728   1.639   9.581
 3531WAT     H110835   9.826   1.658   9.585
 3531WAT     H210836   9.706   1.602   9.490
 3532WAT      O10837   1.357   6.103   8.951
 3532WAT     H110838   1.307   6.076   8.868
 3532WAT     H210839   1.453   6.119   8.927
 3533WAT      O10840   2.123   6.164   1.868
 3533WAT     H110841   2.050   6.100   1.843
 3533WAT     H210842   2.083   6.246   1.908
 3534WAT      O10843   4.839   7.086   8.995
 3534WAT     H110844   4.747   7.123   9.011
 3534WAT     H210845   4.904   7.130   9.056
 3535WAT      O10846   2.771   5.607   9.757
 3535WAT     H110847   2.829   5.648   9.687
 3535WAT     H210848   2.760   5.509   9.738
 3536WAT      O10849   2.956   1.819   2.405
 3536WAT     H110850   2.895   1.819   2.325
 3536WAT     H210851   3.022   1.893   2.395
 3537WAT      O10852   7.519   9.482   8.668
 3537WAT     H110853   7.509   9.540   8.750
 3537WAT     H210854   7.433   9.483   8.617
 3538WAT      O10855   5.824   3.594   0.656
 3538WAT     H110856   5.858   3.624   0.746
 3538WAT     H210857   5.805   3.674   0.600
 3539WAT      O10858   2.528   4.090   5.343
 3539WAT     H110859   2.533   4.183   5.379
 3539WAT     H210860   2.472   4.034   5.403
 3540WAT      O10861   1.592   7.022   8.475
 3540WAT     H110862   1.581   7.114   8.436
 3540WAT     H210863   1.677   7.019   8.528
 3541WAT      O10864   5.063   1.714   1.213
 3541WAT     H110865   5.020   1.627   1.189
 3541WAT     H210866   5.006   1.789   1.179
 3542WAT      O10867   2.959   7.950   8.001
 3542WAT     H110868   2.883   8.008   8.031
 3542WAT     H210869   3.019   8.003   7.941
 3543WAT      O10870   3.233   7.895   3.315
 3543WAT     H110871   3.254   7.831   3.241
 3543WAT     H210872   3.164   7.961   3.284
 3544WAT      O10873   8.061   3.287   0.581
 3544WAT     H110874   8.144   3.257   0.627
 3544WAT     H210875   8.076   3.291   0.482
 3545WAT      O10876   1.631   4.502   0.680
 3545WAT     H110877   1.696   4.481   0.754
 3545WAT     H210878   1.636   4.430   0.611
 3546WAT      O10879   1.664   0.644   0.597
 3546WAT     H110880   1.719   0.576   0.645
 3546WAT     H210881   1.643   0.720   0.659
 3547WAT      O10882   3.651   3.205   7.479
 3547WAT     H110883   3.660   3.129   7.544
 3547WAT     H210884   3.555   3.229   7.469
 3548WAT      O10885   9.317   2.397   2.719
 3548WAT     H110886   9.283   2.453   2.795
 3548WAT     H210887   9.307   2.448   2.633
 3549WAT      O10888   3.658   3.749   1.548
 3549WAT     H110889   3.710   3.681   1.600
 3549WAT     H210890   3.717   3.792   1.481
 3550WAT      O10891   7.683   3.545   1.532
 3550WAT     H110892   7.611   3.477   1.545
 3550WAT     H210893   7.771   3.508   1.562
 3551WAT      O10894   9.438   0.647   3.077
 3551WAT     H110895   9.440   0.547   3.081
 3551WAT     H210896   9.424   0.683   3.169
 3552WAT      O10897   6.121   1.604   8.668
 3552WAT     H110898   6.123   1.652   8.755
 3552WAT     H210899   6.210   1.612   8.623
 3553WAT      O10900   7.994   7.181   4.721
 3553WAT     H110901   7.971   7.156   4.627
 3553WAT     H210902   7.943   7.263   4.747
 3554WAT      O10903   2.093   8.367   3.956
 3554WAT     H110904   2.045   8.283   3.930
 3554WAT     H210905   2.161   8.390   3.886
 3555WAT      O10906   1.620   4.776   0.858
 3555WAT     H110907   1.665   4.766   0.770
 3555WAT     H210908   1.685   4.756   0.931
 3556WAT      O10909   6.865   8.745   7.115
 3556WAT     H110910   6.839   8.839   7.138
 3556WAT     H210911   6.842   8.685   7.191
 3557WAT      O10912   5.438   6.874   9.174
 3557WAT     H110913   5.513   6.935   9.151
 3557WAT     H210914   5.351   6.922   9.163
 3558WAT      O10915   6.052   6.866   8.745
 3558WAT     H110916   6.086   6.908   8.661
 3558WAT     H210917   6.094   6.776   8.757
 3559WAT      O10918   7.942   1.039   1.345
 3559WAT     H110919   7.980   0.948   1.359
 3559WAT     H210920   7.862   1.052   1.404
 3560WAT      O10921   1.814   0.683   0.368
 3560WAT     H110922   1.759   0.704   0.449
 3560WAT     H210923   1.882   0.614   0.390
 3561WAT      O10924   9.705   7.241   6.657
 3561WAT     H110925   9.718   7.207   6.564
 3561WAT     H210926   9.747   7.178   6.722
 3562WAT      O10927   0.617   0.541   3.613
 3562WAT     H110928   0.706   0.551   3.659
 3562WAT     H210929   0.630   0.494   3.526
 3563WAT      O10930   1.058   4.994   6.443
 3563WAT     H110931   0.990   4.949   6.384
 3563WAT     H210932   1.148   4.986   6.401
 3564WAT      O10933   4.394   0.266   1.995
 3564WAT     H110934   4.388   0.261   1.895
 3564WAT     H210935   4.474   0.215   2.026
 3565WAT      O10936   9.098   9.212   0.945
 3565WAT     H110937   9.129   9.307   0.953
 3565WAT     H210938   9.095   9.186   0.849
 3566WAT      O10939   7.179   3.409   9.569
 3566WAT     H110940   7.099   3.404   9.509
 3566WAT     H210941   7.225   3.497   9.555
 3567WAT      O10942   5.482   9.090   9.065
 3567WAT     H110943   5.455   9.065   9.158
 3567WAT     H210944   5.575   9.058   9.047
 3568WAT      O10945   2.855   7.189   4.080
 3568WAT     H110946   2.955   7.188   4.080
 3568WAT     H210947   2.820   7.097   4.096
 3569WAT      O10948   3.788   6.093   2.601
 3569WAT     H110949   3.874   6.050   2.630
 3569WAT     H210950   3.773   6.076   2.504
 3570WAT      O10951   6.572   3.760   9.268
 3570WAT     H110952   6.520   3.793   9.347
 3570WAT     H210953   6.568   3.828   9.195
 3571WAT      O10954   3.072   4.725   7.278
 3571WAT     H110955   3.121   4.714   7.192
 3571WAT     H210956   3.131   4.769   7.346
 3572WAT      O10957   8.024   6.119   5.947
 3572WAT     H110958   8.118   6.139   5.920
 3572WAT     H210959   7.962   6.183   5.901
 3573WAT      O10960   1.455   5.326   9.018
 3573WAT     H110961   1.422   5.254   9.078
 3573WAT     H210962   1.554   5.337   9.029
 3574WAT      O10963   8.963   4.629   3.681
 3574WAT     H110964   8.973   4.556   3.613
 3574WAT     H210965   8.986   4.717   3.639
 3575WAT      O10966   2.120   0.033   7.232
 3575WAT     H110967   2.191   0.098   7.260
 3575WAT     H210968   2.100   0.045   7.135
 3576WAT      O10969   0.767   7.089   8.631
 3576WAT     H110970   0.770   7.154   8.555
 3576WAT     H210971   0.691   7.113   8.692
 3577WAT      O10972   7.559   0.802   4.033
 3577WAT     H110973   7.524   0.751   4.111
 3577WAT     H210974   7.649   0.767   4.008
 3578WAT      O10975   9.286   7.594   1.933
 3578WAT     H110976   9.294   7.632   1.840
 3578WAT     H210977   9.313   7.664   1.999
 3579WAT      O10978   2.485   3.720   4.749
 3579WAT     H110979   2.526   3.749   4.662
 3579WAT     H210980   2.509   3.787   4.820
 3580WAT      O10981   0.616   8.106   4.346
 3580WAT     H110982   0.691   8.166   4.371
 3580WAT     H210983   0.651   8.027   4.297
 3581WAT      O10984   0.945   8.088   4.009
 3581WAT     H110985   0.904   8.029   3.940
 3581WAT     H210986   0.887   8.168   4.024
 3582WAT      O10987   8.807   2.222   6.346
 3582WAT     H110988   8.736   2.292   6.351
 3582WAT     H210989   8.765   2.132   6.336
 3583WAT      O10990   1.136   1.557   1.749
 3583WAT     H110991   1.161   1.618   1.824
 3583WAT     H210992   1.198   1.479   1.747
 3584WAT      O10993   1.658   4.129   4.951
 3584WAT     H110994   1.699   4.195   4.888
 3584WAT     H210995   1.647   4.171   5.041
 3585WAT      O10996   9.865   7.052   3.758
 3585WAT     H110997   9.861   7.135   3.813
 3585WAT     H210998   9.851   6.972   3.817
 3586WAT      O10999   6.453   0.295   6.396
 3586WAT     H111000   6.357   0.265   6.397
 3586WAT     H211001   6.510   0.225   6.437
 3587WAT      O11002   0.028   6.489   8.803
 3587WAT     H111003   0.017   6.486   8.903
 3587WAT     H211004   0.039   6.396   8.768
 3588WAT      O11005   5.493   7.703   3.353
 3588WAT     H111006   5.584   7.693   3.394
 3588WAT     H211007   5.502   7.730   3.257
 3589WAT      O11008   9.621   5.301   8.033
 3589WAT     H111009   9.692   5.263   8.093
 3589WAT     H211010   9.655   5.299   7.938
 3590WAT      O11011   1.611   4.927   6.787
 3590WAT     H111012   1.621   4.859   6.860
 3590WAT     H211013   1.523   4.973   6.795
 3591WAT      O11014   4.317   5.080   5.657
 3591WAT     H111015   4.219   5.083   5.675
 3591WAT     H211016   4.333   5.103   5.561
 3592WAT      O11017   8.127   5.128   4.270
 3592WAT     H111018   8.143   5.087   4.180
 3592WAT     H211019   8.148   5.061   4.341
 3593WAT      O11020   2.583   3.359   2.629
 3593WAT     H111021   2.621   3.319   2.712
 3593WAT     H211022   2.525   3.437   2.652
 3594WAT      O11023   8.805   4.215   9.074
 3594WAT     H111024   8.720   4.198   9.024
 3594WAT     H211025   8.794   4.186   9.169
 3595WAT      O11026   2.490   0.291   6.958
 3595WAT     H111027   2.485   0.192   6.972
 3595WAT     H211028   2.504   0.311   6.861
 3596WAT      O11029   8.696   5.186   2.625
 3596WAT     H111030   8.638   5.255   2.666
 3596WAT     H211031   8.693   5.194   2.526
 3597WAT      O11032   1.006   2.669   5.133
 3597WAT     H111033   1.082   2.652   5.069
 3597WAT     H211034   1.027   2.751   5.187
 3598WAT      O11035   9.453   0.331   5.591
 3598WAT     H111036   9.428   0.246   5.544
 3598WAT     H211037   9.451   0.317   5.690
 3599WAT      O11038   7.313   4.648   7.957
 3599WAT     H111039   7.251   4.572   7.936
 3599WAT     H211040   7.285   4.691   8.042
 3600WAT      O11041   2.191   7.328   6.578
 3600WAT     H111042   2.175   7.255   6.513
 3600WAT     H211043   2.130   7.405   6.559
 3601WAT      O11044   4.677   8.682   4.830
 3601WAT     H111045   4.584   8.646   4.824
 3601WAT     H211046   4.705   8.687   4.926
 3602WAT      O11047   0.557   5.027   4.342
 3602WAT     H111048   0.458   5.019   4.332
 3602WAT     H211049   0.578   5.106   4.400
 3603WAT      O11050   3.824   3.187   5.024
 3603WAT     H111051   3.762   3.221   5.095
 3603WAT     H211052   3.788   3.102   4.987
 3604WAT      O11053   4.397   3.613   2.231
 3604WAT     H111054   4.313   3.656   2.198
 3604WAT     H211055   4.469   3.682   2.241
 3605WAT      O11056   5.447   3.514   4.051
 3605WAT     H111057   5.367   3.455   4.066
 3605WAT     H211058   5.431   3.602   4.094
 3606WAT      O11059   5.102   2.224   6.348
 3606WAT     H111060   5.148   2.191   6.430
 3606WAT     H211061   5.034   2.157   6.318
 3607WAT      O11062   3.478   4.178   8.212
 3607WAT     H111063   3.486   4.270   8.250
 3607WAT     H211064   3.503   4.111   8.282
 3608WAT      O11065   3.427   1.795   7.055
 3608WAT     H111066   3.465   1.793   7.148
 3608WAT     H211067   3.334   1.830   7.058
 3609WAT      O11068   3.672   9.261   1.237
 3609WAT     H111069   3.721   9.259   1.325
 3609WAT     H211070   3.583   9.304   1.250
 3610WAT      O11071   0.665   3.671   3.433
 3610WAT     H111072   0.637   3.675   3.337
 3610WAT     H211073   0.734   3.742   3.451
 3611WAT      O11074   9.807   3.240   3.215
 3611WAT     H111075   9.799   3.188   3.300
 3611WAT     H211076   9.904   3.255   3.195
 3612WAT      O11077   2.701   0.166   2.737
 3612WAT     H111078   2.722   0.257   2.775
 3612WAT     H211079   2.713   0.098   2.809
 3613WAT      O11080   2.078   2.704   6.224
 3613WAT     H111081   2.027   2.789   6.233
 3613WAT     H211082   2.172   2.724   6.194
 3614WAT      O11083   6.170   9.787   2.480
 3614WAT     H111084   6.259   9.816   2.514
 3614WAT     H211085   6.182   9.710   2.416
 3615WAT      O11086   7.642   5.931   9.515
 3615WAT     H111087   7.740   5.912   9.505
 3615WAT     H211088   7.606   5.967   9.429
 3616WAT      O11089   9.534   4.161   4.641
 3616WAT     H111090   9.491   4.116   4.719
 3616WAT     H211091   9.513   4.110   4.558
 3617WAT      O11092   2.735   1.530   4.601
 3617WAT     H111093   2.651   1.482   4.575
 3617WAT     H211094   2.719   1.629   4.598
 3618WAT      O11095   1.249   5.490   5.328
 3618WAT     H111096   1.153   5.460   5.327
 3618WAT     H211097   1.266   5.551   5.250
 3619WAT      O11098   6.774   2.980   5.501
 3619WAT     H111099   6.828   3.043   5.445
 3619WAT     H211100   6.811   2.888   5.492
 3620WAT      O11101   2.516   2.352   9.111
 3620WAT     H111102   2.508   2.353   9.211
 3620WAT     H211103   2.608   2.380   9.085
 3621WAT      O11104   0.395   0.173   7.220
 3621WAT     H111105   0.431   0.097   7.274
 3621WAT     H211106   0.307   0.203   7.258
 3622WAT      O11107   9.010   2.775   7.648
 3622WAT     H111108   9.028   2.679   7.628
 3622WAT     H211109   9.051   2.799   7.735
 3623WAT      O11110   7.594   9.493   4.015
 3623WAT     H111111   7.512   9.438   4.030
 3623WAT     H211112   7.568   9.590   4.012
 3624WAT      O11113   5.526   1.910   1.800
 3624WAT     H111114   5.589   1.847   1.846
 3624WAT     H211115   5.480   1.967   1.868
 3625WAT      O11116   9.724   0.401   3.353
 3625WAT     H111117   9.744   0.496   3.330
 3625WAT     H211118   9.740   0.344   3.272
 3626WAT      O11119   2.622   2.222   7.385
 3626WAT     H111120   2.584   2.294   7.443
 3626WAT     H211121   2.658   2.263   7.301
 3627WAT      O11122   6.980   7.743   1.493
 3627WAT     H111123   6.935   7.686   1.561
 3627WAT     H211124   7.033   7.685   1.431
 3628WAT      O11125   1.161   5.254   7.419
 3628WAT     H111126   1.160   5.193   7.498
 3628WAT     H211127   1.244   5.310   7.420
 3629WAT      O11128   4.884   1.224   3.030
 3629WAT     H111129   4.982   1.229   3.051
 3629WAT     H211130   4.850   1.132   3.052
 3630WAT      O11131   0.334   1.792   5.432
 3630WAT     H111132   0.383   1.853   5.495
 3630WAT     H211133   0.370   1.804   5.340
 3631WAT      O11134   7.821   6.147   2.412
 3631WAT     H111135   7.796   6.089   2.489
 3631WAT     H211136   7.750   6.217   2.399
 3632WAT      O11137   1.062   6.975   8.391
 3632WAT     H111138   1.040   6.878   8.399
 3632WAT     H211139   1.068   7.001   8.295
 3633WAT      O11140   9.066   9.483   2.599
 3633WAT     H111141   9.159   9.510   2.575
 3633WAT     H211142   9.018   9.453   2.517
 3634WAT      O11143   6.879   5.072   2.124
 3634WAT     H111144   6.970   5.092   2.089
 3634WAT     H211145   6.885   5.036   2.217
 3635WAT      O11146   4.549   3.548   1.350
 3635WAT     H111147   4.472   3.611   1.343
 3635WAT     H211148   4.538   3.475   1.283
 3636WAT      O11149   4.540   0.934   4.562
 3636WAT     H111150   4.636   0.915   4.544
 3636WAT     H211151   4.496   0.966   4.478
 3637WAT      O11152   2.987   7.410   7.354
 3637WAT     H111153   2.911   7.344   7.356
 3637WAT     H211154   3.054   7.386   7.423
 3638WAT      O11155   6.277   9.445   6.360
 3638WAT     H111156   6.285   9.472   6.456
 3638WAT     H211157   6.288   9.526   6.302
 3639WAT      O11158   5.180   0.191   3.539
 3639WAT     H111159   5.173   0.105   3.488
 3639WAT     H211160   5.269   0.233   3.520
 3640WAT      O11161   1.994   1.123   6.179
 3640WAT     H111162   1.975   1.119   6.081
 3640WAT     H211163   2.042   1.208   6.200
 3641WAT      O11164   7.737   9.764   2.925
 3641WAT     H111165   7.837   9.759   2.919
 3641WAT     H211166   7.710   9.763   3.021
 3642WAT      O11167   0.505   6.395   9.826
 3642WAT     H111168   0.499   6.483   9.777
 3642WAT     H211169   0.600   6.367   9.832
 3643WAT      O11170   8.963   1.155   9.414
 3643WAT     H111171   8.873   1.117   9.438
 3643WAT     H211172   8.955   1.208   9.329
 3644WAT      O11173   3.113   4.724   7.751
 3644WAT     H111174   3.195   4.722   7.808
 3644WAT     H211175   3.107   4.812   7.704
 3645WAT      O11176   3.336   4.270   9.200
 3645WAT     H111177   3.380   4.305   9.282
 3645WAT     H211178   3.324   4.171   9.208
 3646WAT      O11179   2.791   7.203   8.759
 3646WAT     H111180   2.745   7.235   8.677
 3646WAT     H211181   2.784   7.273   8.830
 3647WAT      O11182   5.677   4.922   0.493
 3647WAT     H111183   5.584   4.916   0.457
 3647WAT     H211184   5.710   5.017   0.486
 3648WAT      O11185   8.615   2.278   8.733
 3648WAT     H111186   8.529   2.289   8.783
 3648WAT     H211187   8.607   2.202   8.669
 3649WAT      O11188   5.029   5.983   3.206
 3649WAT     H111189   5.108   6.004   3.265
 3649WAT     H211190   4.988   6.068   3.174
 3650WAT      O11191   2.665   2.124   1.952
 3650WAT     H111192   2.610   2.173   1.884
 3650WAT     H211193   2.661   2.026   1.935
 3651WAT      O11194   1.986   2.580   0.185
 3651WAT     H111195   2.070   2.628   0.160
 3651WAT     H211196   1.909   2.643   0.180
 3652WAT      O11197   1.822   0.257   8.422
 3652WAT     H111198   1.920   0.244   8.410
 3652WAT     H211199   1.803   0.275   8.519
 3653WAT      O11200   7.983   1.438   4.301
 3653WAT     H111201   7.994   1.383   4.219
 3653WAT     H211202   7.963   1.533   4.276
 3654WAT      O11203   6.389   3.725   5.044
 3654WAT     H111204   6.296   3.761   5.037
 3654WAT     H211205   6.395   3.664   5.123
 3655WAT      O11206   7.861   0.701   7.539
 3655WAT     H111207   7.939   0.714   7.601
 3655WAT     H211208   7.817   0.790   7.523
 3656WAT      O11209   0.040   6.627   5.553
 3656WAT     H111210   0.090   6.692   5.496
 3656WAT     H211211   0.019   6.668   5.641
 3657WAT      O11212   5.540   1.532   4.953
 3657WAT     H111213   5.615   1.554   4.889
 3657WAT     H211214   5.576   1.530   5.046
 3658WAT      O11215   7.719   9.440   8.273
 3658WAT     H111216   7.734   9.453   8.371
 3658WAT     H211217   7.621   9.444   8.254
 3659WAT      O11218   3.289   3.042   4.990
 3659WAT     H111219   3.288   3.023   4.892
 3659WAT     H211220   3.250   2.964   5.039
 3660WAT      O11221   1.937   8.698   5.185
 3660WAT     H111222   2.021   8.652   5.157
 3660WAT     H211223   1.921   8.777   5.126
 3661WAT      O11224   2.731   4.332   2.819
 3661WAT     H111225   2.817   4.378   2.843
 3661WAT     H211226   2.706   4.354   2.725
 3662WAT      O11227   0.707   2.476   6.450
 3662WAT     H111228   0.629   2.460   6.510
 3662WAT     H211229   0.706   2.571   6.418
 3663WAT      O11230   5.585   6.192   7.359
 3663WAT     H111231   5.668   6.245   7.340
 3663WAT     H211232   5.587   6.108   7.305
 3664WAT      O11233   0.463   1.629   2.371
 3664WAT     H111234   0.521   1.607   2.449
 3664WAT     H211235   0.367   1.615   2.395
 3665WAT      O11236   2.945   0.052   7.243
 3665WAT     H111237   2.952   0.050   7.343
 3665WAT     H211238   3.013  -0.010   7.204
 3666WAT      O11239   3.826   2.513   8.301
 3666WAT     H111240   3.925   2.512   8.286
 3666WAT     H211241   3.779   2.526   8.214
 3667WAT      O11242   2.524   0.147   8.470
 3667WAT     H111243   2.557   0.240   8.489
 3667WAT     H211244   2.495   0.141   8.374
 3668WAT      O11245   4.705   2.499   8.232
 3668WAT     H111246   4.676   2.482   8.327
 3668WAT     H211247   4.723   2.411   8.187
 3669WAT      O11248   7.935   9.412   5.973
 3669WAT     H111249   7.854   9.365   6.010
 3669WAT     H211250   8.016   9.356   5.990
 3670WAT      O11251   3.622   2.795   9.392
 3670WAT     H111252   3.567   2.722   9.432
 3670WAT     H211253   3.615   2.792   9.292
 3671WAT      O11254   9.715   5.214   6.533
 3671WAT     H111255   9.706   5.313   6.541
 3671WAT     H211256   9.669   5.183   6.450
 3672WAT      O11257   7.212   3.705   0.611
 3672WAT     H111258   7.298   3.662   0.638
 3672WAT     H211259   7.230   3.796   0.574
 3673WAT      O11260   4.782   1.836   5.268
 3673WAT     H111261   4.825   1.809   5.182
 3673WAT     H211262   4.689   1.799   5.271
 3674WAT      O11263   1.654   9.133   2.305
 3674WAT     H111264   1.591   9.154   2.231
 3674WAT     H211265   1.720   9.207   2.314
 3675WAT      O11266   4.312   7.930   6.762
 3675WAT     H111267   4.229   7.898   6.807
 3675WAT     H211268   4.321   8.029   6.775
 3676WAT      O11269   2.444   2.288   4.228
 3676WAT     H111270   2.513   2.321   4.292
 3676WAT     H211271   2.458   2.331   4.139
 3677WAT      O11272   8.370   5.034   9.003
 3677WAT     H111273   8.370   5.051   9.101
 3677WAT     H211274   8.390   5.119   8.954
 3678WAT      O11275   2.196   2.075   3.546
 3678WAT     H111276   2.160   2.155   3.593
 3678WAT     H211277   2.285   2.051   3.584
 3679WAT      O11278   4.796   3.986   2.538
 3679WAT     H111279   4.702   4.017   2.548
 3679WAT     H211280   4.852   4.061   2.503
 3680WAT      O11281   4.420   5.056   3.412
 3680WAT     H111282   4.382   5.129   3.470
 3680WAT     H211283   4.398   4.967   3.452
 3681WAT      O11284   7.991   3.934   4.698
 3681WAT     H111285   7.940   3.951   4.782
 3681WAT     H211286   8.066   3.870   4.716
 3682WAT      O11287   7.722   8.378   1.663
 3682WAT     H111288   7.728   8.477   1.649
 3682WAT     H211289   7.813   8.342   1.685
 3683WAT      O11290   8.313   2.324   6.707
 3683WAT     H111291   8.248   2.365   6.770
 3683WAT     H211292   8.405   2.331   6.746
 3684WAT      O11293   2.139   3.296   1.582
 3684WAT     H111294   2.167   3.377   1.634
 3684WAT     H211295   2.075   3.323   1.510
 3685WAT      O11296   1.450   3.811   8.577
 3685WAT     H111297   1.524   3.824   8.643
 3685WAT     H211298   1.368   3.779   8.625
 3686WAT      O11299   1.897   4.201   6.314
 3686WAT     H111300   1.810   4.161   6.341
 3686WAT     H211301   1.952   4.132   6.267
 3687WAT      O11302   0.597   8.798   6.824
 3687WAT     H111303   0.574   8.874   6.762
 3687WAT     H211304   0.693   8.803   6.848
 3688WAT      O11305   1.753   4.873   6.261
 3688WAT     H111306   1.831   4.935   6.255
 3688WAT     H211307   1.742   4.842   6.356
 3689WAT      O11308   8.358   9.517   0.742
 3689WAT     H111309   8.429   9.515   0.672
 3689WAT     H211310   8.349   9.427   0.784
 3690WAT      O11311   5.560   6.252   9.149
 3690WAT     H111312   5.617   6.223   9.073
 3690WAT     H211313   5.482   6.189   9.159
 3691WAT      O11314   4.985   6.136   1.586
 3691WAT     H111315   4.899   6.174   1.620
 3691WAT     H211316   5.019   6.068   1.652
 3692WAT      O11317   5.717   2.806   5.455
 3692WAT     H111318   5.757   2.760   5.534
 3692WAT     H211319   5.668   2.888   5.486
 3693WAT      O11320   0.483   3.233   9.145
 3693WAT     H111321   0.452   3.221   9.051
 3693WAT     H211322   0.456   3.324   9.178
 3694WAT      O11323   8.404   9.708   2.043
 3694WAT     H111324   8.421   9.711   1.944
 3694WAT     H211325   8.305   9.705   2.059
 3695WAT      O11326   5.879   5.831   1.493
 3695WAT     H111327   5.968   5.785   1.490
 3695WAT     H211328   5.809   5.766   1.522
 3696WAT      O11329   5.218   0.154   8.763
 3696WAT     H111330   5.205   0.212   8.843
 3696WAT     H211331   5.189   0.061   8.784
 3697WAT      O11332   6.560   8.224   6.299
 3697WAT     H111333   6.581   8.316   6.267
 3697WAT     H211334   6.634   8.191   6.357
 3698WAT      O11335   2.745   4.102   7.426
 3698WAT     H111336   2.844   4.116   7.415
 3698WAT     H211337   2.712   4.039   7.356
 3699WAT      O11338   7.116   8.589   8.441
 3699WAT     H111339   7.087   8.678   8.475
 3699WAT     H211340   7.146   8.598   8.346
 3700WAT      O11341   0.778   3.177   5.287
 3700WAT     H111342   0.828   3.233   5.221
 3700WAT     H211343   0.727   3.106   5.238
 3701WAT      O11344   5.272   4.598   0.949
 3701WAT     H111345   5.305   4.533   0.882
 3701WAT     H211346   5.272   4.690   0.909
 3702WAT      O11347   7.486   3.369   1.594
 3702WAT     H111348   7.513   3.335   1.684
 3702WAT     H211349   7.392   3.342   1.575
 3703WAT      O11350   5.583   0.948   1.491
 3703WAT     H111351   5.605   0.946   1.394
 3703WAT     H211352   5.609   1.037   1.529
 3704WAT      O11353   3.943   6.182   7.604
 3704WAT     H111354   3.992   6.230   7.532
 3704WAT     H211355   3.850   6.217   7.612
 3705WAT      O11356   8.561   2.924   3.883
 3705WAT     H111357   8.629   2.855   3.909
 3705WAT     H211358   8.607   3.003   3.843
 3706WAT      O11359   3.837   7.035   2.871
 3706WAT     H111360   3.813   7.040   2.968
 3706WAT     H211361   3.779   6.969   2.825
 3707WAT      O11362   9.247   6.531   2.139
 3707WAT     H111363   9.272   6.457   2.077
 3707WAT     H211364   9.158   6.567   2.114
 3708WAT      O11365   2.473   2.403   3.982
 3708WAT     H111366   2.427   2.409   3.893
 3708WAT     H211367   2.528   2.486   3.996
 3709WAT      O11368   1.064   2.678   7.117
 3709WAT     H111369   0.992   2.661   7.050
 3709WAT     H211370   1.117   2.758   7.090
 3710WAT      O11371   0.686   4.269   6.568
 3710WAT     H111372   0.739   4.290   6.485
 3710WAT     H211373   0.590   4.255   6.544
 3711WAT      O11374   3.418   4.605   5.589
 3711WAT     H111375   3.506   4.559   5.605
 3711WAT     H211376   3.358   4.590   5.667
 3712WAT      O11377   6.519   1.641   0.458
 3712WAT     H111378   6.466   1.717   0.495
 3712WAT     H211379   6.604   1.676   0.419
 3713WAT      O11380   8.051   1.027   7.728
 3713WAT     H111381   7.960   1.038   7.767
 3713WAT     H211382   8.118   1.075   7.786
 3714WAT      O11383   8.793   0.036   1.748
 3714WAT     H111384   8.697   0.009   1.741
 3714WAT     H211385   8.820   0.040   1.844
 3715WAT      O11386   2.330   3.066   4.077
 3715WAT     H111387   2.300   3.146   4.024
 3715WAT     H211388   2.430   3.067   4.084
 3716WAT      O11389   9.398   1.558   2.054
 3716WAT     H111390   9.326   1.609   2.100
 3716WAT     H211391   9.366   1.465   2.033
 3717WAT      O11392   3.263   9.297   6.771
 3717WAT     H111393   3.236   9.205   6.743
 3717WAT     H211394   3.348   9.292   6.824
 3718WAT      O11395   0.062   0.668   2.125
 3718WAT     H111396   0.130   0.640   2.058
 3718WAT     H211397  -0.003   0.731   2.083
 3719WAT      O11398   3.786   5.731   7.619
 3719WAT     H111399   3.848   5.810   7.621
 3719WAT     H211400   3.807   5.676   7.538
 3720WAT      O11401   5.127   2.521   9.563
 3720WAT     H111402   5.142   2.619   9.549
 3720WAT     H211403   5.041   2.494   9.521
 3721WAT      O11404   2.574   9.722   8.955
 3721WAT     H111405   2.519   9.701   9.036
 3721WAT     H211406   2.516   9.765   8.885
 3722WAT      O11407   2.296   3.632   6.619
 3722WAT     H111408   2.378   3.674   6.658
 3722WAT     H211409   2.286   3.539   6.654
 3723WAT      O11410   9.844   3.849   9.574
 3723WAT     H111411   9.913   3.841   9.646
 3723WAT     H211412   9.863   3.931   9.519
 3724WAT      O11413   4.706   2.687   4.048
 3724WAT     H111414   4.676   2.646   3.962
 3724WAT     H211415   4.685   2.785   4.047
 3725WAT      O11416   5.943   2.703   3.899
 3725WAT     H111417   6.037   2.683   3.927
 3725WAT     H211418   5.890   2.733   3.978
 3726WAT      O11419   4.235   4.953   4.626
 3726WAT     H111420   4.189   4.883   4.572
 3726WAT     H211421   4.209   5.043   4.593
 3727WAT      O11422   9.296   9.720   6.380
 3727WAT     H111423   9.222   9.731   6.314
 3727WAT     H211424   9.259   9.731   6.473
 3728WAT      O11425   2.358   5.585   2.424
 3728WAT     H111426   2.441   5.637   2.405
 3728WAT     H211427   2.325   5.606   2.516
 3729WAT      O11428   5.226   2.989   8.405
 3729WAT     H111429   5.131   2.960   8.413
 3729WAT     H211430   5.235   3.083   8.439
 3730WAT      O11431   2.077   5.840   5.421
 3730WAT     H111432   2.142   5.863   5.348
 3730WAT     H211433   2.121   5.779   5.487
 3731WAT      O11434   0.005   0.131   7.499
 3731WAT     H111435   0.077   0.090   7.555
 3731WAT     H211436  -0.026   0.216   7.541
 3732WAT      O11437   7.520   2.293   4.172
 3732WAT     H111438   7.589   2.365   4.162
 3732WAT     H211439   7.510   2.244   4.086
 3733WAT      O11440   5.419   3.078   0.005
 3733WAT     H111441   5.350   3.071  -0.066
 3733WAT     H211442   5.377   3.108   0.090
 3734WAT      O11443   9.434   7.899   2.433
 3734WAT     H111444   9.384   7.869   2.351
 3734WAT     H211445   9.521   7.850   2.439
 3735WAT      O11446   4.694   5.766   5.816
 3735WAT     H111447   4.763   5.791   5.748
 3735WAT     H211448   4.649   5.848   5.849
 3736WAT      O11449   8.354   1.561   5.455
 3736WAT     H111450   8.389   1.522   5.370
 3736WAT     H211451   8.255   1.545   5.461
 3737WAT      O11452   4.799   7.932   6.628
 3737WAT     H111453   4.858   7.927   6.708
 3737WAT     H211454   4.704   7.927   6.656
 3738WAT      O11455   1.381   8.163   2.779
 3738WAT     H111456   1.288   8.188   2.752
 3738WAT     H211457   1.444   8.183   2.704
 3739WAT      O11458   7.354   4.004   1.196
 3739WAT     H111459   7.255   4.002   1.180
 3739WAT     H211460   7.380   3.928   1.254
 3740WAT      O11461   2.965   8.584   8.862
 3740WAT     H111462   2.992   8.680   8.866
 3740WAT     H211463   2.915   8.566   8.777
 3741WAT      O11464   0.989   1.831   6.077
 3741WAT     H111465   1.087   1.830   6.094
 3741WAT     H211466   0.940   1.798   6.158
 3742WAT      O11467   2.802   5.997   2.705
 3742WAT     H111468   2.752   6.031   2.784
 3742WAT     H211469   2.828   5.902   2.719
 3743WAT      O11470   2.956   1.741   5.137
 3743WAT     H111471   2.926   1.717   5.230
 3743WAT     H211472   2.905   1.821   5.106
 3744WAT      O11473   5.619   0.855   7.744
 3744WAT     H111474   5.673   0.929   7.785
 3744WAT     H211475   5.610   0.780   7.809
 3745WAT      O11476   4.742   8.708   3.332
 3745WAT     H111477   4.770   8.779   3.396
 3745WAT     H211478   4.652   8.672   3.358
 3746WAT      O11479   7.548   5.234   5.835
 3746WAT     H111480   7.580   5.179   5.913
 3746WAT     H211481   7.627   5.267   5.784
 3747WAT      O11482   1.607   1.976   6.870
 3747WAT     H111483   1.621   1.949   6.774
 3747WAT     H211484   1.614   2.075   6.877
 3748WAT      O11485   6.385   5.121   1.381
 3748WAT     H111486   6.364   5.073   1.296
 3748WAT     H211487   6.393   5.055   1.455
 3749WAT      O11488   3.019   5.305   4.314
 3749WAT     H111489   2.923   5.276   4.312
 3749WAT     H211490   3.045   5.338   4.223
 3750WAT      O11491   0.466   3.556   6.699
 3750WAT     H111492   0.397   3.617   6.738
 3750WAT     H211493   0.467   3.470   6.750
 3751WAT      O11494   2.233   5.013   0.357
 3751WAT     H111495   2.294   5.058   0.421
 3751WAT     H211496   2.267   4.922   0.336
 3752WAT      O11497   3.328   3.207   5.255
 3752WAT     H111498   3.309   3.138   5.185
 3752WAT     H211499   3.426   3.205   5.277
 3753WAT      O11500   1.709   9.536   6.536
 3753WAT     H111501   1.808   9.536   6.547
 3753WAT     H211502   1.668   9.471   6.600
 3754WAT      O11503   9.184   7.058   3.618
 3754WAT     H111504   9.217   7.015   3.702
 3754WAT     H211505   9.172   6.989   3.548
 3755WAT      O11506   3.367   4.247   7.517
 3755WAT     H111507   3.273   4.254   7.484
 3755WAT     H211508   3.395   4.335   7.555
 3756WAT      O11509   7.220   8.876   9.772
 3756WAT     H111510   7.302   8.825   9.747
 3756WAT     H211511   7.146   8.853   9.709
 3757WAT      O11512   3.704   4.807   3.058
 3757WAT     H111513   3.794   4.817   3.100
 3757WAT     H211514   3.715   4.790   2.960
 3758WAT      O11515   3.673   7.406   6.083
 3758WAT     H111516   3.670   7.413   6.183
 3758WAT     H211517   3.601   7.464   6.044
 3759WAT      O11518   8.403   9.600   6.984
 3759WAT     H111519   8.466   9.606   7.061
 3759WAT     H211520   8.454   9.606   6.898
 3760WAT      O11521   1.550   0.347   3.283
 3760WAT     H111522   1.552   0.379   3.377
 3760WAT     H211523   1.581   0.252   3.278
 3761WAT      O11524   1.634   1.162   5.134
 3761WAT     H111525   1.715   1.162   5.074
 3761WAT     H211526   1.648   1.226   5.209
 3762WAT      O11527   6.575   9.609   0.101
 3762WAT     H111528   6.641   9.684   0.113
 3762WAT     H211529   6.622   9.522   0.111
 3763WAT      O11530   8.561   9.651   9.030
 3763WAT     H111531   8.578   9.723   8.963
 3763WAT     H211532   8.580   9.561   8.989
 3764WAT      O11533   9.708   1.141   0.449
 3764WAT     H111534   9.729   1.075   0.377
 3764WAT     H211535   9.644   1.210   0.414
 3765WAT      O11536   5.730   7.967   2.079
 3765WAT     H111537   5.764   7.947   2.170
 3765WAT     H211538   5.775   8.049   2.043
 3766WAT      O11539   3.047   2.435   0.434
 3766WAT     H111540   3.088   2.393   0.515
 3766WAT     H211541   2.948   2.438   0.444
 3767WAT      O11542  -0.002   0.113   3.363
 3767WAT     H111543  -0.009   0.113   3.463
 3767WAT     H211544   0.060   0.185   3.334
 3768WAT      O11545   2.789   4.922   3.928
 3768WAT     H111546   2.818   5.008   3.970
 3768WAT     H211547   2.736   4.941   3.845
 3769WAT      O11548   5.957   3.984   7.231
 3769WAT     H111549   6.004   3.997   7.144
 3769WAT     H211550   5.860   3.963   7.213
 3770WAT      O11551   7.031   3.093   3.565
 3770WAT     H111552   7.057   3.181   3.527
 3770WAT     H211553   7.113   3.038   3.580
 3771WAT      O11554   7.349   4.557   9.176
 3771WAT     H111555   7.363   4.622   9.100
 3771WAT     H211556   7.336   4.608   9.261
 3772WAT      O11557   6.767   0.484   1.010
 3772WAT     H111558   6.703   0.452   1.079
 3772WAT     H211559   6.717   0.515   0.929
 3773WAT      O11560   6.004   5.891   5.745
 3773WAT     H111561   6.017   5.947   5.663
 3773WAT     H211562   5.917   5.915   5.788
 3774WAT      O11563   0.331   6.180   2.763
 3774WAT     H111564   0.410   6.233   2.732
 3774WAT     H211565   0.286   6.139   2.685
 3775WAT      O11566   5.435   3.644   8.459
 3775WAT     H111567   5.501   3.574   8.483
 3775WAT     H211568   5.362   3.604   8.403
 3776WAT      O11569   8.229   1.102   6.718
 3776WAT     H111570   8.329   1.108   6.715
 3776WAT     H211571   8.198   1.121   6.811
 3777WAT      O11572   9.849   7.465   9.543
 3777WAT     H111573   9.935   7.512   9.524
 3777WAT     H211574   9.868   7.368   9.563
 3778WAT      O11575   2.361   0.866   2.980
 3778WAT     H111576   2.310   0.832   2.901
 3778WAT     H211577   2.443   0.810   2.994
 3779WAT      O11578   1.283   7.392   4.702
 3779WAT     H111579   1.270   7.466   4.636
 3779WAT     H211580   1.197   7.343   4.714
 3780WAT      O11581   2.188   3.860   6.832
 3780WAT     H111582   2.207   3.949   6.790
 3780WAT     H211583   2.123   3.809   6.775
 3781WAT      O11584   6.710   0.549   9.389
 3781WAT     H111585   6.701   0.593   9.299
 3781WAT     H211586   6.702   0.450   9.379
 3782WAT      O11587   8.201   5.100   7.809
 3782WAT     H111588   8.300   5.099   7.815
 3782WAT     H211589   8.173   5.099   7.713
 3783WAT      O11590   9.568   5.908   3.098
 3783WAT     H111591   9.598   5.911   3.003
 3783WAT     H211592   9.472   5.937   3.104
 3784WAT      O11593   1.908   0.422   5.109
 3784WAT     H111594   2.006   0.442   5.107
 3784WAT     H211595   1.880   0.403   5.203
 3785WAT      O11596   9.494   2.963   8.068
 3785WAT     H111597   9.451   2.977   7.979
 3785WAT     H211598   9.433   2.912   8.128
 3786WAT      O11599   0.561   5.268   3.324
 3786WAT     H111600   0.569   5.190   3.387
 3786WAT     H211601   0.646   5.320   3.325
 3787WAT      O11602   7.377   0.020   3.257
 3787WAT     H111603   7.391  -0.079   3.257
 3787WAT     H211604   7.343   0.049   3.346
 3788WAT      O11605   4.120   1.451   1.232
 3788WAT     H111606   4.210   1.428   1.268
 3788WAT     H211607   4.050   1.402   1.284
 3789WAT      O11608   8.095   1.917   2.789
 3789WAT     H111609   8.130   1.835   2.744
 3789WAT     H211610   8.057   1.893   2.878
 3790WAT      O11611   0.495   5.746   0.750
 3790WAT     H111612   0.508   5.830   0.803
 3790WAT     H211613   0.491   5.768   0.652
 3791WAT      O11614   6.938   0.772   9.753
 3791WAT     H111615   6.991   0.698   9.795
 3791WAT     H211616   6.840   0.757   9.772
 3792WAT      O11617   2.705   5.401   8.545
 3792WAT     H111618   2.748   5.449   8.468
 3792WAT     H211619   2.738   5.307   8.549
 3793WAT      O11620   2.288   6.812   7.419
 3793WAT     H111621   2.201   6.776   7.387
 3793WAT     H211622   2.313   6.768   7.506
 3794WAT      O11623   2.398   4.438   4.616
 3794WAT     H111624   2.415   4.517   4.558
 3794WAT     H211625   2.412   4.463   4.712
 3795WAT      O11626   1.919   6.269   1.611
 3795WAT     H111627   1.822   6.287   1.625
 3795WAT     H211628   1.953   6.210   1.684
 3796WAT      O11629   9.796   5.336   2.387
 3796WAT     H111630   9.850   5.420   2.385
 3796WAT     H211631   9.855   5.259   2.409
 3797WAT      O11632   4.554   2.786   9.453
 3797WAT     H111633   4.463   2.780   9.412
 3797WAT     H211634   4.545   2.810   9.550
 3798WAT      O11635   1.369   1.672   2.939
 3798WAT     H111636   1.466   1.690   2.951
 3798WAT     H211637   1.335   1.723   2.860
 3799WAT      O11638   4.928   3.289   2.335
 3799WAT     H111639   4.910   3.293   2.433
 3799WAT     H211640   4.959   3.197   2.310
 3800WAT      O11641   1.379   4.149   4.905
 3800WAT     H111642   1.476   4.172   4.912
 3800WAT     H211643   1.329   4.197   4.977
 3801WAT      O11644   8.717   3.678   3.689
 3801WAT     H111645   8.722   3.720   3.598
 3801WAT     H211646   8.626   3.638   3.702
 3802WAT      O11647   1.069   1.328   9.037
 3802WAT     H111648   1.129   1.400   9.002
 3802WAT     H211649   1.084   1.244   8.984
 3803WAT      O11650   0.282   4.677   5.671
 3803WAT     H111651   0.208   4.732   5.633
 3803WAT     H211652   0.370   4.722   5.652
 3804WAT      O11653   2.473   1.841   1.695
 3804WAT     H111654   2.547   1.841   1.762
 3804WAT     H211655   2.431   1.751   1.692
 3805WAT      O11656   7.838   0.377   3.575
 3805WAT     H111657   7.930   0.346   3.552
 3805WAT     H211658   7.776   0.359   3.498
 3806WAT      O11659   2.164   4.885   9.417
 3806WAT     H111660   2.135   4.917   9.507
 3806WAT     H211661   2.255   4.843   9.424
 3807WAT      O11662   2.140   3.440   4.531
 3807WAT     H111663   2.176   3.525   4.570
 3807WAT     H211664   2.119   3.376   4.605
 3808WAT      O11665   3.989   9.077   9.129
 3808WAT     H111666   3.926   9.127   9.070
 3808WAT     H211667   4.062   9.140   9.158
 3809WAT      O11668   7.339   5.532   4.112
 3809WAT     H111669   7.326   5.620   4.158
 3809WAT     H211670   7.399   5.474   4.166
 3810WAT      O11671   0.274   1.399   0.444
 3810WAT     H111672   0.243   1.460   0.371
 3810WAT     H211673   0.194   1.362   0.493
 3811WAT      O11674   4.121   2.805   4.052
 3811WAT     H111675   4.104   2.792   4.150
 3811WAT     H211676   4.034   2.803   4.003
 3812WAT      O11677   6.558   5.974   3.845
 3812WAT     H111678   6.569   6.071   3.821
 3812WAT     H211679   6.648   5.931   3.846
 3813WAT      O11680   4.926   1.907   0.363
 3813WAT     H111681   5.005   1.966   0.383
 3813WAT     H211682   4.895   1.863   0.448
 3814WAT      O11683   9.210   6.878   1.852
 3814WAT     H111684   9.255   6.797   1.816
 3814WAT     H211685   9.151   6.853   1.929
 3815WAT      O11686   2.525   5.224   7.722
 3815WAT     H111687   2.428   5.242   7.707
 3815WAT     H211688   2.558   5.281   7.797
 3816WAT      O11689   4.087   6.921   2.842
 3816WAT     H111690   3.988   6.919   2.829
 3816WAT     H211691   4.108   6.907   2.939
 3817WAT      O11692   9.816   7.936   9.142
 3817WAT     H111693   9.878   8.013   9.131
 3817WAT     H211694   9.756   7.928   9.062
 3818WAT      O11695   8.559   2.400   6.071
 3818WAT     H111696   8.578   2.386   6.168
 3818WAT     H211697   8.635   2.449   6.029
 3819WAT      O11698   1.962   5.097   7.702
 3819WAT     H111699   1.969   5.095   7.801
 3819WAT     H211700   1.964   5.004   7.666
 3820WAT      O11701   0.180   9.743   4.861
 3820WAT     H111702   0.261   9.796   4.838
 3820WAT     H211703   0.121   9.735   4.780
 3821WAT      O11704   5.609   8.639   7.800
 3821WAT     H111705   5.650   8.722   7.835
 3821WAT     H211706   5.566   8.588   7.874
 3822WAT      O11707   2.397   8.438   1.429
 3822WAT     H111708   2.299   8.443   1.451
 3822WAT     H211709   2.438   8.529   1.439
 3823WAT      O11710   5.306   7.563   8.918
 3823WAT     H111711   5.363   7.550   8.837
 3823WAT     H211712   5.299   7.660   8.939
 3824WAT      O11713   8.497   5.362   5.108
 3824WAT     H111714   8.403   5.378   5.137
 3824WAT     H211715   8.532   5.280   5.152
 3825WAT      O11716   1.637   7.533   9.549
 3825WAT     H111717   1.677   7.569   9.633
 3825WAT     H211718   1.594   7.607   9.497
 3826WAT      O11719   3.732   5.208   6.206
 3826WAT     H111720   3.803   5.192   6.137
 3826WAT     H211721   3.692   5.120   6.232
 3827WAT      O11722   7.339   7.471   4.760
 3827WAT     H111723   7.414   7.536   4.748
 3827WAT     H211724   7.343   7.403   4.687
 3828WAT      O11725   6.618   1.089   1.133
 3828WAT     H111726   6.675   1.171   1.137
 3828WAT     H211727   6.553   1.089   1.208
 3829WAT      O11728   8.796   1.374   3.725
 3829WAT     H111729   8.842   1.321   3.796
 3829WAT     H211730   8.849   1.371   3.641
 3830WAT      O11731   9.845   0.083   6.031
 3830WAT     H111732   9.907   0.125   5.965
 3830WAT     H211733   9.851   0.131   6.119
 3831WAT      O11734   6.268   9.631   9.570
 3831WAT     H111735   6.313   9.632   9.659
 3831WAT     H211736   6.228   9.540   9.554
 3832WAT      O11737   7.443   1.237   3.902
 3832WAT     H111738   7.374   1.279   3.960
 3832WAT     H211739   7.480   1.306   3.839
 3833WAT      O11740   7.591   8.643   5.333
 3833WAT     H111741   7.507   8.694   5.347
 3833WAT     H211742   7.660   8.702   5.290
 3834WAT      O11743   5.259   8.574   0.606
 3834WAT     H111744   5.345   8.529   0.581
 3834WAT     H211745   5.273   8.673   0.605
 3835WAT      O11746   7.433   8.396   9.342
 3835WAT     H111747   7.518   8.413   9.292
 3835WAT     H211748   7.449   8.328   9.413
 3836WAT      O11749   3.658   9.403   1.576
 3836WAT     H111750   3.749   9.364   1.585
 3836WAT     H211751   3.653   9.489   1.628
 3837WAT      O11752   7.103   5.199   3.050
 3837WAT     H111753   7.178   5.263   3.065
 3837WAT     H211754   7.040   5.237   2.982
 3838WAT      O11755   1.947   3.043   3.422
 3838WAT     H111756   1.961   2.979   3.347
 3838WAT     H211757   1.849   3.059   3.434
 3839WAT      O11758   1.367   8.378   1.264
 3839WAT     H111759   1.288   8.320   1.245
 3839WAT     H211760   1.447   8.343   1.215
 3840WAT      O11761   8.482   5.189   8.397
 3840WAT     H111762   8.417   5.163   8.326
 3840WAT     H211763   8.437   5.248   8.464
 3841WAT      O11764   6.029   9.417   8.712
 3841WAT     H111765   6.124   9.388   8.710
 3841WAT     H211766   5.970   9.337   8.725
 3842WAT      O11767   0.662   0.067   4.161
 3842WAT     H111768   0.636   0.009   4.238
 3842WAT     H211769   0.759   0.090   4.167
 3843WAT      O11770   1.877   9.390   2.524
 3843WAT     H111771   1.898   9.408   2.428
 3843WAT     H211772   1.894   9.294   2.545
 3844WAT      O11773   2.549   0.003   2.519
 3844WAT     H111774   2.584   0.039   2.606
 3844WAT     H211775   2.624  -0.006   2.454
 3845WAT      O11776   8.042   6.943   6.525
 3845WAT     H111777   8.028   6.874   6.454
 3845WAT     H211778   8.098   6.904   6.598
 3846WAT      O11779   2.512   0.467   9.507
 3846WAT     H111780   2.607   0.480   9.478
 3846WAT     H211781   2.456   0.439   9.429
 3847WAT      O11782   3.979   7.563   8.779
 3847WAT     H111783   3.966   7.465   8.761
 3847WAT     H211784   3.911   7.594   8.845
 3848WAT      O11785   0.546   1.490   1.423
 3848WAT     H111786   0.488   1.571   1.427
 3848WAT     H211787   0.539   1.448   1.333
 3849WAT      O11788   2.498   7.100   4.036
 3849WAT     H111789   2.457   7.054   4.115
 3849WAT     H211790   2.431   7.107   3.962
 3850WAT      O11791   8.243   1.248   5.546
 3850WAT     H111792   8.223   1.202   5.632
 3850WAT     H211793   8.248   1.180   5.472
 3851WAT      O11794   7.682   3.479   4.957
 3851WAT     H111795   7.609   3.478   4.888
 3851WAT     H211796   7.713   3.386   4.975
 3852WAT      O11797   5.927   4.375   6.997
 3852WAT     H111798   6.024   4.389   6.976
 3852WAT     H211799   5.915   4.371   7.096
 3853WAT      O11800   0.377   1.718   1.466
 3853WAT     H111801   0.393   1.680   1.557
 3853WAT     H211802   0.281   1.744   1.458
 3854WAT      O11803   4.985   5.100   2.702
 3854WAT     H111804   4.986   5.006   2.667
 3854WAT     H211805   4.967   5.100   2.800
 3855WAT      O11806   1.349   0.148   1.877
 3855WAT     H111807   1.286   0.077   1.907
 3855WAT     H211808   1.298   0.232   1.858
 3856WAT      O11809   1.482   2.296   9.164
 3856WAT     H111810   1.559   2.253   9.117
 3856WAT     H211811   1.438   2.361   9.103
 3857WAT      O11812   3.015   5.732   4.246
 3857WAT     H111813   2.945   5.766   4.183
 3857WAT     H211814   3.085   5.801   4.259
 3858WAT      O11815   1.213   3.224   6.679
 3858WAT     H111816   1.281   3.293   6.655
 3858WAT     H211817   1.185   3.174   6.597
 3859WAT      O11818   2.989   3.263   5.019
 3859WAT     H111819   3.038   3.242   4.934
 3859WAT     H211820   2.965   3.360   5.021
 3860WAT      O11821   7.794   6.073   0.183
 3860WAT     H111822   7.858   6.114   0.248
 3860WAT     H211823   7.701   6.077   0.221
 3861WAT      O11824   0.438   4.957   7.851
 3861WAT     H111825   0.489   4.954   7.765
 3861WAT     H211826   0.406   5.051   7.868
 3862WAT      O11827   0.931   0.499   4.085
 3862WAT     H111828   0.859   0.558   4.049
 3862WAT     H211829   0.916   0.405   4.055
 3863WAT      O11830   3.658   0.721   0.599
 3863WAT     H111831   3.660   0.640   0.541
 3863WAT     H211832   3.619   0.698   0.688
 3864WAT      O11833   5.076   2.232   9.600
 3864WAT     H111834   5.076   2.330   9.579
 3864WAT     H211835   5.153   2.188   9.554
 3865WAT      O11836   2.874   6.663   7.587
 3865WAT     H111837   2.835   6.666   7.495
 3865WAT     H211838   2.872   6.754   7.627
 3866WAT      O11839   1.158   0.858   8.959
 3866WAT     H111840   1.083   0.869   9.024
 3866WAT     H211841   1.133   0.787   8.893
 3867WAT      O11842   0.213   5.491   4.078
 3867WAT     H111843   0.184   5.587   4.076
 3867WAT     H211844   0.166   5.440   4.005
 3868WAT      O11845   9.671   1.852   8.761
 3868WAT     H111846   9.592   1.913   8.758
 3868WAT     H211847   9.698   1.836   8.856
 3869WAT      O11848   0.476   1.039   2.484
 3869WAT     H111849   0.519   1.070   2.569
 3869WAT     H211850   0.443   1.118   2.433
 3870WAT      O11851   3.240   8.224   3.711
 3870WAT     H111852   3.154   8.183   3.681
 3870WAT     H211853   3.222   8.317   3.744
 3871WAT      O11854   0.183   2.454   3.190
 3871WAT     H111855   0.211   2.527   3.126
 3871WAT     H211856   0.124   2.389   3.141
 3872WAT      O11857   7.868   6.742   8.172
 3872WAT     H111858   7.866   6.664   8.234
 3872WAT     H211859   7.906   6.714   8.084
 3873WAT      O11860   3.489   9.666   2.094
 3873WAT     H111861   3.520   9.753   2.132
 3873WAT     H211862   3.463   9.604   2.168
 3874WAT      O11863   6.122   2.396   9.109
 3874WAT     H111864   6.146   2.478   9.058
 3874WAT     H211865   6.090   2.422   9.200
 3875WAT      O11866   0.531   1.218   3.841
 3875WAT     H111867   0.511   1.306   3.797
 3875WAT     H211868   0.485   1.145   3.790
 3876WAT      O11869   2.196   8.168   2.747
 3876WAT     H111870   2.173   8.190   2.652
 3876WAT     H211871   2.179   8.071   2.764
 3877WAT      O11872   0.435   8.718   4.508
 3877WAT     H111873   0.505   8.776   4.467
 3877WAT     H211874   0.388   8.667   4.436
 3878WAT      O11875   8.312   8.497   5.706
 3878WAT     H111876   8.312   8.563   5.631
 3878WAT     H211877   8.292   8.544   5.792
 3879WAT      O11878   8.916   0.651   6.354
 3879WAT     H111879   8.876   0.707   6.425
 3879WAT     H211880   9.015   0.647   6.365
 3880WAT      O11881   9.006   8.184   0.807
 3880WAT     H111882   8.939   8.124   0.764
 3880WAT     H211883   9.098   8.152   0.785
 3881WAT      O11884   2.307   0.351   5.231
 3881WAT     H111885   2.215   0.340   5.269
 3881WAT     H211886   2.367   0.280   5.268
 3882WAT      O11887   2.225   0.016   6.935
 3882WAT     H111888   2.181  -0.053   6.878
 3882WAT     H211889   2.251   0.094   6.878
 3883WAT      O11890   4.542   7.819   6.636
 3883WAT     H111891   4.527   7.795   6.540
 3883WAT     H211892   4.467   7.876   6.669
 3884WAT      O11893   2.332   0.498   2.665
 3884WAT     H111894   2.399   0.504   2.591
 3884WAT     H211895   2.251   0.449   2.631
 3885WAT      O11896   7.617   4.209   3.349
 3885WAT     H111897   7.543   4.264   3.386
 3885WAT     H211898   7.690   4.269   3.315
 3886WAT      O11899   6.508   3.481   6.001
 3886WAT     H111900   6.607   3.469   5.998
 3886WAT     H211901   6.474   3.450   6.090
 3887WAT      O11902   9.553   7.877   1.519
 3887WAT     H111903   9.642   7.852   1.557
 3887WAT     H211904   9.553   7.974   1.495
 3888WAT      O11905   9.797   4.343   8.157
 3888WAT     H111906   9.881   4.339   8.210
 3888WAT     H211907   9.719   4.362   8.217
 3889WAT      O11908   9.668   0.849   0.795
 3889WAT     H111909   9.694   0.846   0.891
 3889WAT     H211910   9.670   0.943   0.762
 3890WAT      O11911   4.968   9.041   5.984
 3890WAT     H111912   4.876   9.054   6.019
 3890WAT     H211913   4.964   9.015   5.887
 3891WAT      O11914   1.369   8.372   0.619
 3891WAT     H111915   1.425   8.452   0.642
 3891WAT     H211916   1.278   8.402   0.589
 3892WAT      O11917   6.726   4.433   0.553
 3892WAT     H111918   6.752   4.386   0.637
 3892WAT     H211919   6.701   4.528   0.574
 3893WAT      O11920   5.373   9.835   4.427
 3893WAT     H111921   5.441   9.839   4.500
 3893WAT     H211922   5.405   9.891   4.350
 3894WAT      O11923   0.358   5.419   9.286
 3894WAT     H111924   0.457   5.423   9.269
 3894WAT     H211925   0.338   5.342   9.346
 3895WAT      O11926   8.681   7.707   5.974
 3895WAT     H111927   8.623   7.708   5.893
 3895WAT     H211928   8.667   7.621   6.024
 3896WAT      O11929   6.992   7.711   8.681
 3896WAT     H111930   6.974   7.648   8.605
 3896WAT     H211931   6.907   7.754   8.711
 3897WAT      O11932   1.069   5.565   4.330
 3897WAT     H111933   1.086   5.617   4.414
 3897WAT     H211934   0.994   5.501   4.345
 3898WAT      O11935   5.538   6.540   6.772
 3898WAT     H111936   5.558   6.470   6.841
 3898WAT     H211937   5.594   6.523   6.691
 3899WAT      O11938   7.885   9.522   9.700
 3899WAT     H111939   7.872   9.476   9.788
 3899WAT     H211940   7.903   9.455   9.629
 3900WAT      O11941   2.034   6.103   9.518
 3900WAT     H111942   2.061   6.123   9.423
 3900WAT     H211943   1.944   6.061   9.519
 3901WAT      O11944   1.578   8.685   0.932
 3901WAT     H111945   1.608   8.602   0.979
 3901WAT     H211946   1.577   8.762   0.995
 3902WAT      O11947   5.585   6.970   1.531
 3902WAT     H111948   5.579   6.894   1.596
 3902WAT     H211949   5.652   7.036   1.563
 3903WAT      O11950   7.862   6.606   7.930
 3903WAT     H111951   7.788   6.568   7.875
 3903WAT     H211952   7.885   6.698   7.897
 3904WAT      O11953   9.402   4.461   0.152
 3904WAT     H111954   9.496   4.481   0.178
 3904WAT     H211955   9.374   4.521   0.078
 3905WAT      O11956   6.341   0.223   7.698
 3905WAT     H111957   6.401   0.175   7.635
 3905WAT     H211958   6.316   0.312   7.660
 3906WAT      O11959   1.168   1.930   9.271
 3906WAT     H111960   1.157   2.023   9.236
 3906WAT     H211961   1.262   1.916   9.302
 3907WAT      O11962   1.303   4.764   1.788
 3907WAT     H111963   1.381   4.779   1.726
 3907WAT     H211964   1.246   4.690   1.753
 3908WAT      O11965   2.128   1.497   8.526
 3908WAT     H111966   2.033   1.492   8.497
 3908WAT     H211967   2.143   1.435   8.603
 3909WAT      O11968   6.200   2.851   3.473
 3909WAT     H111969   6.250   2.766   3.492
 3909WAT     H211970   6.111   2.848   3.518
 3910WAT      O11971   9.183   2.664   1.879
 3910WAT     H111972   9.229   2.643   1.792
 3910WAT     H211973   9.089   2.692   1.860
 3911WAT      O11974   7.751   4.110   3.581
 3911WAT     H111975   7.672   4.095   3.641
 3911WAT     H211976   7.721   4.109   3.486
 3912WAT      O11977   8.122   3.711   6.370
 3912WAT     H111978   8.093   3.637   6.431
 3912WAT     H211979   8.080   3.797   6.401
 3913WAT      O11980   3.787   4.211   7.832
 3913WAT     H111981   3.830   4.200   7.922
 3913WAT     H211982   3.765   4.120   7.795
 3914WAT      O11983   8.452   7.612   2.950
 3914WAT     H111984   8.508   7.692   2.975
 3914WAT     H211985   8.400   7.582   3.029
 3915WAT      O11986   6.817   0.759   5.816
 3915WAT     H111987   6.776   0.846   5.791
 3915WAT     H211988   6.747   0.698   5.853
 3916WAT      O11989   2.673   1.816   7.574
 3916WAT     H111990   2.607   1.757   7.528
 3916WAT     H211991   2.706   1.771   7.657
 3917WAT      O11992   9.228   6.536   0.972
 3917WAT     H111993   9.162   6.577   1.035
 3917WAT     H211994   9.215   6.576   0.880
 3918WAT      O11995   6.590   3.949   9.045
 3918WAT     H111996   6.651   3.921   8.971
 3918WAT     H211997   6.500   3.971   9.007
 3919WAT      O11998   4.673   3.431   9.137
 3919WAT     H111999   4.679   3.419   9.236
 3919WAT     H212000   4.577   3.442   9.111
 3920WAT      O12001   5.975   1.882   9.689
 3920WAT     H112002   5.880   1.903   9.662
 3920WAT     H212003   6.027   1.967   9.695
 3921WAT      O12004   3.774   6.673   2.768
 3921WAT     H112005   3.794   6.584   2.726
 3921WAT     H212006   3.675   6.689   2.764
 3922WAT      O12007   0.138   5.045   5.671
 3922WAT     H112008   0.161   4.989   5.751
 3922WAT     H212009   0.219   5.097   5.643
 3923WAT      O12010   5.337   3.427   7.676
 3923WAT     H112011   5.421   3.481   7.671
 3923WAT     H212012   5.288   3.450   7.760
 3924WAT      O12013   6.223   7.317   3.491
 3924WAT     H112014   6.230   7.256   3.412
 3924WAT     H212015   6.311   7.363   3.505
 3925WAT      O12016   9.837   2.889   4.259
 3925WAT     H112017   9.901   2.870   4.184
 3925WAT     H212018   9.862   2.832   4.338
 3926WAT      O12019   3.820   6.270   1.405
 3926WAT     H112020   3.887   6.344   1.401
 3926WAT     H212021   3.735   6.304   1.443
 3927WAT      O12022   3.498   5.885   8.624
 3927WAT     H112023   3.443   5.866   8.542
 3927WAT     H212024   3.495   5.983   8.644
 3928WAT      O12025   0.628   2.776   7.588
 3928WAT     H112026   0.716   2.765   7.544
 3928WAT     H212027   0.562   2.813   7.523
 3929WAT      O12028   4.111   5.727   3.249
 3929WAT     H112029   4.019   5.762   3.264
 3929WAT     H212030   4.178   5.788   3.291
 3930WAT      O12031   8.323   6.788   0.742
 3930WAT     H112032   8.229   6.754   0.736
 3930WAT     H212033   8.368   6.775   0.653
 3931WAT      O12034   2.854   4.644   5.677
 3931WAT     H112035   2.916   4.677   5.606
 3931WAT     H212036   2.853   4.709   5.753
 3932WAT      O12037   5.504   0.226   9.636
 3932WAT     H112038   5.528   0.145   9.582
 3932WAT     H212039   5.523   0.207   9.733
 3933WAT      O12040   5.024   9.226   2.769
 3933WAT     H112041   4.990   9.270   2.852
 3933WAT     H212042   5.058   9.135   2.791
 3934WAT      O12043   9.623   4.407   9.107
 3934WAT     H112044   9.707   4.436   9.154
 3934WAT     H212045   9.543   4.441   9.157
 3935WAT      O12046   9.338   1.537   7.134
 3935WAT     H112047   9.342   1.636   7.127
 3935WAT     H212048   9.347   1.510   7.230
 3936WAT      O12049   6.287   2.541   7.812
 3936WAT     H112050   6.191   2.569   7.819
 3936WAT     H212051   6.324   2.526   7.903
 3937WAT      O12052   1.012   8.090   5.494
 3937WAT     H112053   1.021   8.189   5.500
 3937WAT     H212054   1.100   8.050   5.467
 3938WAT      O12055   5.876   1.474   8.638
 3938WAT     H112056   5.876   1.478   8.538
 3938WAT     H212057   5.968   1.493   8.672
 3939WAT      O12058   4.751   5.928   0.095
 3939WAT     H112059   4.791   5.942   0.186
 3939WAT     H212060   4.674   5.991   0.084
 3940WAT      O12061   2.669   7.794   8.078
 3940WAT     H112062   2.739   7.753   8.020
 3940WAT     H212063   2.683   7.893   8.082
 3941WAT      O12064   5.513   7.214   3.604
 3941WAT     H112065   5.501   7.295   3.546
 3941WAT     H212066   5.486   7.236   3.698
 3942WAT      O12067   3.563   2.188   3.604
 3942WAT     H112068   3.597   2.200   3.511
 3942WAT     H212069   3.600   2.260   3.663
 3943WAT      O12070   3.643   1.399   3.951
 3943WAT     H112071   3.572   1.467   3.970
 3943WAT     H212072   3.733   1.437   3.975
 3944WAT      O12073   3.246   2.766   4.159
 3944WAT     H112074   3.245   2.802   4.252
 3944WAT     H212075   3.244   2.666   4.162
 3945WAT      O12076   3.291   5.106   0.549
 3945WAT     H112077   3.370   5.062   0.506
 3945WAT     H212078   3.223   5.036   0.573
 3946WAT      O12079   1.473   9.363   3.051
 3946WAT     H112080   1.513   9.377   2.961
 3946WAT     H212081   1.493   9.443   3.109
 3947WAT      O12082   1.587   9.052   2.574
 3947WAT     H112083   1.611   9.097   2.488
 3947WAT     H212084   1.493   9.018   2.568
 3948WAT      O12085   2.918   8.983   4.962
 3948WAT     H112086   2.963   8.900   4.928
 3948WAT     H212087   2.824   8.986   4.929
 3949WAT      O12088   1.971   2.489   2.161
 3949WAT     H112089   1.995   2.392   2.168
 3949WAT     H212090   1.974   2.530   2.252
 3950WAT      O12091   8.023   8.893   0.651
 3950WAT     H112092   8.090   8.831   0.609
 3950WAT     H212093   7.956   8.921   0.582
 3951WAT      O12094   5.173   6.092   7.072
 3951WAT     H112095   5.195   6.043   7.156
 3951WAT     H212096   5.080   6.070   7.044
 3952WAT      O12097   8.647   7.065   4.311
 3952WAT     H112098   8.607   7.009   4.238
 3952WAT     H212099   8.594   7.149   4.322
 3953WAT      O12100   8.255   6.351   4.348
 3953WAT     H112101   8.339   6.381   4.394
 3953WAT     H212102   8.179   6.354   4.413
 3954WAT      O12103   0.255   8.913   2.789
 3954WAT     H112104   0.196   8.993   2.783
 3954WAT     H212105   0.198   8.830   2.788
 3955WAT      O12106   3.541   5.550   6.570
 3955WAT     H112107   3.507   5.595   6.653
 3955WAT     H212108   3.561   5.618   6.500
 3956WAT      O12109   3.075   3.020   0.752
 3956WAT     H112110   3.088   2.921   0.758
 3956WAT     H212111   3.138   3.066   0.814
 3957WAT      O12112   4.755   3.877   0.169
 3957WAT     H112113   4.667   3.885   0.123
 3957WAT     H212114   4.796   3.968   0.180
 3958WAT      O12115   0.471   4.758   7.147
 3958WAT     H112116   0.438   4.749   7.241
 3958WAT     H212117   0.523   4.843   7.137
 3959WAT      O12118   4.277   5.416   5.948
 3959WAT     H112119   4.347   5.368   5.895
 3959WAT     H212120   4.303   5.512   5.956
 3960WAT      O12121   7.221   7.284   6.883
 3960WAT     H112122   7.212   7.379   6.915
 3960WAT     H212123   7.132   7.249   6.855
 3961WAT      O12124   6.853   0.271   7.508
 3961WAT     H112125   6.794   0.349   7.529
 3961WAT     H212126   6.919   0.297   7.438
 3962WAT      O12127   0.919   6.310   5.522
 3962WAT     H112128   1.019   6.307   5.525
 3962WAT     H212129   0.889   6.402   5.501
 3963WAT      O12130   2.028   3.414   5.584
 3963WAT     H112131   1.983   3.352   5.520
 3963WAT     H212132   2.097   3.468   5.536
 3964WAT      O12133   4.551   6.042   9.490
 3964WAT     H112134   4.589   6.131   9.468
 3964WAT     H212135   4.495   6.049   9.573
 3965WAT      O12136   7.581   9.650   6.732
 3965WAT     H112137   7.536   9.716   6.792
 3965WAT     H212138   7.583   9.686   6.639
 3966WAT      O12139   7.184   1.271   1.365
 3966WAT     H112140   7.163   1.359   1.407
 3966WAT     H212141   7.112   1.247   1.299
 3967WAT      O12142   6.368   0.960   1.833
 3967WAT     H112143   6.363   0.894   1.908
 3967WAT     H212144   6.456   0.949   1.785
 3968WAT      O12145   6.164   6.226   8.215
 3968WAT     H112146   6.078   6.273   8.196
 3968WAT     H212147   6.175   6.148   8.154
 3969WAT      O12148   7.863   0.026   6.278
 3969WAT     H112149   7.892  -0.068   6.260
 3969WAT     H212150   7.864   0.042   6.377
 3970WAT      O12151   9.109   6.574   3.068
 3970WAT     H112152   9.028   6.627   3.094
 3970WAT     H212153   9.190   6.616   3.109
 3971WAT      O12154   2.276   2.414   5.220
 3971WAT     H112155   2.199   2.432   5.160
 3971WAT     H212156   2.319   2.328   5.195
 3972WAT      O12157   6.532   5.819   0.083
 3972WAT     H112158   6.617   5.769   0.073
 3972WAT     H212159   6.552   5.915   0.103
 3973WAT      O12160   9.728   9.065   5.634
 3973WAT     H112161   9.664   9.050   5.709
 3973WAT     H212162   9.777   9.151   5.649
 3974WAT      O12163   8.798   5.384   9.028
 3974WAT     H112164   8.804   5.355   8.933
 3974WAT     H212165   8.850   5.469   9.041
 3975WAT      O12166   6.254   5.302   0.183
 3975WAT     H112167   6.352   5.286   0.169
 3975WAT     H212168   6.222   5.371   0.118
 3976WAT      O12169   8.182   3.451   7.979
 3976WAT     H112170   8.208   3.478   7.886
 3976WAT     H212171   8.092   3.488   8.001
 3977WAT      O12172   7.957   2.230   3.724
 3977WAT     H112173   7.992   2.208   3.633
 3977WAT     H212174   8.024   2.286   3.773
 3978WAT      O12175   9.195   4.512   8.103
 3978WAT     H112176   9.265   4.544   8.167
 3978WAT     H212177   9.170   4.586   8.041
 3979WAT      O12178   2.250   3.484   3.779
 3979WAT     H112179   2.192   3.557   3.815
 3979WAT     H212180   2.239   3.478   3.680
 3980WAT      O12181   9.289   4.730   6.760
 3980WAT     H112182   9.278   4.699   6.665
 3980WAT     H212183   9.351   4.808   6.763
 3981WAT      O12184   2.309   5.112   1.104
 3981WAT     H112185   2.215   5.079   1.099
 3981WAT     H212186   2.311   5.211   1.085
 3982WAT      O12187   7.244   9.470   9.020
 3982WAT     H112188   7.329   9.520   9.005
 3982WAT     H212189   7.211   9.433   8.933
 3983WAT      O12190   5.121   9.020   0.779
 3983WAT     H112191   5.138   9.051   0.685
 3983WAT     H212192   5.052   8.947   0.778
 3984WAT      O12193   6.313   7.772   7.416
 3984WAT     H112194   6.396   7.799   7.367
 3984WAT     H212195   6.272   7.854   7.458
 3985WAT      O12196   7.968   9.406   2.248
 3985WAT     H112197   7.917   9.411   2.162
 3985WAT     H212198   7.974   9.497   2.289
 3986WAT      O12199   5.222   0.515   9.748
 3986WAT     H112200   5.209   0.550   9.655
 3986WAT     H212201   5.149   0.450   9.769
 3987WAT      O12202   5.096   4.203   7.605
 3987WAT     H112203   5.091   4.159   7.694
 3987WAT     H212204   5.058   4.295   7.611
 3988WAT      O12205   1.576   3.381   3.563
 3988WAT     H112206   1.485   3.344   3.580
 3988WAT     H212207   1.597   3.375   3.465
 3989WAT      O12208   3.501   7.143   2.038
 3989WAT     H112209   3.426   7.159   1.973
 3989WAT     H212210   3.589   7.158   1.992
 3990WAT      O12211   1.480   2.260   6.622
 3990WAT     H112212   1.510   2.291   6.532
 3990WAT     H212213   1.419   2.181   6.612
 3991WAT      O12214   9.156   2.666   7.859
 3991WAT     H112215   9.183   2.750   7.907
 3991WAT     H212216   9.066   2.636   7.892
 3992WAT      O12217   2.758   1.754   9.594
 3992WAT     H112218   2.794   1.816   9.524
 3992WAT     H212219   2.798   1.663   9.583
 3993WAT      O12220   6.745   2.018   4.205
 3993WAT     H112221   6.658   2.065   4.209
 3993WAT     H212222   6.731   1.919   4.216
 3994WAT      O12223   3.347   3.984   1.877
 3994WAT     H112224   3.438   3.947   1.861
 3994WAT     H212225   3.278   3.915   1.855
 3995WAT      O12226   2.823   4.128   5.637
 3995WAT     H112227   2.883   4.173   5.571
 3995WAT     H212228   2.765   4.197   5.681
 3996WAT      O12229   8.720   4.836   4.685
 3996WAT     H112230   8.806   4.824   4.734
 3996WAT     H212231   8.733   4.812   4.589
 3997WAT      O12232   1.736   5.994   8.396
 3997WAT     H112233   1.818   5.998   8.339
 3997WAT     H212234   1.671   5.929   8.355
 3998WAT      O12235   2.752   8.952   7.960
 3998WAT     H112236   2.656   8.927   7.967
 3998WAT     H212237   2.772   9.026   8.024
 3999WAT      O12238   8.464   9.210   9.441
 3999WAT     H112239   8.529   9.142   9.409
 3999WAT     H212240   8.448   9.197   9.539
 4000WAT      O12241   5.222   6.617   1.065
 4000WAT     H112242   5.263   6.548   1.124
 4000WAT     H212243   5.158   6.573   1.002
 4001WAT      O12244   8.450   4.675   5.900
 4001WAT     H112245   8.389   4.646   5.827
 4001WAT     H212246   8.425   4.629   5.985
 4002WAT      O12247   4.797   3.450   2.175
 4002WAT     H112248   4.866   3.475   2.106
 4002WAT     H212249   4.838   3.389   2.242
 4003WAT      O12250   3.665   5.249   8.282
 4003WAT     H112251   3.718   5.244   8.198
 4003WAT     H212252   3.585   5.307   8.267
 4004WAT      O12253   0.408   5.320   0.007
 4004WAT     H112254   0.353   5.281   0.081
 4004WAT     H212255   0.428   5.249  -0.061
 4005WAT      O12256   4.091   3.781   9.804
 4005WAT     H112257   4.161   3.810   9.739
 4005WAT     H212258   4.008   3.835   9.790
 4006WAT      O12259   8.288   8.138   2.780
 4006WAT     H112260   8.354   8.188   2.837
 4006WAT     H212261   8.308   8.154   2.683
 4007WAT      O12262   7.516   6.659   3.152
 4007WAT     H112263   7.611   6.672   3.123
 4007WAT     H212264   7.512   6.590   3.224
 4008WAT      O12265   1.579   2.896   8.720
 4008WAT     H112266   1.502   2.842   8.685
 4008WAT     H212267   1.606   2.964   8.653
 4009WAT      O12268   6.102   8.801   7.518
 4009WAT     H112269   6.149   8.761   7.439
 4009WAT     H212270   6.067   8.892   7.493
 4010WAT      O12271   8.608   3.185   0.781
 4010WAT     H112272   8.670   3.128   0.727
 4010WAT     H212273   8.594   3.143   0.871
 4011WAT      O12274   4.226   0.275   4.045
 4011WAT     H112275   4.284   0.262   3.964
 4011WAT     H212276   4.220   0.188   4.095
 4012WAT      O12277   5.726   9.071   4.877
 4012WAT     H112278   5.762   9.117   4.958
 4012WAT     H212279   5.764   9.114   4.795
 4013WAT      O12280   0.974   5.346   2.689
 4013WAT     H112281   0.906   5.283   2.726
 4013WAT     H212282   0.964   5.435   2.732
 4014WAT      O12283   5.799   2.944   1.163
 4014WAT     H112284   5.779   2.980   1.254
 4014WAT     H212285   5.823   2.847   1.170
 4015WAT      O12286   4.912   0.970   7.890
 4015WAT     H112287   4.851   0.980   7.969
 4015WAT     H212288   5.007   0.970   7.922
 4016WAT      O12289   8.401   8.025   5.926
 4016WAT     H112290   8.401   7.976   5.839
 4016WAT     H212291   8.375   8.120   5.911
 4017WAT      O12292   1.991   1.357   0.376
 4017WAT     H112293   2.074   1.395   0.416
 4017WAT     H212294   2.016   1.295   0.301
 4018WAT      O12295   7.957   5.519   3.568
 4018WAT     H112296   8.001   5.568   3.492
 4018WAT     H212297   7.879   5.571   3.601
 4019WAT      O12298   0.958   0.497   2.005
 4019WAT     H112299   1.031   0.525   1.943
 4019WAT     H212300   0.997   0.449   2.083
 4020WAT      O12301   8.265   6.704   9.352
 4020WAT     H112302   8.337   6.768   9.379
 4020WAT     H212303   8.207   6.746   9.283
 4021WAT      O12304   8.390   5.728   1.010
 4021WAT     H112305   8.470   5.774   1.047
 4021WAT     H212306   8.393   5.631   1.035
 4022WAT      O12307   5.603   6.211   2.973
 4022WAT     H112308   5.505   6.210   2.993
 4022WAT     H212309   5.654   6.181   3.053
 4023WAT      O12310   0.775   5.680   9.690
 4023WAT     H112311   0.852   5.731   9.650
 4023WAT     H212312   0.690   5.705   9.643
 4024WAT      O12313   5.728   4.205   5.847
 4024WAT     H112314   5.695   4.180   5.757
 4024WAT     H212315   5.697   4.138   5.915
 4025WAT      O12316   0.818   8.776   8.268
 4025WAT     H112317   0.778   8.857   8.226
 4025WAT     H212318   0.787   8.694   8.219
 4026WAT      O12319   7.558   6.691   7.378
 4026WAT     H112320   7.577   6.621   7.310
 4026WAT     H212321   7.460   6.712   7.379
 4027WAT      O12322   2.977   0.599   2.132
 4027WAT     H112323   3.003   0.513   2.174
 4027WAT     H212324   3.011   0.602   2.038
 4028WAT      O12325   2.005   5.707   5.089
 4028WAT     H112326   1.945   5.751   5.156
 4028WAT     H212327   2.067   5.644   5.135
 4029WAT      O12328   6.522   7.290   3.462
 4029WAT     H112329   6.474   7.202   3.466
 4029WAT     H212330   6.552   7.308   3.368
 4030WAT      O12331   5.796   2.146   5.282
 4030WAT     H112332   5.787   2.093   5.367
 4030WAT     H212333   5.776   2.243   5.301
 4031WAT      O12334   8.674   0.651   3.988
 4031WAT     H112335   8.665   0.750   3.976
 4031WAT     H212336   8.595   0.606   3.947
 4032WAT      O12337   8.290   6.852   8.835
 4032WAT     H112338   8.320   6.871   8.929
 4032WAT     H212339   8.332   6.767   8.803
 4033WAT      O12340   3.283   6.603   9.857
 4033WAT     H112341   3.194   6.649   9.852
 4033WAT     H212342   3.334   6.639   9.935
 4034WAT      O12343   8.900   6.228   2.721
 4034WAT     H112344   8.852   6.265   2.801
 4034WAT     H212345   8.953   6.300   2.678
 4035WAT      O12346   0.724   4.577   8.417
 4035WAT     H112347   0.652   4.640   8.446
 4035WAT     H212348   0.797   4.576   8.485
 4036WAT      O12349   3.488   7.793   3.196
 4036WAT     H112350   3.392   7.768   3.187
 4036WAT     H212351   3.510   7.806   3.292
 4037WAT      O12352   2.497   4.578   4.015
 4037WAT     H112353   2.484   4.591   3.917
 4037WAT     H212354   2.524   4.483   4.033
 4038WAT      O12355   4.828   2.944   0.356
 4038WAT     H112356   4.761   2.968   0.426
 4038WAT     H212357   4.839   3.020   0.293
 4039WAT      O12358   0.453   6.595   8.308
 4039WAT     H112359   0.503   6.583   8.395
 4039WAT     H212360   0.357   6.615   8.327
 4040WAT      O12361   2.594   5.129   3.030
 4040WAT     H112362   2.512   5.152   3.083
 4040WAT     H212363   2.676   5.145   3.086
 4041WAT      O12364   2.321   5.667   2.699
 4041WAT     H112365   2.394   5.729   2.672
 4041WAT     H212366   2.360   5.583   2.736
 4042WAT      O12367   5.952   7.041   9.702
 4042WAT     H112368   6.038   7.092   9.703
 4042WAT     H212369   5.932   7.012   9.608
 4043WAT      O12370   3.913   1.901   9.851
 4043WAT     H112371   3.857   1.955   9.788
 4043WAT     H212372   3.924   1.809   9.814
 4044WAT      O12373   4.288   0.911   4.889
 4044WAT     H112374   4.375   0.912   4.841
 4044WAT     H212375   4.252   1.005   4.896
 4045WAT      O12376   3.345   9.357   9.337
 4045WAT     H112377   3.257   9.401   9.351
 4045WAT     H212378   3.343   9.264   9.373
 4046WAT      O12379   7.536   5.555   5.078
 4046WAT     H112380   7.455   5.518   5.032
 4046WAT     H212381   7.521   5.652   5.100
 4047WAT      O12382   6.999   5.401   2.730
 4047WAT     H112383   7.089   5.424   2.695
 4047WAT     H212384   6.929   5.456   2.683
 4048WAT      O12385   0.141   5.414   9.815
 4048WAT     H112386   0.225   5.361   9.830
 4048WAT     H212387   0.116   5.411   9.718
 4049WAT      O12388   1.615   0.705   2.703
 4049WAT     H112389   1.568   0.751   2.628
 4049WAT     H212390   1.556   0.634   2.741
 4050WAT      O12391   8.672   0.514   4.361
 4050WAT     H112392   8.636   0.600   4.396
 4050WAT     H212393   8.619   0.438   4.398
 4051WAT      O12394   5.375   5.045   2.160
 4051WAT     H112395   5.423   5.097   2.231
 4051WAT     H212396   5.321   4.973   2.202
 4052WAT      O12397   3.494   2.096   5.436
 4052WAT     H112398   3.483   2.009   5.388
 4052WAT     H212399   3.433   2.100   5.514
 4053WAT      O12400   8.519   3.408   7.862
 4053WAT     H112401   8.494   3.314   7.887
 4053WAT     H212402   8.439   3.455   7.825
 4054WAT      O12403   7.702   5.779   9.164
 4054WAT     H112404   7.801   5.768   9.170
 4054WAT     H212405   7.661   5.696   9.124
 4055WAT      O12406   1.279   4.341   5.385
 4055WAT     H112407   1.235   4.319   5.298
 4055WAT     H212408   1.230   4.296   5.460
 4056WAT      O12409   8.616   4.196   4.104
 4056WAT     H112410   8.665   4.248   4.173
 4056WAT     H212411   8.555   4.131   4.149
 4057WAT      O12412   5.478   2.051   8.343
 4057WAT     H112413   5.492   1.975   8.280
 4057WAT     H212414   5.490   2.138   8.294
 4058WAT      O12415   8.842   0.018   2.040
 4058WAT     H112416   8.865  -0.079   2.036
 4058WAT     H212417   8.897   0.063   2.110
 4059WAT      O12418   3.519   3.569   2.349
 4059WAT     H112419   3.541   3.591   2.254
 4059WAT     H212420   3.452   3.635   2.383
 4060WAT      O12421   7.385   9.579   3.122
 4060WAT     H112422   7.452   9.544   3.188
 4060WAT     H212423   7.429   9.596   3.035
 4061WAT      O12424   2.726   6.199   5.950
 4061WAT     H112425   2.707   6.249   5.865
 4061WAT     H212426   2.663   6.229   6.021
 4062WAT      O12427   7.519   4.867   8.166
 4062WAT     H112428   7.603   4.900   8.210
 4062WAT     H212429   7.533   4.866   8.067
 4063WAT      O12430   7.240   0.539   9.279
 4063WAT     H112431   7.216   0.459   9.225
 4063WAT     H212432   7.160   0.598   9.288
 4064WAT      O12433   5.889   1.690   9.061
 4064WAT     H112434   5.950   1.732   9.128
 4064WAT     H212435   5.926   1.704   8.969
 4065WAT      O12436   7.842   0.906   6.242
 4065WAT     H112437   7.789   0.980   6.200
 4065WAT     H212438   7.798   0.818   6.222
 4066WAT      O12439   5.053   7.523   3.124
 4066WAT     H112440   5.084   7.441   3.077
 4066WAT     H212441   5.057   7.508   3.223
 4067WAT      O12442   5.632   7.139   4.840
 4067WAT     H112443   5.656   7.232   4.812
 4067WAT     H212444   5.715   7.089   4.863
 4068WAT      O12445   5.624   0.148   8.852
 4068WAT     H112446   5.574   0.174   8.935
 4068WAT     H212447   5.587   0.197   8.774
 4069WAT      O12448   1.636   2.326   9.394
 4069WAT     H112449   1.567   2.324   9.322
 4069WAT     H212450   1.699   2.403   9.378
 4070WAT      O12451   2.620   1.441   8.497
 4070WAT     H112452   2.627   1.447   8.597
 4070WAT     H212453   2.599   1.347   8.471
 4071WAT      O12454   8.352   6.749   0.447
 4071WAT     H112455   8.267   6.698   0.434
 4071WAT     H212456   8.372   6.800   0.363
 4072WAT      O12457   2.258   4.348   0.799
 4072WAT     H112458   2.316   4.355   0.719
 4072WAT     H212459   2.311   4.372   0.881
 4073WAT      O12460   3.871   4.251   2.339
 4073WAT     H112461   3.938   4.295   2.280
 4073WAT     H212462   3.848   4.312   2.415
 4074WAT      O12463   9.317   1.503   3.568
 4074WAT     H112464   9.391   1.447   3.607
 4074WAT     H212465   9.314   1.489   3.469
 4075WAT      O12466   1.448   4.440   9.042
 4075WAT     H112467   1.464   4.528   8.997
 4075WAT     H212468   1.446   4.367   8.973
 4076WAT      O12469   0.094   3.996   1.268
 4076WAT     H112470   0.043   3.911   1.259
 4076WAT     H212471   0.145   4.013   1.183
 4077WAT      O12472   8.988   9.021   9.015
 4077WAT     H112473   9.010   9.028   9.113
 4077WAT     H212474   8.971   8.925   8.992
 4078WAT      O12475   2.353   3.476   4.135
 4078WAT     H112476   2.348   3.453   4.232
 4078WAT     H212477   2.416   3.412   4.089
 4079WAT      O12478   4.041   0.084   5.367
 4079WAT     H112479   4.007   0.128   5.284
 4079WAT     H212480   4.029   0.146   5.444
 4080WAT      O12481   1.682   5.155   0.054
 4080WAT     H112482   1.596   5.191   0.015
 4080WAT     H212483   1.665   5.123   0.147
 4081WAT      O12484   7.858   0.012   4.665
 4081WAT     H112485   7.796   0.089   4.681
 4081WAT     H212486   7.850  -0.054   4.740
 4082WAT      O12487   7.366   7.760   1.425
 4082WAT     H112488   7.449   7.726   1.380
 4082WAT     H212489   7.378   7.856   1.448
 4083WAT      O12490   9.664   0.112   9.871
 4083WAT     H112491   9.647   0.048   9.796
 4083WAT     H212492   9.598   0.097   9.944
 4084WAT      O12493   2.370   0.591   8.561
 4084WAT     H112494   2.371   0.658   8.634
 4084WAT     H212495   2.398   0.634   8.475
 4085WAT      O12496   0.141   8.404   2.486
 4085WAT     H112497   0.116   8.500   2.471
 4085WAT     H212498   0.194   8.371   2.408
 4086WAT      O12499   6.312   7.393   9.621
 4086WAT     H112500   6.383   7.440   9.569
 4086WAT     H212501   6.330   7.403   9.719
 4087WAT      O12502   3.915   9.175   1.885
 4087WAT     H112503   4.011   9.149   1.889
 4087WAT     H212504   3.860   9.100   1.849
 4088WAT      O12505   0.088   6.782   8.151
 4088WAT     H112506   0.036   6.851   8.202
 4088WAT     H212507   0.078   6.799   8.053
 4089WAT      O12508   1.742   1.144   9.354
 4089WAT     H112509   1.835   1.182   9.361
 4089WAT     H212510   1.746   1.045   9.365
 4090WAT      O12511   1.642   0.255   9.296
 4090WAT     H112512   1.717   0.205   9.340
 4090WAT     H212513   1.670   0.348   9.276
 4091WAT      O12514   8.253   7.000   7.506
 4091WAT     H112515   8.326   7.018   7.573
 4091WAT     H212516   8.206   6.915   7.531
 4092WAT      O12517   3.439   6.832   0.923
 4092WAT     H112518   3.374   6.783   0.982
 4092WAT     H212519   3.469   6.770   0.850
 4093WAT      O12520   6.419   7.845   3.782
 4093WAT     H112521   6.431   7.781   3.858
 4093WAT     H212522   6.344   7.812   3.724
 4094WAT      O12523   5.573   9.645   3.638
 4094WAT     H112524   5.617   9.572   3.690
 4094WAT     H212525   5.477   9.652   3.665
 4095WAT      O12526   4.009   2.114   7.389
 4095WAT     H112527   4.015   2.145   7.295
 4095WAT     H212528   3.943   2.169   7.439
 4096WAT      O12529   9.738   9.762   2.567
 4096WAT     H112530   9.745   9.690   2.635
 4096WAT     H212531   9.818   9.822   2.573
 4097WAT      O12532   3.871   7.439   2.816
 4097WAT     H112533   3.833   7.390   2.895
 4097WAT     H212534   3.928   7.514   2.849
 4098WAT      O12535   0.437   1.364   9.540
 4098WAT     H112536   0.446   1.360   9.640
 4098WAT     H212537   0.350   1.408   9.517
 4099WAT      O12538   3.771   9.344   2.856
 4099WAT     H112539   3.749   9.330   2.759
 4099WAT     H212540   3.746   9.263   2.908
 4100WAT      O12541   1.507   2.229   0.345
 4100WAT     H112542   1.563   2.251   0.265
 4100WAT     H212543   1.553   2.160   0.400
 4101WAT      O12544   3.716   0.939   6.994
 4101WAT     H112545   3.673   0.881   6.926
 4101WAT     H212546   3.645   0.984   7.049
 4102WAT      O12547   6.722   4.894   9.059
 4102WAT     H112548   6.779   4.959   9.109
 4102WAT     H212549   6.688   4.824   9.122
 4103WAT      O12550   2.239   8.367   2.921
 4103WAT     H112551   2.315   8.330   2.975
 4103WAT     H212552   2.195   8.293   2.872
 4104WAT      O12553   8.507   4.130   1.148
 4104WAT     H112554   8.442   4.190   1.103
 4104WAT     H212555   8.545   4.066   1.081
 4105WAT      O12556   6.631   3.887   1.788
 4105WAT     H112557   6.615   3.866   1.884
 4105WAT     H212558   6.617   3.985   1.772
 4106WAT      O12559   3.353   3.835   5.079
 4106WAT     H112560   3.426   3.870   5.021
 4106WAT     H212561   3.273   3.813   5.023
 4107WAT      O12562   5.897   4.209   4.752
 4107WAT     H112563   5.873   4.305   4.738
 4107WAT     H212564   5.981   4.203   4.807
 4108WAT      O12565   4.151   1.532   7.068
 4108WAT     H112566   4.164   1.609   7.131
 4108WAT     H212567   4.135   1.567   6.976
 4109WAT      O12568   0.024   3.354   0.753
 4109WAT     H112569   0.043   3.413   0.674
 4109WAT     H212570   0.051   3.402   0.837
 4110WAT      O12571   6.635   5.494   8.415
 4110WAT     H112572   6.574   5.420   8.386
 4110WAT     H212573   6.650   5.557   8.339
 4111WAT      O12574   6.020   7.698   4.687
 4111WAT     H112575   6.088   7.625   4.686
 4111WAT     H212576   6.023   7.744   4.776
 4112WAT      O12577   6.033   3.336   7.065
 4112WAT     H112578   6.097   3.312   7.138
 4112WAT     H212579   6.007   3.433   7.074
 4113WAT      O12580   2.942   6.297   4.488
 4113WAT     H112581   2.962   6.378   4.543
 4113WAT     H212582   2.937   6.217   4.548
 4114WAT      O12583   4.008   2.473   6.604
 4114WAT     H112584   3.961   2.399   6.555
 4114WAT     H212585   4.016   2.552   6.543
 4115WAT      O12586   8.823   8.725   1.875
 4115WAT     H112587   8.786   8.804   1.924
 4115WAT     H212588   8.911   8.698   1.916
 4116WAT      O12589   3.078   0.041   9.364
 4116WAT     H112590   2.989   0.025   9.321
 4116WAT     H212591   3.144   0.071   9.295
 4117WAT      O12592   2.659   7.452   0.979
 4117WAT     H112593   2.624   7.487   1.066
 4117WAT     H212594   2.683   7.355   0.990
 4118WAT      O12595   4.555   0.932   9.448
 4118WAT     H112596   4.517   0.996   9.381
 4118WAT     H212597   4.601   0.983   9.520
 4119WAT      O12598   6.766   8.324   4.559
 4119WAT     H112599   6.858   8.293   4.535
 4119WAT     H212600   6.765   8.360   4.652
 4120WAT      O12601   6.429   4.348   3.828
 4120WAT     H112602   6.421   4.277   3.898
 4120WAT     H212603   6.454   4.435   3.872
 4121WAT      O12604   3.412   7.945   1.383
 4121WAT     H112605   3.399   7.862   1.438
 4121WAT     H212606   3.501   7.986   1.406
 4122WAT      O12607   8.963   6.785   7.771
 4122WAT     H112608   8.938   6.879   7.750
 4122WAT     H212609   8.882   6.726   7.765
 4123WAT      O12610   5.946   8.698   3.482
 4123WAT     H112611   5.901   8.646   3.555
 4123WAT     H212612   5.905   8.789   3.474
 4124WAT      O12613   3.460   4.714   0.551
 4124WAT     H112614   3.454   4.811   0.529
 4124WAT     H212615   3.550   4.679   0.522
 4125WAT      O12616   6.087   4.311   3.529
 4125WAT     H112617   6.056   4.377   3.461
 4125WAT     H212618   6.156   4.353   3.587
 4126WAT      O12619   9.790   9.588   1.048
 4126WAT     H112620   9.839   9.605   0.962
 4126WAT     H212621   9.842   9.523   1.104
 4127WAT      O12622   6.614   1.269   7.928
 4127WAT     H112623   6.701   1.307   7.959
 4127WAT     H212624   6.627   1.223   7.840
 4128WAT      O12625   4.089   9.384   2.078
 4128WAT     H112626   4.073   9.300   2.130
 4128WAT     H212627   4.012   9.401   2.017
 4129WAT      O12628   7.358   8.957   3.902
 4129WAT     H112629   7.324   8.877   3.952
 4129WAT     H212630   7.355   8.938   3.804
 4130WAT      O12631   8.135   2.191   1.032
 4130WAT     H112632   8.172   2.279   1.005
 4130WAT     H212633   8.209   2.126   1.047
 4131WAT      O12634   7.015   7.824   9.482
 4131WAT     H112635   7.023   7.777   9.570
 4131WAT     H212636   7.094   7.883   9.468
 4132WAT      O12637   7.807   1.946   1.145
 4132WAT     H112638   7.885   1.892   1.115
 4132WAT     H212639   7.835   2.041   1.161
 4133WAT      O12640   5.678   7.243   2.428
 4133WAT     H112641   5.624   7.192   2.495
 4133WAT     H212642   5.712   7.327   2.469
 4134WAT      O12643   3.760   1.597   9.486
 4134WAT     H112644   3.738   1.695   9.495
 4134WAT     H212645   3.813   1.583   9.402
 4135WAT      O12646   5.196   7.272   8.310
 4135WAT     H112647   5.100   7.268   8.282
 4135WAT     H212648   5.208   7.219   8.395
 4136WAT      O12649   1.880   7.600   8.192
 4136WAT     H112650   1.866   7.670   8.122
 4136WAT     H212651   1.950   7.630   8.256
 4137WAT      O12652   3.752   1.428   0.476
 4137WAT     H112653   3.779   1.519   0.444
 4137WAT     H212654   3.829   1.365   0.465
 4138WAT      O12655   0.583   6.370   2.132
 4138WAT     H112656   0.609   6.283   2.176
 4138WAT     H212657   0.602   6.445   2.195
 4139WAT      O12658   5.936   8.466   2.047
 4139WAT     H112659   5.842   8.475   2.013
 4139WAT     H212660   5.935   8.475   2.147
 4140WAT      O12661   2.371   0.167   2.373
 4140WAT     H112662   2.433   0.106   2.422
 4140WAT     H212663   2.423   0.240   2.330
 4141WAT      O12664   6.179   3.756   8.201
 4141WAT     H112665   6.233   3.696   8.261
 4141WAT     H212666   6.241   3.805   8.140
 4142WAT      O12667   0.920   2.352   1.026
 4142WAT     H112668   0.879   2.437   0.994
 4142WAT     H212669   1.012   2.370   1.061
 4143WAT      O12670   8.572   2.024   8.589
 4143WAT     H112671   8.572   1.944   8.530
 4143WAT     H212672   8.583   1.996   8.684
 4144WAT      O12673   4.391   4.794   5.737
 4144WAT     H112674   4.346   4.877   5.704
 4144WAT     H212675   4.490   4.810   5.741
 4145WAT      O12676   2.063   9.129   5.339
 4145WAT     H112677   2.109   9.041   5.325
 4145WAT     H212678   2.075   9.158   5.434
 4146WAT      O12679   3.858   3.822   7.441
 4146WAT     H112680   3.817   3.774   7.363
 4146WAT     H212681   3.951   3.787   7.456
 4147WAT      O12682   4.008   2.065   3.048
 4147WAT     H112683   4.041   2.078   3.142
 4147WAT     H212684   3.983   2.153   3.009
 4148WAT      O12685   7.885   3.438   5.449
 4148WAT     H112686   7.888   3.531   5.487
 4148WAT     H212687   7.791   3.413   5.428
 4149WAT      O12688   4.417   1.179   2.434
 4149WAT     H112689   4.441   1.082   2.440
 4149WAT     H212690   4.443   1.214   2.344
 4150WAT      O12691   1.527   1.722   2.448
 4150WAT     H112692   1.468   1.646   2.473
 4150WAT     H212693   1.528   1.733   2.349
 4151WAT      O12694   9.386   8.444   3.488
 4151WAT     H112695   9.388   8.517   3.419
 4151WAT     H212696   9.478   8.429   3.523
 4152WAT      O12697   7.918   1.744   7.937
 4152WAT     H112698   7.910   1.682   8.015
 4152WAT     H212699   7.924   1.691   7.852
 4153WAT      O12700   2.834   7.199   7.708
 4153WAT     H112701   2.934   7.193   7.717
 4153WAT     H212702   2.807   7.295   7.698
 4154WAT      O12703   0.205   8.411   3.119
 4154WAT     H112704   0.132   8.372   3.062
 4154WAT     H212705   0.202   8.370   3.210
 4155WAT      O12706   0.864   3.015   7.465
 4155WAT     H112707   0.783   3.041   7.413
 4155WAT     H212708   0.932   3.088   7.459
 4156WAT      O12709   0.972   5.649   7.181
 4156WAT     H112710   0.936   5.622   7.270
 4156WAT     H212711   1.067   5.679   7.190
 4157WAT      O12712   1.478   0.986   5.269
 4157WAT     H112713   1.388   1.001   5.229
 4157WAT     H212714   1.541   1.057   5.238
 4158WAT      O12715   5.060   6.364   2.987
 4158WAT     H112716   5.160   6.362   2.998
 4158WAT     H212717   5.028   6.459   2.986
 4159WAT      O12718   8.106   6.373   0.575
 4159WAT     H112719   8.006   6.377   0.569
 4159WAT     H212720   8.145   6.395   0.486
 4160WAT      O12721   6.017   0.426   8.297
 4160WAT     H112722   6.083   0.501   8.304
 4160WAT     H212723   6.063   0.344   8.264
 4161WAT      O12724   9.657   3.015   4.073
 4161WAT     H112725   9.603   3.091   4.109
 4161WAT     H212726   9.714   2.977   4.145
 4162WAT      O12727   8.898   4.792   6.030
 4162WAT     H112728   8.823   4.808   6.094
 4162WAT     H212729   8.864   4.741   5.951
 4163WAT      O12730   6.599  -0.002   6.199
 4163WAT     H112731   6.658   0.050   6.138
 4163WAT     H212732   6.607   0.033   6.292
 4164WAT      O12733   9.021   7.927   8.748
 4164WAT     H112734   8.988   8.016   8.780
 4164WAT     H212735   9.104   7.940   8.693
 4165WAT      O12736   3.270   5.400   0.582
 4165WAT     H112737   3.315   5.311   0.587
 4165WAT     H212738   3.171   5.387   0.582
 4166WAT      O12739   6.837   9.668   1.242
 4166WAT     H112740   6.777   9.731   1.192
 4166WAT     H212741   6.782   9.608   1.300
 4167WAT      O12742   6.557   2.659   6.595
 4167WAT     H112743   6.575   2.753   6.565
 4167WAT     H212744   6.643   2.618   6.627
 4168WAT      O12745   7.099   6.977   5.763
 4168WAT     H112746   7.113   7.076   5.767
 4168WAT     H212747   7.177   6.934   5.718
 4169WAT      O12748   1.604   8.371   3.668
 4169WAT     H112749   1.620   8.470   3.672
 4169WAT     H212750   1.637   8.329   3.753
 4170WAT      O12751   6.403   2.837   6.107
 4170WAT     H112752   6.323   2.866   6.158
 4170WAT     H212753   6.428   2.909   6.041
 4171WAT      O12754   7.672   8.989   7.243
 4171WAT     H112755   7.713   8.899   7.257
 4171WAT     H212756   7.705   9.028   7.157
 4172WAT      O12757   2.095   5.727   4.027
 4172WAT     H112758   2.022   5.739   4.095
 4172WAT     H212759   2.078   5.787   3.950
 4173WAT      O12760   4.108   7.350   4.119
 4173WAT     H112761   4.075   7.323   4.028
 4173WAT     H212762   4.197   7.394   4.110
 4174WAT      O12763   9.464   5.160   6.838
 4174WAT     H112764   9.485   5.252   6.804
 4174WAT     H212765   9.370   5.158   6.873
 4175WAT      O12766   8.704   0.566   2.082
 4175WAT     H112767   8.619   0.564   2.031
 4175WAT     H212768   8.766   0.494   2.048
 4176WAT      O12769   7.831   5.242   7.207
 4176WAT     H112770   7.829   5.326   7.261
 4176WAT     H212771   7.883   5.257   7.123
 4177WAT      O12772   5.970   0.014   4.978
 4177WAT     H112773   6.055   0.052   4.940
 4177WAT     H212774   5.929   0.081   5.040
 4178WAT      O12775   3.041   8.007   7.741
 4178WAT     H112776   2.975   7.955   7.687
 4178WAT     H212777   3.110   7.945   7.778
 4179WAT      O12778   5.040   1.240   0.820
 4179WAT     H112779   5.039   1.230   0.920
 4179WAT     H212780   5.132   1.219   0.786
 4180WAT      O12781   9.118   2.211   6.923
 4180WAT     H112782   9.100   2.259   6.837
 4180WAT     H212783   9.214   2.227   6.949
 4181WAT      O12784   0.326   5.943   9.208
 4181WAT     H112785   0.305   5.849   9.179
 4181WAT     H212786   0.248   5.981   9.257
 4182WAT      O12787   5.135   0.992   3.138
 4182WAT     H112788   5.103   0.973   3.045
 4182WAT     H212789   5.079   0.941   3.203
 4183WAT      O12790   8.476   6.597   4.950
 4183WAT     H112791   8.447   6.555   5.036
 4183WAT     H212792   8.442   6.691   4.947
 4184WAT      O12793   5.429   0.231   0.878
 4184WAT     H112794   5.348   0.263   0.829
 4184WAT     H212795   5.480   0.168   0.820
 4185WAT      O12796   5.489   8.454   0.504
 4185WAT     H112797   5.552   8.509   0.450
 4185WAT     H212798   5.540   8.395   0.566
 4186WAT      O12799   2.634   7.327   8.555
 4186WAT     H112800   2.606   7.417   8.519
 4186WAT     H212801   2.701   7.286   8.493
 4187WAT      O12802   0.825   0.721   8.375
 4187WAT     H112803   0.819   0.706   8.474
 4187WAT     H212804   0.910   0.769   8.353
 4188WAT      O12805   5.877   1.292   3.811
 4188WAT     H112806   5.965   1.275   3.856
 4188WAT     H212807   5.830   1.205   3.797
 4189WAT      O12808   8.959   3.899   1.316
 4189WAT     H112809   9.016   3.871   1.394
 4189WAT     H212810   8.986   3.848   1.235
 4190WAT      O12811   1.240   7.937   3.722
 4190WAT     H112812   1.241   7.992   3.638
 4190WAT     H212813   1.293   7.853   3.708
 4191WAT      O12814   7.278   7.462   3.917
 4191WAT     H112815   7.349   7.395   3.895
 4191WAT     H212816   7.240   7.499   3.832
 4192WAT      O12817   6.005   7.071   7.957
 4192WAT     H112818   6.077   7.036   7.897
 4192WAT     H212819   6.047   7.102   8.043
 4193WAT      O12820   2.204   2.262   1.920
 4193WAT     H112821   2.289   2.293   1.963
 4193WAT     H212822   2.219   2.249   1.822
 4194WAT      O12823   1.804   8.082   5.731
 4194WAT     H112824   1.813   8.000   5.788
 4194WAT     H212825   1.862   8.154   5.768
 4195WAT      O12826   2.483   4.653   5.810
 4195WAT     H112827   2.548   4.723   5.841
 4195WAT     H212828   2.491   4.573   5.869
 4196WAT      O12829   6.092   7.580   8.149
 4196WAT     H112830   6.028   7.520   8.196
 4196WAT     H212831   6.042   7.638   8.084
 4197WAT      O12832   9.001   6.040   3.210
 4197WAT     H112833   8.945   6.102   3.155
 4197WAT     H212834   8.980   6.054   3.307
 4198WAT      O12835   3.785   2.172   7.995
 4198WAT     H112836   3.873   2.217   7.974
 4198WAT     H212837   3.787   2.078   7.961
 4199WAT      O12838   6.940   2.275   2.835
 4199WAT     H112839   6.964   2.179   2.822
 4199WAT     H212840   6.883   2.284   2.917
 4200WAT      O12841   4.916   7.780   4.140
 4200WAT     H112842   4.818   7.798   4.142
 4200WAT     H212843   4.947   7.755   4.232
 4201WAT      O12844   1.997   0.487   1.295
 4201WAT     H112845   1.957   0.578   1.289
 4201WAT     H212846   2.091   0.489   1.261
 4202WAT      O12847   4.209   4.245   8.417
 4202WAT     H112848   4.302   4.238   8.453
 4202WAT     H212849   4.168   4.154   8.410
 4203WAT      O12850   8.498   1.982   2.703
 4203WAT     H112851   8.448   1.913   2.650
 4203WAT     H212852   8.433   2.050   2.738
 4204WAT      O12853   1.669   5.436   0.143
 4204WAT     H112854   1.578   5.396   0.130
 4204WAT     H212855   1.735   5.388   0.085
 4205WAT      O12856   2.762   5.376   1.552
 4205WAT     H112857   2.666   5.365   1.527
 4205WAT     H212858   2.800   5.455   1.504
 4206WAT      O12859   6.853   5.473   6.897
 4206WAT     H112860   6.869   5.437   6.804
 4206WAT     H212861   6.773   5.429   6.936
 4207WAT      O12862   8.058   3.960   6.464
 4207WAT     H112863   8.154   3.985   6.475
 4207WAT     H212864   8.000   4.040   6.480
 4208WAT      O12865   4.696   9.742   1.473
 4208WAT     H112866   4.734   9.830   1.446
 4208WAT     H212867   4.710   9.728   1.571
 4209WAT      O12868   9.642   2.987   2.344
 4209WAT     H112869   9.642   3.012   2.247
 4209WAT     H212870   9.587   3.053   2.395
 4210WAT      O12871   8.717   1.260   7.633
 4210WAT     H112872   8.735   1.213   7.546
 4210WAT     H212873   8.618   1.259   7.650
 4211WAT      O12874   3.874   2.147   3.476
 4211WAT     H112875   3.837   2.086   3.545
 4211WAT     H212876   3.805   2.214   3.449
 4212WAT      O12877   7.202   1.997   5.814
 4212WAT     H112878   7.284   2.041   5.777
 4212WAT     H212879   7.172   2.047   5.896
 4213WAT      O12880   3.533   6.445   9.867
 4213WAT     H112881   3.484   6.523   9.906
 4213WAT     H212882   3.531   6.452   9.767
 4214WAT      O12883   5.346   6.221   6.861
 4214WAT     H112884   5.427   6.272   6.892
 4214WAT     H212885   5.295   6.188   6.941
 4215WAT      O12886   6.954   7.473   6.289
 4215WAT     H112887   6.876   7.413   6.310
 4215WAT     H212888   7.028   7.455   6.355
 4216WAT      O12889   4.878   5.493   3.110
 4216WAT     H112890   4.791   5.513   3.064
 4216WAT     H212891   4.862   5.430   3.185
 4217WAT      O12892   3.129   6.705   1.414
 4217WAT     H112893   3.168   6.794   1.437
 4217WAT     H212894   3.038   6.698   1.455
 4218WAT      O12895   3.911   5.272   7.375
 4218WAT     H112896   3.832   5.223   7.412
 4218WAT     H212897   3.953   5.327   7.447
 4219WAT      O12898   8.759   8.619   6.303
 4219WAT     H112899   8.803   8.690   6.357
 4219WAT     H212900   8.790   8.625   6.208
 4220WAT      O12901   3.006   7.441   3.675
 4220WAT     H112902   2.938   7.394   3.732
 4220WAT     H212903   3.094   7.392   3.681
 4221WAT      O12904   4.253   6.008   2.528
 4221WAT     H112905   4.241   6.077   2.456
 4221WAT     H212906   4.320   5.940   2.497
 4222WAT      O12907   2.504   5.990   8.961
 4222WAT     H112908   2.416   6.038   8.956
 4222WAT     H212909   2.577   6.052   8.934
 4223WAT      O12910   2.570   8.261   4.550
 4223WAT     H112911   2.629   8.283   4.628
 4223WAT     H212912   2.623   8.212   4.481
 4224WAT      O12913   4.217   9.778   4.612
 4224WAT     H112914   4.294   9.819   4.563
 4224WAT     H212915   4.249   9.701   4.667
 4225WAT      O12916   5.930   7.551   7.091
 4225WAT     H112917   5.847   7.510   7.052
 4225WAT     H212918   6.006   7.538   7.028
 4226WAT      O12919   9.825   4.030   7.690
 4226WAT     H112920   9.877   4.031   7.775
 4226WAT     H212921   9.847   4.111   7.637
 4227WAT      O12922   5.585   8.650   4.266
 4227WAT     H112923   5.507   8.647   4.328
 4227WAT     H212924   5.553   8.675   4.174
 4228WAT      O12925   3.036   8.902   4.323
 4228WAT     H112926   3.071   8.964   4.393
 4228WAT     H212927   3.112   8.862   4.273
 4229WAT      O12928   3.526   1.955   4.266
 4229WAT     H112929   3.439   1.930   4.224
 4229WAT     H212930   3.588   1.877   4.265
 4230WAT      O12931   2.649   2.782   1.995
 4230WAT     H112932   2.683   2.846   1.925
 4230WAT     H212933   2.706   2.789   2.077
 4231WAT      O12934   9.418   2.159   2.268
 4231WAT     H112935   9.392   2.249   2.303
 4231WAT     H212936   9.416   2.160   2.168
 4232WAT      O12937   1.813   6.209   6.357
 4232WAT     H112938   1.731   6.245   6.403
 4232WAT     H212939   1.893   6.260   6.388
 4233WAT      O12940   5.381   4.379   3.307
 4233WAT     H112941   5.295   4.343   3.343
 4233WAT     H212942   5.362   4.458   3.249
 4234WAT      O12943   9.190   7.212   9.214
 4234WAT     H112944   9.234   7.259   9.138
 4234WAT     H212945   9.092   7.202   9.194
 4235WAT      O12946   4.651   8.764   1.477
 4235WAT     H112947   4.583   8.752   1.404
 4235WAT     H212948   4.650   8.860   1.507
 4236WAT      O12949   8.819   0.459   0.756
 4236WAT     H112950   8.793   0.467   0.852
 4236WAT     H212951   8.764   0.522   0.702
 4237WAT      O12952   7.283   0.753   5.523
 4237WAT     H112953   7.190   0.783   5.547
 4237WAT     H212954   7.287   0.653   5.523
 4238WAT      O12955   5.988   7.513   0.028
 4238WAT     H112956   5.897   7.471   0.027
 4238WAT     H212957   5.986   7.597  -0.027
 4239WAT      O12958   0.379   6.093   8.117
 4239WAT     H112959   0.441   6.131   8.185
 4239WAT     H212960   0.382   5.993   8.121
 4240WAT      O12961   0.884   1.861   5.832
 4240WAT     H112962   0.866   1.766   5.807
 4240WAT     H212963   0.926   1.864   5.924
 4241WAT      O12964   0.211   0.704   6.806
 4241WAT     H112965   0.251   0.719   6.716
 4241WAT     H212966   0.245   0.617   6.843
 4242WAT      O12967   4.890   1.843   3.479
 4242WAT     H112968   4.901   1.885   3.389
 4242WAT     H212969   4.872   1.745   3.467
 4243WAT      O12970   9.579   9.813   5.973
 4243WAT     H112971   9.664   9.847   6.014
 4243WAT     H212972   9.517   9.784   6.046
 4244WAT      O12973   5.039   4.305   1.115
 4244WAT     H112974   4.982   4.351   1.047
 4244WAT     H212975   4.992   4.224   1.149
 4245WAT      O12976   5.010   3.164   5.785
 4245WAT     H112977   4.953   3.180   5.866
 4245WAT     H212978   4.980   3.081   5.739
 4246WAT      O12979   7.420   5.505   6.267
 4246WAT     H112980   7.328   5.466   6.266
 4246WAT     H212981   7.415   5.605   6.264
 4247WAT      O12982   2.478   6.322   0.229
 4247WAT     H112983   2.574   6.294   0.226
 4247WAT     H212984   2.471   6.421   0.225
 4248WAT      O12985   1.930   8.999   9.238
 4248WAT     H112986   1.912   9.054   9.157
 4248WAT     H212987   1.845   8.956   9.269
 4249WAT      O12988   8.837   1.746   6.939
 4249WAT     H112989   8.791   1.709   6.858
 4249WAT     H212990   8.772   1.754   7.014
 4250WAT      O12991   5.397   3.246   0.310
 4250WAT     H112992   5.433   3.312   0.375
 4250WAT     H212993   5.472   3.192   0.272
 4251WAT      O12994   8.189   1.373   8.348
 4251WAT     H112995   8.171   1.444   8.416
 4251WAT     H212996   8.106   1.318   8.334
 4252WAT      O12997   0.402   4.839   3.882
 4252WAT     H112998   0.305   4.818   3.898
 4252WAT     H212999   0.457   4.803   3.958
 4253WAT      O13000   1.476   5.039   8.135
 4253WAT     H113001   1.514   4.965   8.191
 4253WAT     H213002   1.461   5.120   8.191
 4254WAT      O13003   2.454   4.458   7.531
 4254WAT     H113004   2.470   4.539   7.475
 4254WAT     H213005   2.541   4.410   7.546
 4255WAT      O13006   1.148   2.662   9.340
 4255WAT     H113007   1.131   2.584   9.401
 4255WAT     H213008   1.062   2.707   9.318
 4256WAT      O13009   2.378   2.773   3.952
 4256WAT     H113010   2.477   2.756   3.955
 4256WAT     H213011   2.362   2.870   3.933
 4257WAT      O13012   3.880   2.420   2.555
 4257WAT     H113013   3.842   2.357   2.622
 4257WAT     H213014   3.855   2.514   2.578
 4258WAT      O13015   9.547   7.420   6.523
 4258WAT     H113016   9.608   7.362   6.577
 4258WAT     H213017   9.601   7.487   6.473
 4259WAT      O13018   8.333   2.418   6.406
 4259WAT     H113019   8.327   2.335   6.461
 4259WAT     H213020   8.257   2.422   6.342
 4260WAT      O13021   3.677   4.383   0.598
 4260WAT     H113022   3.675   4.425   0.689
 4260WAT     H213023   3.629   4.295   0.601
 4261WAT      O13024   5.808   6.994   8.812
 4261WAT     H113025   5.810   6.981   8.911
 4261WAT     H213026   5.895   6.963   8.773
 4262WAT      O13027   2.383   0.929   0.029
 4262WAT     H113028   2.385   1.029   0.038
 4262WAT     H213029   2.475   0.892   0.043
 4263WAT      O13030   3.334   7.558   7.302
 4263WAT     H113031   3.281   7.478   7.275
 4263WAT     H213032   3.387   7.591   7.224
 4264WAT      O13033   2.174   5.639   4.868
 4264WAT     H113034   2.160   5.720   4.811
 4264WAT     H213035   2.106   5.637   4.941
 4265WAT      O13036   3.137   4.106   3.668
 4265WAT     H113037   3.234   4.126   3.652
 4265WAT     H213038   3.106   4.037   3.603
 4266WAT      O13039   5.736   8.473   1.689
 4266WAT     H113040   5.665   8.542   1.676
 4266WAT     H213041   5.694   8.386   1.715
 4267WAT      O13042   2.118   5.820   0.492
 4267WAT     H113043   2.126   5.856   0.399
 4267WAT     H213044   2.072   5.888   0.549
 4268WAT      O13045   8.188   7.370   2.111
 4268WAT     H113046   8.130   7.291   2.132
 4268WAT     H213047   8.267   7.369   2.173
 4269WAT      O13048   8.722   6.332   6.553
 4269WAT     H113049   8.643   6.341   6.613
 4269WAT     H213050   8.758   6.422   6.531
 4270WAT      O13051   5.948   6.366   3.806
 4270WAT     H113052   5.848   6.353   3.807
 4270WAT     H213053   5.979   6.391   3.897
 4271WAT      O13054   0.573   7.728   2.488
 4271WAT     H113055   0.599   7.824   2.480
 4271WAT     H213056   0.537   7.710   2.579
 4272WAT      O13057   6.119   5.078   0.269
 4272WAT     H113058   6.164   5.164   0.246
 4272WAT     H213059   6.087   5.034   0.185
 4273WAT      O13060   5.932   4.792   7.041
 4273WAT     H113061   5.994   4.818   7.115
 4273WAT     H213062   5.985   4.758   6.964
 4274WAT      O13063   4.043   2.345   4.984
 4274WAT     H113064   4.103   2.305   5.054
 4274WAT     H213065   3.950   2.311   4.998
 4275WAT      O13066   8.747   9.343   3.001
 4275WAT     H113067   8.760   9.441   3.017
 4275WAT     H213068   8.745   9.325   2.903
 4276WAT      O13069   4.238   9.079   4.714
 4276WAT     H113070   4.166   9.044   4.774
 4276WAT     H213071   4.226   9.042   4.622
 4277WAT      O13072   8.824   6.214   3.099
 4277WAT     H113073   8.798   6.301   3.059
 4277WAT     H213074   8.782   6.139   3.047
 4278WAT      O13075   0.013   4.413   4.212
 4278WAT     H113076   0.064   4.367   4.285
 4278WAT     H213077   0.046   4.381   4.123
 4279WAT      O13078   4.117   0.945   8.280
 4279WAT     H113079   4.050   0.994   8.224
 4279WAT     H213080   4.070   0.894   8.352
 4280WAT      O13081   2.485   4.550   4.870
 4280WAT     H113082   2.561   4.616   4.863
 4280WAT     H213083   2.485   4.510   4.962
 4281WAT      O13084   5.396   1.498   7.646
 4281WAT     H113085   5.447   1.416   7.671
 4281WAT     H213086   5.310   1.499   7.696
 4282WAT      O13087   1.472   4.853   0.154
 4282WAT     H113088   1.545   4.901   0.203
 4282WAT     H213089   1.397   4.917   0.137
 4283WAT      O13090   5.462   5.046   6.408
 4283WAT     H113091   5.542   5.029   6.350
 4283WAT     H213092   5.491   5.045   6.504
 4284WAT      O13093   2.844   5.609   5.939
 4284WAT     H113094   2.815   5.635   5.847
 4284WAT     H213095   2.932   5.652   5.960
 4285WAT      O13096   8.847   8.328   8.524
 4285WAT     H113097   8.926   8.372   8.566
 4285WAT     H213098   8.851   8.229   8.539
 4286WAT      O13099   1.008   4.854   2.679
 4286WAT     H113100   1.088   4.902   2.715
 4286WAT     H213101   0.933   4.860   2.745
 4287WAT      O13102   9.515   2.005   0.550
 4287WAT     H113103   9.446   1.981   0.618
 4287WAT     H213104   9.573   1.925   0.533
 4288WAT      O13105   8.492   2.542   4.902
 4288WAT     H113106   8.462   2.479   4.830
 4288WAT     H213107   8.472   2.636   4.875
 4289WAT      O13108   9.652   8.068   8.012
 4289WAT     H113109   9.694   8.157   8.033
 4289WAT     H213110   9.571   8.083   7.955
 4290WAT      O13111   2.452   6.556   6.123
 4290WAT     H113112   2.449   6.625   6.195
 4290WAT     H213113   2.496   6.594   6.042
 4291WAT      O13114   3.678   9.199   5.540
 4291WAT     H113115   3.639   9.192   5.449
 4291WAT     H213116   3.712   9.109   5.569
 4292WAT      O13117   0.499   3.534   2.276
 4292WAT     H113118   0.556   3.599   2.326
 4292WAT     H213119   0.480   3.571   2.185
 4293WAT      O13120   1.075   3.906   7.794
 4293WAT     H113121   1.094   3.892   7.891
 4293WAT     H213122   1.107   3.996   7.766
 4294WAT      O13123   8.951   8.308   5.829
 4294WAT     H113124   8.937   8.407   5.821
 4294WAT     H213125   8.868   8.266   5.867
 4295WAT      O13126   7.040   1.594   8.381
 4295WAT     H113127   6.955   1.582   8.433
 4295WAT     H213128   7.080   1.683   8.403
 4296WAT      O13129   7.973   1.184   8.011
 4296WAT     H113130   7.950   1.263   8.067
 4296WAT     H213131   8.004   1.109   8.069
 4297WAT      O13132   1.463   5.678   9.406
 4297WAT     H113133   1.394   5.697   9.475
 4297WAT     H213134   1.428   5.607   9.343
 4298WAT      O13135   5.046   9.076   9.547
 4298WAT     H113136   5.042   9.154   9.609
 4298WAT     H213137   5.055   8.992   9.600
 4299WAT      O13138   6.754   0.987   0.924
 4299WAT     H113139   6.677   0.949   0.872
 4299WAT     H213140   6.720   1.025   1.010
 4300WAT      O13141   7.015   8.611   2.718
 4300WAT     H113142   7.071   8.569   2.789
 4300WAT     H213143   6.981   8.700   2.750
 4301WAT      O13144   3.976   3.266   0.592
 4301WAT     H113145   3.980   3.315   0.504
 4301WAT     H213146   3.900   3.302   0.646
 4302WAT      O13147   4.032   8.872   2.643
 4302WAT     H113148   3.959   8.912   2.698
 4302WAT     H213149   4.112   8.932   2.644
 4303WAT      O13150   4.740   9.740   0.927
 4303WAT     H113151   4.713   9.804   0.855
 4303WAT     H213152   4.679   9.752   1.006
 4304WAT      O13153   6.941   2.973   0.618
 4304WAT     H113154   7.022   2.916   0.625
 4304WAT     H213155   6.914   3.004   0.710
 4305WAT      O13156   9.631   9.786   5.392
 4305WAT     H113157   9.570   9.864   5.406
 4305WAT     H213158   9.679   9.765   5.477
 4306WAT      O13159   1.739   1.820   1.379
 4306WAT     H113160   1.814   1.810   1.313
 4306WAT     H213161   1.728   1.735   1.430
 4307WAT      O13162   1.934   3.057   5.261
 4307WAT     H113163   1.936   2.984   5.329
 4307WAT     H213164   1.886   3.026   5.179
 4308WAT      O13165   9.845   1.661   8.676
 4308WAT     H113166   9.942   1.684   8.670
 4308WAT     H213167   9.791   1.745   8.684
 4309WAT      O13168   8.881   0.419   2.272
 4309WAT     H113169   8.979   0.411   2.255
 4309WAT     H213170   8.831   0.371   2.201
 4310WAT      O13171   0.528   4.553   5.440
 4310WAT     H113172   0.574   4.553   5.528
 4310WAT     H213173   0.439   4.507   5.449
 4311WAT      O13174   0.643   6.416   3.651
 4311WAT     H113175   0.628   6.441   3.746
 4311WAT     H213176   0.741   6.408   3.634
 4312WAT      O13177   1.410   3.402   6.584
 4312WAT     H113178   1.475   3.427   6.655
 4312WAT     H213179   1.458   3.390   6.497
 4313WAT      O13180   4.273   5.800   1.722
 4313WAT     H113181   4.231   5.763   1.639
 4313WAT     H213182   4.225   5.883   1.750
 4314WAT      O13183   5.304   6.506   2.239
 4314WAT     H113184   5.358   6.587   2.214
 4314WAT     H213185   5.338   6.469   2.325
 4315WAT      O13186   2.686   4.336   0.237
 4315WAT     H113187   2.645   4.261   0.185
 4315WAT     H213188   2.784   4.340   0.219
 4316WAT      O13189   3.271   3.171   6.662
 4316WAT     H113190   3.365   3.204   6.659
 4316WAT     H213191   3.230   3.195   6.750
 4317WAT      O13192   8.495   6.518   7.866
 4317WAT     H113193   8.450   6.429   7.865
 4317WAT     H213194   8.514   6.545   7.960
 4318WAT      O13195   7.468   0.586   4.605
 4318WAT     H113196   7.395   0.527   4.572
 4318WAT     H213197   7.451   0.609   4.701
 4319WAT      O13198   3.477   5.198   5.483
 4319WAT     H113199   3.506   5.221   5.575
 4319WAT     H213200   3.509   5.106   5.459
 4320WAT      O13201   1.454   9.225   0.041
 4320WAT     H113202   1.454   9.325   0.042
 4320WAT     H213203   1.491   9.190   0.127
 4321WAT      O13204   3.688   3.446   8.963
 4321WAT     H113205   3.729   3.400   8.884
 4321WAT     H213206   3.694   3.545   8.950
 4322WAT      O13207   1.453   2.770   9.119
 4322WAT     H113208   1.465   2.727   9.029
 4322WAT     H213209   1.362   2.809   9.125
 4323WAT      O13210   1.041   2.348   6.560
 4323WAT     H113211   1.028   2.381   6.466
 4323WAT     H213212   1.113   2.402   6.604
 4324WAT      O13213   8.179   3.500   0.803
 4324WAT     H113214   8.232   3.432   0.853
 4324WAT     H213215   8.236   3.581   0.787
 4325WAT      O13216   9.069   4.165   4.053
 4325WAT     H113217   9.021   4.240   4.008
 4325WAT     H213218   9.168   4.174   4.037
 4326WAT      O13219   3.394   5.742   6.151
 4326WAT     H113220   3.381   5.733   6.250
 4326WAT     H213221   3.321   5.798   6.113
 4327WAT      O13222   9.882   1.812   5.322
 4327WAT     H113223   9.821   1.741   5.288
 4327WAT     H213224   9.977   1.788   5.299
 4328WAT      O13225   1.151   2.973   8.811
 4328WAT     H113226   1.078   2.924   8.764
 4328WAT     H213227   1.117   3.061   8.843
 4329WAT      O13228   8.275   0.609   6.990
 4329WAT     H113229   8.313   0.589   6.899
 4329WAT     H213230   8.298   0.534   7.053
 4330WAT      O13231   0.376   1.294   2.470
 4330WAT     H113232   0.313   1.291   2.392
 4330WAT     H213233   0.338   1.353   2.541
 4331WAT      O13234   7.746   7.910   5.742
 4331WAT     H113235   7.799   7.968   5.804
 4331WAT     H213236   7.721   7.962   5.661
 4332WAT      O13237   7.831   4.581   7.186
 4332WAT     H113238   7.734   4.560   7.187
 4332WAT     H213239   7.857   4.622   7.273
 4333WAT      O13240   6.806   3.627   0.167
 4333WAT     H113241   6.755   3.571   0.232
 4333WAT     H213242   6.742   3.680   0.111
 4334WAT      O13243   9.108   7.081   2.106
 4334WAT     H113244   9.110   7.085   2.206
 4334WAT     H213245   9.190   7.035   2.072
 4335WAT      O13246   4.926   3.024   4.365
 4335WAT     H113247   5.004   2.966   4.391
 4335WAT     H213248   4.852   3.012   4.430
 4336WAT      O13249   7.978   3.074   9.750
 4336WAT     H113250   7.995   2.992   9.696
 4336WAT     H213251   8.008   3.059   9.844
 4337WAT      O13252   8.908   2.048   0.031
 4337WAT     H113253   8.923   2.145   0.047
 4337WAT     H213254   8.827   2.018   0.081
 4338WAT      O13255   3.318   1.378   6.498
 4338WAT     H113256   3.238   1.366   6.557
 4338WAT     H213257   3.297   1.446   6.428
 4339WAT      O13258   1.581   5.843   4.998
 4339WAT     H113259   1.576   5.748   5.029
 4339WAT     H213260   1.632   5.897   5.065
 4340WAT      O13261   6.012   2.600   2.562
 4340WAT     H113262   6.082   2.549   2.513
 4340WAT     H213263   6.018   2.581   2.660
 4341WAT      O13264   1.408   6.093   3.895
 4341WAT     H113265   1.357   6.035   3.959
 4341WAT     H213266   1.354   6.109   3.813
 4342WAT      O13267   3.048   4.730   1.991
 4342WAT     H113268   2.992   4.658   1.950
 4342WAT     H213269   2.992   4.782   2.056
 4343WAT      O13270   9.375   3.425   1.136
 4343WAT     H113271   9.363   3.384   1.227
 4343WAT     H213272   9.446   3.376   1.086
 4344WAT      O13273   2.223   4.228   9.395
 4344WAT     H113274   2.183   4.143   9.363
 4344WAT     H213275   2.296   4.209   9.460
 4345WAT      O13276   9.314   3.916   3.027
 4345WAT     H113277   9.316   3.849   2.953
 4345WAT     H213278   9.286   4.005   2.991
 4346WAT      O13279   4.131   6.809   1.305
 4346WAT     H113280   4.132   6.894   1.253
 4346WAT     H213281   4.210   6.807   1.366
 4347WAT      O13282   3.150   0.416   3.758
 4347WAT     H113283   3.129   0.372   3.846
 4347WAT     H213284   3.123   0.356   3.683
 4348WAT      O13285   7.035   8.894   2.876
 4348WAT     H113286   7.036   8.987   2.911
 4348WAT     H213287   7.129   8.858   2.874
 4349WAT      O13288   9.701   6.280   5.059
 4349WAT     H113289   9.776   6.265   4.995
 4349WAT     H213290   9.649   6.361   5.031
 4350WAT      O13291   3.645   9.751   0.165
 4350WAT     H113292   3.698   9.831   0.139
 4350WAT     H213293   3.604   9.710   0.083
 4351WAT      O13294   5.728   3.400   0.329
 4351WAT     H113295   5.695   3.422   0.421
 4351WAT     H213296   5.740   3.302   0.320
 4352WAT      O13297   2.748   5.463   0.629
 4352WAT     H113298   2.838   5.443   0.668
 4352WAT     H213299   2.722   5.556   0.653
 4353WAT      O13300   8.533   4.012   2.843
 4353WAT     H113301   8.550   4.049   2.934
 4353WAT     H213302   8.447   4.047   2.808
 4354WAT      O13303   9.472   1.132   8.733
 4354WAT     H113304   9.435   1.212   8.780
 4354WAT     H213305   9.456   1.051   8.790
 4355WAT      O13306   3.715   7.383   3.303
 4355WAT     H113307   3.763   7.471   3.307
 4355WAT     H213308   3.628   7.391   3.352
 4356WAT      O13309   3.413   6.454   4.222
 4356WAT     H113310   3.353   6.389   4.268
 4356WAT     H213311   3.363   6.498   4.147
 4357WAT      O13312   9.773   8.359   0.585
 4357WAT     H113313   9.805   8.264   0.586
 4357WAT     H213314   9.765   8.391   0.491
 4358WAT      O13315   8.281   6.330   8.304
 4358WAT     H113316   8.289   6.426   8.331
 4358WAT     H213317   8.365   6.281   8.327
 4359WAT      O13318   4.038   9.375   7.391
 4359WAT     H113319   4.072   9.364   7.484
 4359WAT     H213320   4.048   9.288   7.342
 4360WAT      O13321   4.983   5.521   9.420
 4360WAT     H113322   4.969   5.617   9.394
 4360WAT     H213323   5.051   5.515   9.492
 4361WAT      O13324   0.778   4.109   0.113
 4361WAT     H113325   0.864   4.058   0.116
 4361WAT     H213326   0.706   4.052   0.073
 4362WAT      O13327   3.619   6.109   0.867
 4362WAT     H113328   3.645   6.020   0.905
 4362WAT     H213329   3.527   6.103   0.828
 4363WAT      O13330   4.940   8.825   0.819
 4363WAT     H113331   4.887   8.811   0.735
 4363WAT     H213332   4.879   8.818   0.898
 4364WAT      O13333   5.347   6.715   2.634
 4364WAT     H113334   5.354   6.639   2.698
 4364WAT     H213335   5.253   6.722   2.600
 4365WAT      O13336   6.247   0.246   2.129
 4365WAT     H113337   6.245   0.230   2.228
 4365WAT     H213338   6.251   0.158   2.082
 4366WAT      O13339   9.051   4.647   3.343
 4366WAT     H113340   9.110   4.711   3.393
 4366WAT     H213341   9.011   4.581   3.408
 4367WAT      O13342   6.055   5.119   2.218
 4367WAT     H113343   6.049   5.197   2.280
 4367WAT     H213344   6.148   5.081   2.221
 4368WAT      O13345   3.133   4.373   5.269
 4368WAT     H113346   3.216   4.415   5.307
 4368WAT     H213347   3.158   4.317   5.191
 4369WAT      O13348   1.266   8.461   6.873
 4369WAT     H113349   1.342   8.465   6.937
 4369WAT     H213350   1.253   8.366   6.843
 4370WAT      O13351   7.712   5.738   4.521
 4370WAT     H113352   7.694   5.712   4.427
 4370WAT     H213353   7.761   5.826   4.522
 4371WAT      O13354   1.707   4.460   3.029
 4371WAT     H113355   1.767   4.515   2.971
 4371WAT     H213356   1.752   4.446   3.118
 4372WAT      O13357   7.422   1.484   3.536
 4372WAT     H113358   7.462   1.569   3.569
 4372WAT     H213359   7.419   1.485   3.436
 4373WAT      O13360   2.996   2.116   0.195
 4373WAT     H113361   2.918   2.154   0.145
 4373WAT     H213362   3.076   2.113   0.135
 4374WAT      O13363   8.880   9.350   8.337
 4374WAT     H113364   8.845   9.439   8.310
 4374WAT     H213365   8.963   9.361   8.391
 4375WAT      O13366   8.969   9.835   5.587
 4375WAT     H113367   9.017   9.921   5.604
 4375WAT     H213368   8.905   9.846   5.511
 4376WAT      O13369   0.676   6.309   3.086
 4376WAT     H113370   0.644   6.316   3.181
 4376WAT     H213371   0.607   6.344   3.024
 4377WAT      O13372   0.634   5.289   5.892
 4377WAT     H113373   0.553   5.235   5.870
 4377WAT     H213374   0.688   5.241   5.962
 4378WAT      O13375   1.389   9.504   3.772
 4378WAT     H113376   1.391   9.464   3.680
 4378WAT     H213377   1.474   9.482   3.820
 4379WAT      O13378   4.156   9.816   4.146
 4379WAT     H113379   4.197   9.757   4.215
 4379WAT     H213380   4.089   9.877   4.189
 4380WAT      O13381   3.795   4.576   3.441
 4380WAT     H113382   3.781   4.572   3.540
 4380WAT     H213383   3.819   4.670   3.416
 4381WAT      O13384   4.185   1.310   2.504
 4381WAT     H113385   4.172   1.362   2.588
 4381WAT     H213386   4.260   1.246   2.515
 4382WAT      O13387   4.215   8.302   4.915
 4382WAT     H113388   4.127   8.343   4.939
 4382WAT     H213389   4.286   8.335   4.978
 4383WAT      O13390   1.303   5.105   0.082
 4383WAT     H113391   1.262   5.073  -0.004
 4383WAT     H213392   1.248   5.072   0.159
 4384WAT      O13393   8.735   3.730   6.545
 4384WAT     H113394   8.726   3.686   6.634
 4384WAT     H213395   8.810   3.796   6.548
 4385WAT      O13396   5.407   8.552   1.090
 4385WAT     H113397   5.505   8.539   1.103
 4385WAT     H213398   5.373   8.486   1.023
 4386WAT      O13399   2.412   3.949   0.266
 4386WAT     H113400   2.325   3.902   0.281
 4386WAT     H213401   2.475   3.889   0.218
 4387WAT      O13402   9.869   3.083   1.854
 4387WAT     H113403   9.945   3.103   1.915
 4387WAT     H213404   9.840   2.988   1.866
 4388WAT      O13405   1.058   0.076   9.013
 4388WAT     H113406   0.968   0.097   8.974
 4388WAT     H213407   1.099   0.160   9.048
 4389WAT      O13408   7.674   4.549   7.508
 4389WAT     H113409   7.659   4.543   7.410
 4389WAT     H213410   7.750   4.490   7.534
 4390WAT      O13411   5.095   7.040   4.548
 4390WAT     H113412   5.032   7.011   4.620
 4390WAT     H213413   5.153   7.114   4.582
 4391WAT      O13414   9.826   5.318   6.961
 4391WAT     H113415   9.896   5.382   6.929
 4391WAT     H213416   9.752   5.370   7.006
 4392WAT      O13417   3.850   5.078   2.730
 4392WAT     H113418   3.886   4.994   2.690
 4392WAT     H213419   3.924   5.127   2.776
 4393WAT      O13420   9.777   8.554   3.273
 4393WAT     H113421   9.788   8.631   3.209
 4393WAT     H213422   9.786   8.587   3.367
 4394WAT      O13423   2.132   1.321   7.932
 4394WAT     H113424   2.077   1.371   7.999
 4394WAT     H213425   2.074   1.289   7.857
 4395WAT      O13426   7.255   0.936   1.591
 4395WAT     H113427   7.276   0.963   1.685
 4395WAT     H213428   7.193   0.858   1.591
 4396WAT      O13429   8.209   0.078   2.868
 4396WAT     H113430   8.200   0.175   2.849
 4396WAT     H213431   8.118   0.036   2.871
 4397WAT      O13432   1.182   6.643   0.248
 4397WAT     H113433   1.152   6.678   0.159
 4397WAT     H213434   1.236   6.713   0.294
 4398WAT      O13435   7.066   2.425   7.665
 4398WAT     H113436   7.102   2.340   7.702
 4398WAT     H213437   7.086   2.431   7.567
 4399WAT      O13438   5.089   4.385   3.637
 4399WAT     H113439   5.096   4.482   3.660
 4399WAT     H213440   5.122   4.330   3.713
 4400WAT      O13441   3.771   0.424   1.857
 4400WAT     H113442   3.857   0.417   1.807
 4400WAT     H213443   3.735   0.517   1.849
 4401WAT      O13444   7.283   8.239   7.558
 4401WAT     H113445   7.328   8.232   7.468
 4401WAT     H213446   7.275   8.335   7.584
 4402WAT      O13447   7.537   5.349   3.299
 4402WAT     H113448   7.548   5.275   3.365
 4402WAT     H213449   7.497   5.313   3.215
 4403WAT      O13450   8.637   6.392   2.486
 4403WAT     H113451   8.664   6.296   2.493
 4403WAT     H213452   8.702   6.440   2.427
 4404WAT      O13453   6.271   1.380   8.125
 4404WAT     H113454   6.257   1.479   8.121
 4404WAT     H213455   6.187   1.336   8.155
 4405WAT      O13456   1.715   9.231   8.421
 4405WAT     H113457   1.634   9.190   8.462
 4405WAT     H213458   1.699   9.245   8.323
 4406WAT      O13459   1.816   2.781   2.975
 4406WAT     H113460   1.739   2.795   2.912
 4406WAT     H213461   1.788   2.718   3.048
 4407WAT      O13462   7.475   6.614   6.861
 4407WAT     H113463   7.526   6.673   6.798
 4407WAT     H213464   7.396   6.665   6.896
 4408WAT      O13465   2.780   8.590   6.267
 4408WAT     H113466   2.815   8.601   6.360
 4408WAT     H213467   2.709   8.658   6.249
 4409WAT      O13468   5.417   8.446   0.018
 4409WAT     H113469   5.483   8.406   0.081
 4409WAT     H213470   5.325   8.417   0.043
 4410WAT      O13471   2.445   7.036   7.091
 4410WAT     H113472   2.451   7.028   6.992
 4410WAT     H213473   2.353   7.065   7.117
 4411WAT      O13474   8.000   4.160   4.986
 4411WAT     H113475   8.069   4.090   5.005
 4411WAT     H213476   7.913   4.116   4.960
 4412WAT      O13477   9.205   0.254   3.874
 4412WAT     H113478   9.245   0.179   3.821
 4412WAT     H213479   9.129   0.295   3.822
 4413WAT      O13480   6.494   5.543   3.229
 4413WAT     H113481   6.556   5.620   3.244
 4413WAT     H213482   6.405   5.562   3.271
 4414WAT      O13483   4.252   0.373   7.708
 4414WAT     H113484   4.297   0.421   7.783
 4414WAT     H213485   4.319   0.323   7.654
 4415WAT      O13486   3.189   9.159   8.501
 4415WAT     H113487   3.132   9.226   8.547
 4415WAT     H213488   3.268   9.137   8.558
 4416WAT      O13489   0.022   7.613   0.349
 4416WAT     H113490   0.012   7.636   0.446
 4416WAT     H213491  -0.067   7.591   0.310
 4417WAT      O13492   4.376   5.150   7.602
 4417WAT     H113493   4.345   5.073   7.546
 4417WAT     H213494   4.373   5.234   7.548
 4418WAT      O13495   0.285   6.266   3.236
 4418WAT     H113496   0.261   6.202   3.310
 4418WAT     H213497   0.267   6.360   3.266
 4419WAT      O13498   5.114   6.773   5.055
 4419WAT     H113499   5.067   6.853   5.091
 4419WAT     H213500   5.067   6.690   5.085
 4420WAT      O13501   4.225   2.183   4.240
 4420WAT     H113502   4.291   2.163   4.168
 4420WAT     H213503   4.169   2.261   4.213
 4421WAT      O13504   5.813   1.640   6.345
 4421WAT     H113505   5.913   1.640   6.334
 4421WAT     H213506   5.770   1.680   6.264
 4422WAT      O13507   8.309   6.763   8.199
 4422WAT     H113508   8.244   6.784   8.126
 4422WAT     H213509   8.383   6.706   8.164
 4423WAT      O13510   7.626   0.884   5.824
 4423WAT     H113511   7.680   0.808   5.787
 4423WAT     H213512   7.603   0.947   5.750
 4424WAT      O13513   3.539   7.288   5.667
 4424WAT     H113514   3.488   7.372   5.686
 4424WAT     H213515   3.637   7.310   5.658
 4425WAT      O13516   4.184   7.332   5.496
 4425WAT     H113517   4.198   7.320   5.594
 4425WAT     H213518   4.237   7.262   5.446
 4426WAT      O13519   8.173   1.678   2.651
 4426WAT     H113520   8.102   1.696   2.583
 4426WAT     H213521   8.250   1.633   2.607
 4427WAT      O13522   9.768   8.809   0.729
 4427WAT     H113523   9.833   8.740   0.698
 4427WAT     H213524   9.702   8.829   0.657
 4428WAT      O13525   9.628   2.425   0.052
 4428WAT     H113526   9.634   2.325   0.050
 4428WAT     H213527   9.716   2.464   0.081
 4429WAT      O13528   4.481   8.537   5.304
 4429WAT     H113529   4.463   8.481   5.385
 4429WAT     H213530   4.423   8.618   5.306
 4430WAT      O13531   3.695   5.860   1.905
 4430WAT     H113532   3.761   5.796   1.943
 4430WAT     H213533   3.636   5.813   1.840
 4431WAT      O13534   0.617   1.172   5.134
 4431WAT     H113535   0.573   1.222   5.209
 4431WAT     H213536   0.680   1.234   5.087
 4432WAT      O13537   0.624   3.460   4.863
 4432WAT     H113538   0.646   3.397   4.789
 4432WAT     H213539   0.555   3.418   4.923
 4433WAT      O13540   4.786   1.673   8.934
 4433WAT     H113541   4.863   1.609   8.939
 4433WAT     H213542   4.819   1.762   8.904
 4434WAT      O13543   5.454   8.194   1.026
 4434WAT     H113544   5.553   8.179   1.020
 4434WAT     H213545   5.406   8.110   1.001
 4435WAT      O13546   6.298   9.644   1.783
 4435WAT     H113547   6.265   9.738   1.780
 4435WAT     H213548   6.360   9.633   1.861
 4436WAT      O13549   4.115   8.215   2.591
 4436WAT     H113550   4.081   8.143   2.530
 4436WAT     H213551   4.196   8.258   2.551
 4437WAT      O13552   6.965   3.197   1.280
 4437WAT     H113553   6.974   3.256   1.361
 4437WAT     H213554   6.879   3.147   1.284
 4438WAT      O13555   8.164   3.530   1.467
 4438WAT     H113556   8.183   3.604   1.404
 4438WAT     H213557   8.130   3.451   1.416
 4439WAT      O13558   3.515   6.784   6.232
 4439WAT     H113559   3.500   6.773   6.134
 4439WAT     H213560   3.548   6.876   6.250
 4440WAT      O13561   8.654   8.467   4.804
 4440WAT     H113562   8.584   8.410   4.761
 4440WAT     H213563   8.623   8.562   4.806
 4441WAT      O13564   6.660   9.497   4.248
 4441WAT     H113565   6.697   9.406   4.268
 4441WAT     H213566   6.692   9.562   4.317
 4442WAT      O13567   7.263   4.023   3.446
 4442WAT     H113568   7.191   4.050   3.509
 4442WAT     H213569   7.280   4.096   3.380
 4443WAT      O13570   9.687   1.785   7.353
 4443WAT     H113571   9.722   1.806   7.261
 4443WAT     H213572   9.710   1.860   7.415
 4444WAT      O13573   5.248   9.291   5.114
 4444WAT     H113574   5.250   9.305   5.015
 4444WAT     H213575   5.153   9.279   5.144
 4445WAT      O13576   0.602   7.081   7.079
 4445WAT     H113577   0.699   7.088   7.056
 4445WAT     H213578   0.572   7.166   7.123
 4446WAT      O13579   3.017   4.083   1.910
 4446WAT     H113580   3.018   4.179   1.939
 4446WAT     H213581   3.036   4.077   1.812
 4447WAT      O13582   9.483   0.613   7.655
 4447WAT     H113583   9.413   0.685   7.658
 4447WAT     H213584   9.551   0.635   7.585
 4448WAT      O13585   0.361   4.759   8.055
 4448WAT     H113586   0.368   4.799   7.964
 4448WAT     H213587   0.295   4.810   8.110
 4449WAT      O13588   7.867   1.820   7.353
 4449WAT     H113589   7.783   1.835   7.301
 4449WAT     H213590   7.865   1.730   7.395
 4450WAT      O13591   1.871   1.811   4.889
 4450WAT     H113592   1.906   1.760   4.811
 4450WAT     H213593   1.930   1.795   4.968
 4451WAT      O13594   8.253   4.911   4.972
 4451WAT     H113595   8.211   4.974   4.908
 4451WAT     H213596   8.336   4.872   4.931
 4452WAT      O13597   0.264   5.610   8.351
 4452WAT     H113598   0.195   5.670   8.309
 4452WAT     H213599   0.346   5.663   8.371
 4453WAT      O13600   8.512   1.774   5.195
 4453WAT     H113601   8.443   1.845   5.209
 4453WAT     H213602   8.599   1.816   5.170
 4454WAT      O13603   9.348   5.110   7.202
 4454WAT     H113604   9.319   5.166   7.124
 4454WAT     H213605   9.286   5.031   7.211
 4455WAT      O13606   2.588   2.579   8.863
 4455WAT     H113607   2.643   2.502   8.829
 4455WAT     H213608   2.491   2.558   8.849
 4456WAT      O13609   5.666   9.083   7.017
 4456WAT     H113610   5.734   9.129   6.960
 4456WAT     H213611   5.597   9.149   7.045
 4457WAT      O13612   0.079   2.421   4.581
 4457WAT     H113613   0.142   2.415   4.659
 4457WAT     H213614  -0.011   2.448   4.614
 4458WAT      O13615   5.659   5.730   4.015
 4458WAT     H113616   5.595   5.788   3.964
 4458WAT     H213617   5.714   5.677   3.950
 4459WAT      O13618   4.095   7.922   8.014
 4459WAT     H113619   4.052   7.985   7.949
 4459WAT     H213620   4.026   7.860   8.051
 4460WAT      O13621   8.462   6.288   7.561
 4460WAT     H113622   8.389   6.225   7.534
 4460WAT     H213623   8.549   6.240   7.562
 4461WAT      O13624   4.747   7.251   0.683
 4461WAT     H113625   4.758   7.351   0.688
 4461WAT     H213626   4.670   7.224   0.741
 4462WAT      O13627   6.215   3.446   1.303
 4462WAT     H113628   6.314   3.433   1.307
 4462WAT     H213629   6.189   3.484   1.215
 4463WAT      O13630   0.834   3.773   6.986
 4463WAT     H113631   0.792   3.749   6.898
 4463WAT     H213632   0.932   3.788   6.973
 4464WAT      O13633   7.872   8.119   1.242
 4464WAT     H113634   7.926   8.139   1.324
 4464WAT     H213635   7.854   8.204   1.193
 4465WAT      O13636   6.303   3.781   0.887
 4465WAT     H113637   6.245   3.753   0.963
 4465WAT     H213638   6.254   3.849   0.831
 4466WAT      O13639   8.600   2.513   2.442
 4466WAT     H113640   8.691   2.499   2.402
 4466WAT     H213641   8.590   2.454   2.523
 4467WAT      O13642   1.101   4.231   1.734
 4467WAT     H113643   1.078   4.157   1.671
 4467WAT     H213644   1.114   4.316   1.682
 4468WAT      O13645   3.193   3.602   6.540
 4468WAT     H113646   3.215   3.620   6.444
 4468WAT     H213647   3.122   3.531   6.544
 4469WAT      O13648   8.118   3.442   8.580
 4469WAT     H113649   8.027   3.462   8.543
 4469WAT     H213650   8.118   3.351   8.620
 4470WAT      O13651   6.135   8.682   2.665
 4470WAT     H113652   6.052   8.728   2.697
 4470WAT     H213653   6.212   8.705   2.725
 4471WAT      O13654   0.596   0.449   3.353
 4471WAT     H113655   0.636   0.538   3.332
 4471WAT     H213656   0.619   0.384   3.280
 4472WAT      O13657   3.937   4.444   1.633
 4472WAT     H113658   3.976   4.447   1.541
 4472WAT     H213659   4.010   4.433   1.700
 4473WAT      O13660   2.827   7.875   0.523
 4473WAT     H113661   2.779   7.912   0.603
 4473WAT     H213662   2.796   7.782   0.505
 4474WAT      O13663   7.025   0.968   2.550
 4474WAT     H113664   6.959   0.996   2.620
 4474WAT     H213665   7.116   1.000   2.576
 4475WAT      O13666   1.301   9.218   4.895
 4475WAT     H113667   1.239   9.247   4.967
 4475WAT     H213668   1.395   9.241   4.921
 4476WAT      O13669   3.257   4.538   4.880
 4476WAT     H113670   3.357   4.538   4.876
 4476WAT     H213671   3.224   4.632   4.872
 4477WAT      O13672   4.238   6.641   6.871
 4477WAT     H113673   4.255   6.739   6.875
 4477WAT     H213674   4.278   6.603   6.787
 4478WAT      O13675   7.034   7.623   9.674
 4478WAT     H113676   7.118   7.572   9.658
 4478WAT     H213677   7.002   7.606   9.767
 4479WAT      O13678   5.642   2.683   7.052
 4479WAT     H113679   5.723   2.627   7.067
 4479WAT     H213680   5.654   2.739   6.970
 4480WAT      O13681   4.632   4.171   0.644
 4480WAT     H113682   4.545   4.219   0.634
 4480WAT     H213683   4.706   4.238   0.654
 4481WAT      O13684   6.839   8.216   1.964
 4481WAT     H113685   6.779   8.293   1.984
 4481WAT     H213686   6.931   8.236   1.999
 4482WAT      O13687   0.294   4.701   1.337
 4482WAT     H113688   0.203   4.692   1.376
 4482WAT     H213689   0.326   4.612   1.304
 4483WAT      O13690   4.138   0.921   5.768
 4483WAT     H113691   4.195   0.843   5.796
 4483WAT     H213692   4.183   0.970   5.694
 4484WAT      O13693   8.458   8.116   3.093
 4484WAT     H113694   8.387   8.144   3.157
 4484WAT     H213695   8.532   8.183   3.093
 4485WAT      O13696   1.742   7.808   8.600
 4485WAT     H113697   1.676   7.813   8.526
 4485WAT     H213698   1.760   7.900   8.636
 4486WAT      O13699   7.152   6.372   6.179
 4486WAT     H113700   7.122   6.311   6.252
 4486WAT     H213701   7.123   6.465   6.199
 4487WAT      O13702   3.658   1.420   5.180
 4487WAT     H113703   3.680   1.376   5.267
 4487WAT     H213704   3.700   1.510   5.176
 4488WAT      O13705   6.588   1.924   2.944
 4488WAT     H113706   6.578   1.842   2.887
 4488WAT     H213707   6.607   2.003   2.885
 4489WAT      O13708   8.402   5.097   6.979
 4489WAT     H113709   8.313   5.143   6.971
 4489WAT     H213710   8.402   5.038   7.059
 4490WAT      O13711   4.876   5.701   8.115
 4490WAT     H113712   4.872   5.797   8.143
 4490WAT     H213713   4.970   5.669   8.120
 4491WAT      O13714   6.526   1.660   1.414
 4491WAT     H113715   6.464   1.661   1.492
 4491WAT     H213716   6.590   1.736   1.422
 4492WAT      O13717   7.584   5.267   7.573
 4492WAT     H113718   7.513   5.296   7.509
 4492WAT     H213719   7.556   5.291   7.666
 4493WAT      O13720   8.413   4.694   7.416
 4493WAT     H113721   8.427   4.789   7.391
 4493WAT     H213722   8.363   4.647   7.343
 4494WAT      O13723   1.606   0.005   9.117
 4494WAT     H113724   1.607   0.094   9.163
 4494WAT     H213725   1.698  -0.015   9.082
 4495WAT      O13726   0.230   6.108   5.087
 4495WAT     H113727   0.251   6.039   5.157
 4495WAT     H213728   0.314   6.155   5.061
 4496WAT      O13729   2.402   7.193   8.590
 4496WAT     H113730   2.390   7.123   8.520
 4496WAT     H213731   2.485   7.246   8.570
 4497WAT      O13732   2.251   0.077   6.155
 4497WAT     H113733   2.234   0.132   6.237
 4497WAT     H213734   2.171   0.079   6.096
 4498WAT      O13735   5.881   5.978   3.333
 4498WAT     H113736   5.851   5.883   3.323
 4498WAT     H213737   5.975   5.980   3.366
 4499WAT      O13738   9.861   2.809   7.779
 4499WAT     H113739   9.822   2.893   7.815
 4499WAT     H213740   9.790   2.739   7.773
 4500WAT      O13741   5.446   0.627   9.191
 4500WAT     H113742   5.406   0.714   9.163
 4500WAT     H213743   5.426   0.557   9.123
 4501WAT      O13744   0.470   6.523   3.472
 4501WAT     H113745   0.537   6.589   3.437
 4501WAT     H213746   0.513   6.467   3.543
 4502WAT      O13747   7.757   5.511   4.917
 4502WAT     H113748   7.668   5.535   4.955
 4502WAT     H213749   7.771   5.412   4.926
 4503WAT      O13750   1.115   0.554   6.130
 4503WAT     H113751   1.016   0.570   6.128
 4503WAT     H213752   1.141   0.516   6.219
 4504WAT      O13753   5.965   1.409   7.417
 4504WAT     H113754   6.056   1.402   7.459
 4504WAT     H213755   5.954   1.499   7.374
 4505WAT      O13756   5.885   4.205   1.225
 4505WAT     H113757   5.914   4.183   1.131
 4505WAT     H213758   5.788   4.183   1.235
 4506WAT      O13759   7.733   1.077   2.178
 4506WAT     H113760   7.784   0.991   2.167
 4506WAT     H213761   7.747   1.135   2.098
 4507WAT      O13762   6.500   7.715   4.012
 4507WAT     H113763   6.569   7.776   4.051
 4507WAT     H213764   6.543   7.629   3.985
 4508WAT      O13765   2.726   9.440   0.130
 4508WAT     H113766   2.805   9.497   0.152
 4508WAT     H213767   2.742   9.347   0.161
 4509WAT      O13768   5.627   0.635   7.925
 4509WAT     H113769   5.613   0.671   8.017
 4509WAT     H213770   5.573   0.552   7.913
 4510WAT      O13771   3.524   3.289   9.661
 4510WAT     H113772   3.517   3.345   9.744
 4510WAT     H213773   3.493   3.196   9.681
 4511WAT      O13774   6.431   6.521   6.635
 4511WAT     H113775   6.391   6.556   6.720
 4511WAT     H213776   6.417   6.422   6.630
 4512WAT      O13777   7.847   1.768   0.216
 4512WAT     H113778   7.764   1.769   0.160
 4512WAT     H213779   7.862   1.859   0.255
 4513WAT      O13780   3.407   8.964   7.322
 4513WAT     H113781   3.349   9.024   7.266
 4513WAT     H213782   3.502   8.976   7.296
 4514WAT      O13783   7.034   5.725   9.470
 4514WAT     H113784   7.036   5.802   9.407
 4514WAT     H213785   6.978   5.750   9.550
 4515WAT      O13786   9.357   4.185   9.744
 4515WAT     H113787   9.415   4.137   9.810
 4515WAT     H213788   9.414   4.234   9.679
 4516WAT      O13789   8.377   3.621   0.385
 4516WAT     H113790   8.307   3.691   0.369
 4516WAT     H213791   8.433   3.611   0.304
 4517WAT      O13792   2.798   2.036   7.500
 4517WAT     H113793   2.747   1.955   7.527
 4517WAT     H213794   2.738   2.097   7.448
 4518WAT      O13795   8.745   7.004   9.544
 4518WAT     H113796   8.757   7.065   9.466
 4518WAT     H213797   8.834   6.982   9.584
 4519WAT      O13798   2.802   6.297   9.354
 4519WAT     H113799   2.874   6.256   9.410
 4519WAT     H213800   2.839   6.322   9.265
 4520WAT      O13801   3.549   5.683   5.079
 4520WAT     H113802   3.468   5.697   5.135
 4520WAT     H213803   3.534   5.604   5.018
 4521WAT      O13804   7.902   9.490   7.061
 4521WAT     H113805   7.930   9.482   7.157
 4521WAT     H213806   7.803   9.497   7.056
 4522WAT      O13807   8.175   5.989   2.592
 4522WAT     H113808   8.249   6.046   2.626
 4522WAT     H213809   8.098   5.993   2.655
 4523WAT      O13810   2.100   8.126   9.374
 4523WAT     H113811   2.193   8.125   9.335
 4523WAT     H213812   2.040   8.179   9.314
 4524WAT      O13813   1.353   7.482   0.019
 4524WAT     H113814   1.298   7.565   0.017
 4524WAT     H213815   1.361   7.446  -0.074
 4525WAT      O13816   9.467   5.768   0.548
 4525WAT     H113817   9.507   5.715   0.474
 4525WAT     H213818   9.377   5.730   0.571
 4526WAT      O13819   5.145   3.266   9.321
 4526WAT     H113820   5.163   3.344   9.381
 4526WAT     H213821   5.051   3.234   9.336
 4527WAT      O13822   0.748   0.894   2.426
 4527WAT     H113823   0.809   0.857   2.356
 4527WAT     H213824   0.659   0.915   2.386
 4528WAT      O13825   3.122   9.042   2.430
 4528WAT     H113826   3.140   9.050   2.528
 4528WAT     H213827   3.091   9.131   2.395
 4529WAT      O13828   3.015   8.076   3.236
 4529WAT     H113829   3.015   8.174   3.217
 4529WAT     H213830   2.960   8.057   3.317
 4530WAT      O13831   6.165   4.811   2.510
 4530WAT     H113832   6.139   4.741   2.577
 4530WAT     H213833   6.155   4.902   2.551
 4531WAT      O13834   0.653   1.680   4.280
 4531WAT     H113835   0.589   1.751   4.308
 4531WAT     H213836   0.691   1.635   4.362
 4532WAT      O13837   5.659   8.845   9.744
 4532WAT     H113838   5.689   8.900   9.666
 4532WAT     H213839   5.581   8.789   9.717
 4533WAT      O13840   5.462   4.630   3.541
 4533WAT     H113841   5.379   4.672   3.506
 4533WAT     H213842   5.453   4.530   3.537
 4534WAT      O13843   1.001   2.412   2.910
 4534WAT     H113844   1.089   2.457   2.892
 4534WAT     H213845   0.929   2.459   2.859
 4535WAT      O13846   9.688   9.772   1.667
 4535WAT     H113847   9.732   9.712   1.734
 4535WAT     H213848   9.600   9.732   1.641
 4536WAT      O13849   0.354   0.298   0.998
 4536WAT     H113850   0.419   0.368   1.025
 4536WAT     H213851   0.381   0.210   1.037
 4537WAT      O13852   0.928   0.665   3.553
 4537WAT     H113853   0.879   0.632   3.634
 4537WAT     H213854   1.023   0.634   3.557
 4538WAT      O13855   8.475   1.306   5.825
 4538WAT     H113856   8.485   1.370   5.749
 4538WAT     H213857   8.411   1.233   5.799
 4539WAT      O13858   6.895   3.004   2.755
 4539WAT     H113859   6.878   3.025   2.851
 4539WAT     H213860   6.850   2.918   2.731
 4540WAT      O13861   9.207   6.312   5.478
 4540WAT     H113862   9.286   6.251   5.487
 4540WAT     H213863   9.124   6.263   5.507
 4541WAT      O13864   2.259   8.012   1.493
 4541WAT     H113865   2.337   8.049   1.441
 4541WAT     H213866   2.292   7.940   1.555
 4542WAT      O13867   0.838   7.098   7.779
 4542WAT     H113868   0.773   7.147   7.721
 4542WAT     H213869   0.930   7.136   7.766
 4543WAT      O13870   2.503   1.086   4.850
 4543WAT     H113871   2.482   1.181   4.830
 4543WAT     H213872   2.552   1.080   4.937
 4544WAT      O13873   3.171   9.641   3.817
 4544WAT     H113874   3.200   9.643   3.913
 4544WAT     H213875   3.108   9.716   3.799
 4545WAT      O13876   3.009   6.899   9.446
 4545WAT     H113877   3.005   6.963   9.369
 4545WAT     H213878   3.103   6.867   9.458
 4546WAT      O13879   0.106   7.101   0.988
 4546WAT     H113880   0.178   7.169   0.975
 4546WAT     H213881   0.085   7.092   1.085
 4547WAT      O13882   2.508   1.518   2.986
 4547WAT     H113883   2.581   1.517   2.917
 4547WAT     H213884   2.421   1.495   2.942
 4548WAT      O13885   7.887   8.347   9.640
 4548WAT     H113886   7.858   8.425   9.585
 4548WAT     H213887   7.809   8.312   9.691
 4549WAT      O13888   2.167   5.907   9.640
 4549WAT     H113889   2.110   5.983   9.610
 4549WAT     H213890   2.162   5.833   9.573
 4550WAT      O13891   9.879   4.905   3.040
 4550WAT     H113892   9.934   4.838   3.089
 4550WAT     H213893   9.915   4.917   2.948
 4551WAT      O13894   2.116   1.598   6.507
 4551WAT     H113895   2.058   1.520   6.533
 4551WAT     H213896   2.193   1.604   6.570
 4552WAT      O13897   8.031   1.549   3.067
 4552WAT     H113898   8.100   1.535   2.996
 4552WAT     H213899   7.961   1.478   3.061
 4553WAT      O13900   0.443   6.643   5.651
 4553WAT     H113901   0.537   6.636   5.684
 4553WAT     H213902   0.439   6.616   5.555
 4554WAT      O13903   7.938   9.767   8.859
 4554WAT     H113904   7.883   9.836   8.906
 4554WAT     H213905   8.031   9.801   8.848
 4555WAT      O13906   0.619   3.163   1.002
 4555WAT     H113907   0.719   3.153   1.011
 4555WAT     H213908   0.577   3.154   1.092
 4556WAT      O13909   5.713   3.065   2.107
 4556WAT     H113910   5.693   2.972   2.076
 4556WAT     H213911   5.669   3.081   2.195
 4557WAT      O13912   3.074   6.623   1.738
 4557WAT     H113913   3.060   6.710   1.690
 4557WAT     H213914   3.140   6.635   1.812
 4558WAT      O13915   1.814   1.383   3.384
 4558WAT     H113916   1.749   1.440   3.334
 4558WAT     H213917   1.882   1.442   3.427
 4559WAT      O13918   1.906   4.321   8.916
 4559WAT     H113919   1.995   4.357   8.945
 4559WAT     H213920   1.851   4.300   8.997
 4560WAT      O13921   2.064   5.986   5.043
 4560WAT     H113922   1.990   6.044   5.009
 4560WAT     H213923   2.046   5.891   5.019
 4561WAT      O13924   5.718   2.298   1.784
 4561WAT     H113925   5.734   2.344   1.697
 4561WAT     H213926   5.688   2.364   1.853
 4562WAT      O13927   6.986   1.176   1.805
 4562WAT     H113928   7.067   1.118   1.794
 4562WAT     H213929   6.963   1.185   1.902
 4563WAT      O13930   6.849   0.069   9.716
 4563WAT     H113931   6.818   0.162   9.734
 4563WAT     H213932   6.949   0.066   9.719
 4564WAT      O13933   6.977   2.046   5.334
 4564WAT     H113934   6.993   2.017   5.239
 4564WAT     H213935   7.030   1.987   5.396
 4565WAT      O13936   2.045   3.582   9.362
 4565WAT     H113937   2.001   3.670   9.346
 4565WAT     H213938   1.977   3.509   9.355
 4566WAT      O13939   1.494   9.795   2.335
 4566WAT     H113940   1.496   9.699   2.307
 4566WAT     H213941   1.588   9.829   2.344
 4567WAT      O13942   3.767   0.348   4.862
 4567WAT     H113943   3.787   0.255   4.890
 4567WAT     H213944   3.851   0.394   4.834
 4568WAT      O13945   9.328   4.657   4.056
 4568WAT     H113946   9.424   4.641   4.035
 4568WAT     H213947   9.272   4.586   4.013
 4569WAT      O13948   5.148   8.633   7.381
 4569WAT     H113949   5.201   8.662   7.301
 4569WAT     H213950   5.184   8.678   7.463
 4570WAT      O13951   1.622   3.899   2.737
 4570WAT     H113952   1.578   3.857   2.817
 4570WAT     H213953   1.584   3.859   2.654
 4571WAT      O13954   4.054   6.175   4.704
 4571WAT     H113955   4.046   6.146   4.799
 4571WAT     H213956   3.963   6.191   4.666
 4572WAT      O13957   7.171   1.456   5.197
 4572WAT     H113958   7.111   1.460   5.118
 4572WAT     H213959   7.156   1.369   5.245
 4573WAT      O13960   5.601   3.517   1.823
 4573WAT     H113961   5.538   3.588   1.854
 4573WAT     H213962   5.618   3.529   1.725
 4574WAT      O13963   7.373   2.543   5.503
 4574WAT     H113964   7.294   2.603   5.488
 4574WAT     H213965   7.341   2.453   5.531
 4575WAT      O13966   6.559   3.817   7.266
 4575WAT     H113967   6.600   3.765   7.340
 4575WAT     H213968   6.462   3.794   7.258
 4576WAT      O13969   9.104   6.250   3.506
 4576WAT     H113970   9.018   6.201   3.495
 4576WAT     H213971   9.086   6.348   3.518
 4577WAT      O13972   4.173   9.089   1.513
 4577WAT     H113973   4.239   9.016   1.497
 4577WAT     H213974   4.105   9.089   1.440
 4578WAT      O13975   2.225   8.855   3.713
 4578WAT     H113976   2.129   8.835   3.694
 4578WAT     H213977   2.264   8.903   3.635
 4579WAT      O13978   9.532   1.703   9.735
 4579WAT     H113979   9.609   1.680   9.676
 4579WAT     H213980   9.451   1.653   9.706
 4580WAT      O13981   1.717   7.679   6.284
 4580WAT     H113982   1.641   7.635   6.334
 4580WAT     H213983   1.789   7.703   6.349
 4581WAT      O13984   8.941   7.986   4.560
 4581WAT     H113985   8.945   8.086   4.562
 4581WAT     H213986   8.965   7.950   4.650
 4582WAT      O13987   9.322   9.473   6.789
 4582WAT     H113988   9.381   9.547   6.755
 4582WAT     H213989   9.304   9.487   6.886
 4583WAT      O13990   9.236   4.015   2.732
 4583WAT     H113991   9.246   3.918   2.756
 4583WAT     H213992   9.170   4.025   2.658
 4584WAT      O13993   8.682   4.745   8.347
 4584WAT     H113994   8.660   4.836   8.381
 4584WAT     H213995   8.758   4.750   8.282
 4585WAT      O13996   2.816   4.134   2.545
 4585WAT     H113997   2.894   4.162   2.489
 4585WAT     H213998   2.751   4.210   2.552
 4586WAT      O13999   9.489   2.898   2.018
 4586WAT     H114000   9.475   2.994   2.043
 4586WAT     H214001   9.428   2.874   1.943
 4587WAT      O14002   7.852   4.579   5.050
 4587WAT     H114003   7.839   4.645   5.124
 4587WAT     H214004   7.822   4.620   4.964
 4588WAT      O14005   1.092   3.643   0.958
 4588WAT     H114006   1.035   3.561   0.960
 4588WAT     H214007   1.095   3.681   0.866
 4589WAT      O14008   9.284   5.503   0.058
 4589WAT     H114009   9.237   5.557   0.128
 4589WAT     H214010   9.347   5.562   0.007
 4590WAT      O14011   6.832   0.123   2.387
 4590WAT     H114012   6.784   0.071   2.317
 4590WAT     H214013   6.812   0.220   2.376
 4591WAT      O14014   0.844   7.673   0.530
 4591WAT     H114015   0.845   7.574   0.540
 4591WAT     H214016   0.773   7.712   0.588
 4592WAT      O14017   5.867   8.527   3.681
 4592WAT     H114018   5.786   8.549   3.737
 4592WAT     H214019   5.921   8.457   3.727
 4593WAT      O14020   1.915   6.273   7.345
 4593WAT     H114021   1.948   6.232   7.430
 4593WAT     H214022   1.894   6.201   7.279
 4594WAT      O14023   4.850   4.778   3.031
 4594WAT     H114024   4.880   4.873   3.040
 4594WAT     H214025   4.885   4.740   2.946
 4595WAT      O14026   8.690   0.305   1.659
 4595WAT     H114027   8.733   0.235   1.716
 4595WAT     H214028   8.618   0.262   1.604
 4596WAT      O14029   6.409   0.496   5.621
 4596WAT     H114030   6.342   0.440   5.671
 4596WAT     H214031   6.370   0.586   5.603
 4597WAT      O14032   4.035   4.940   0.017
 4597WAT     H114033   3.995   4.984   0.097
 4597WAT     H214034   3.988   4.971  -0.066
 4598WAT      O14035   9.114   4.651   1.119
 4598WAT     H114036   9.045   4.656   1.191
 4598WAT     H214037   9.203   4.627   1.159
 4599WAT      O14038   6.600   5.134   9.797
 4599WAT     H114039   6.684   5.086   9.820
 4599WAT     H214040   6.577   5.198   9.871
 4600WAT      O14041   1.497   6.100   9.179
 4600WAT     H114042   1.554   6.181   9.164
 4600WAT     H214043   1.429   6.093   9.107
 4601WAT      O14044   9.248   0.053   7.470
 4601WAT     H114045   9.170   0.002   7.506
 4601WAT     H214046   9.230   0.151   7.479
 4602WAT      O14047   2.533   4.349   5.424
 4602WAT     H114048   2.549   4.391   5.514
 4602WAT     H214049   2.436   4.357   5.401
 4603WAT      O14050   3.744   6.722   8.381
 4603WAT     H114051   3.734   6.705   8.479
 4603WAT     H214052   3.656   6.707   8.335
 4604WAT      O14053   3.812   1.298   0.087
 4604WAT     H114054   3.723   1.317   0.128
 4604WAT     H214055   3.820   1.201   0.067
 4605WAT      O14056   6.221   8.927   6.971
 4605WAT     H114057   6.140   8.869   6.970
 4605WAT     H214058   6.235   8.963   7.063
 4606WAT      O14059   4.276   2.061   1.695
 4606WAT     H114060   4.202   2.038   1.758
 4606WAT     H214061   4.276   1.995   1.619
 4607WAT      O14062   6.863   4.144   4.212
 4607WAT     H114063   6.855   4.229   4.160
 4607WAT     H214064   6.841   4.067   4.153
 4608WAT      O14065   2.772   6.755   9.013
 4608WAT     H114066   2.714   6.689   9.060
 4608WAT     H214067   2.716   6.826   8.972
 4609WAT      O14068   1.325   6.959   9.706
 4609WAT     H114069   1.338   6.942   9.804
 4609WAT     H214070   1.393   7.025   9.675
 4610WAT      O14071   4.680   3.892   8.141
 4610WAT     H114072   4.695   3.824   8.068
 4610WAT     H214073   4.624   3.967   8.106
 4611WAT      O14074   1.775   6.338   4.612
 4611WAT     H114075   1.719   6.417   4.586
 4611WAT     H214076   1.866   6.347   4.573
 4612WAT      O14077   5.645   2.158   6.847
 4612WAT     H114078   5.559   2.165   6.897
 4612WAT     H214079   5.640   2.214   6.764
 4613WAT      O14080   9.459   8.078   0.345
 4613WAT     H114081   9.437   8.161   0.294
 4613WAT     H214082   9.558   8.064   0.345
 4614WAT      O14083   4.497   2.986   3.568
 4614WAT     H114084   4.411   3.026   3.535
 4614WAT     H214085   4.564   2.986   3.494
 4615WAT      O14086   2.153   6.834   7.115
 4615WAT     H114087   2.085   6.804   7.049
 4615WAT     H214088   2.120   6.816   7.208
 4616WAT      O14089   4.293   9.704   6.275
 4616WAT     H114090   4.265   9.800   6.274
 4616WAT     H214091   4.273   9.665   6.365
 4617WAT      O14092   0.902   1.176   4.599
 4617WAT     H114093   0.968   1.102   4.586
 4617WAT     H214094   0.906   1.239   4.522
 4618WAT      O14095   5.723   1.219   5.560
 4618WAT     H114096   5.679   1.205   5.648
 4618WAT     H214097   5.820   1.238   5.574
 4619WAT      O14098   5.438   7.810   9.087
 4619WAT     H114099   5.455   7.715   9.113
 4619WAT     H214100   5.511   7.868   9.123
 4620WAT      O14101   6.779   8.102   3.530
 4620WAT     H114102   6.729   8.108   3.617
 4620WAT     H214103   6.714   8.087   3.455
 4621WAT      O14104   0.007   6.388   0.771
 4621WAT     H114105   0.096   6.342   0.774
 4621WAT     H214106   0.021   6.486   0.757
 4622WAT      O14107   3.261   2.994   4.724
 4622WAT     H114108   3.317   3.055   4.668
 4622WAT     H214109   3.174   2.977   4.678
 4623WAT      O14110   4.541   7.205   4.861
 4623WAT     H114111   4.450   7.164   4.867
 4623WAT     H214112   4.540   7.277   4.792
 4624WAT      O14113   8.265   4.049   2.804
 4624WAT     H114114   8.225   3.987   2.736
 4624WAT     H214115   8.192   4.088   2.860
 4625WAT      O14116   4.916   1.518   1.107
 4625WAT     H114117   4.824   1.513   1.147
 4625WAT     H214118   4.910   1.504   1.008
 4626WAT      O14119   8.460   0.632   1.947
 4626WAT     H114120   8.425   0.717   1.985
 4626WAT     H214121   8.384   0.577   1.911
 4627WAT      O14122   8.370   0.013   1.165
 4627WAT     H114123   8.370  -0.064   1.101
 4627WAT     H214124   8.455   0.012   1.218
 4628WAT      O14125   6.794   8.433   0.083
 4628WAT     H114126   6.860   8.364   0.055
 4628WAT     H214127   6.811   8.459   0.178
 4629WAT      O14128   2.650   3.010   6.891
 4629WAT     H114129   2.558   3.016   6.853
 4629WAT     H214130   2.653   3.059   6.979
 4630WAT      O14131   2.678   8.279   5.094
 4630WAT     H114132   2.613   8.279   5.171
 4630WAT     H214133   2.639   8.331   5.018
 4631WAT      O14134   0.342   0.280   7.538
 4631WAT     H114135   0.281   0.268   7.460
 4631WAT     H214136   0.355   0.377   7.557
 4632WAT      O14137   6.415   3.784   6.769
 4632WAT     H114138   6.394   3.876   6.736
 4632WAT     H214139   6.377   3.771   6.860
 4633WAT      O14140   4.606   7.636   8.896
 4633WAT     H114141   4.537   7.684   8.844
 4633WAT     H214142   4.608   7.670   8.990
 4634WAT      O14143   2.257   1.682   8.874
 4634WAT     H114144   2.299   1.592   8.860
 4634WAT     H214145   2.163   1.681   8.839
 4635WAT      O14146   7.188   6.405   5.549
 4635WAT     H114147   7.171   6.436   5.455
 4635WAT     H214148   7.117   6.442   5.609
 4636WAT      O14149   8.924   2.664   7.167
 4636WAT     H114150   8.829   2.692   7.149
 4636WAT     H214151   8.971   2.737   7.216
 4637WAT      O14152   2.791   6.564   4.352
 4637WAT     H114153   2.879   6.611   4.354
 4637WAT     H214154   2.787   6.497   4.426
 4638WAT      O14155   7.102   9.838   3.996
 4638WAT     H114156   7.058   9.789   4.071
 4638WAT     H214157   7.152   9.773   3.939
 4639WAT      O14158   1.262   7.379   6.974
 4639WAT     H114159   1.309   7.405   7.058
 4639WAT     H214160   1.322   7.393   6.896
 4640WAT      O14161   7.816   4.550   0.537
 4640WAT     H114162   7.796   4.507   0.449
 4640WAT     H214163   7.870   4.632   0.522
 4641WAT      O14164   7.959   8.225   2.025
 4641WAT     H114165   8.034   8.274   2.069
 4641WAT     H214166   7.979   8.127   2.024
 4642WAT      O14167   0.836   4.862   9.706
 4642WAT     H114168   0.742   4.867   9.739
 4642WAT     H214169   0.898   4.892   9.779
 4643WAT      O14170   5.163   7.604   6.992
 4643WAT     H114171   5.218   7.655   6.927
 4643WAT     H214172   5.220   7.578   7.071
 4644WAT      O14173   4.616   2.072   5.561
 4644WAT     H114174   4.651   2.077   5.468
 4644WAT     H214175   4.581   1.980   5.578
 4645WAT      O14176   4.772   9.588   6.640
 4645WAT     H114177   4.728   9.656   6.698
 4645WAT     H214178   4.720   9.577   6.556
 4646WAT      O14179   3.899   3.225   4.732
 4646WAT     H114180   3.808   3.225   4.692
 4646WAT     H214181   3.902   3.290   4.809
 4647WAT      O14182   5.857   4.198   2.220
 4647WAT     H114183   5.828   4.293   2.229
 4647WAT     H214184   5.797   4.140   2.274
 4648WAT      O14185   3.591   8.092   0.348
 4648WAT     H114186   3.675   8.039   0.334
 4648WAT     H214187   3.611   8.190   0.345
 4649WAT      O14188   4.381   7.700   0.344
 4649WAT     H114189   4.369   7.602   0.329
 4649WAT     H214190   4.405   7.744   0.258
 4650WAT      O14191   7.962   8.309   8.834
 4650WAT     H114192   7.973   8.215   8.865
 4650WAT     H214193   7.902   8.311   8.754
 4651WAT      O14194   6.745   3.464   7.926
 4651WAT     H114195   6.721   3.542   7.984
 4651WAT     H214196   6.839   3.473   7.893
 4652WAT      O14197   9.365   1.373   9.266
 4652WAT     H114198   9.284   1.387   9.209
 4652WAT     H214199   9.423   1.302   9.225
 4653WAT      O14200   4.668   0.968   9.055
 4653WAT     H114201   4.755   0.956   9.007
 4653WAT     H214202   4.684   1.016   9.141
 4654WAT      O14203   9.434   3.718   3.461
 4654WAT     H114204   9.345   3.711   3.415
 4654WAT     H214205   9.467   3.627   3.485
 4655WAT      O14206   5.524   5.491   0.783
 4655WAT     H114207   5.526   5.401   0.825
 4655WAT     H214208   5.614   5.511   0.743
 4656WAT      O14209   5.602   4.602   2.912
 4656WAT     H114210   5.606   4.657   2.828
 4656WAT     H214211   5.574   4.659   2.988
 4657WAT      O14212   9.328   4.809   9.428
 4657WAT     H114213   9.281   4.861   9.499
 4657WAT     H214214   9.422   4.842   9.420
 4658WAT      O14215   9.440   5.075   7.979
 4658WAT     H114216   9.371   5.047   7.912
 4658WAT     H214217   9.453   5.174   7.973
 4659WAT      O14218   4.085   2.719   4.315
 4659WAT     H114219   4.124   2.644   4.369
 4659WAT     H214220   4.005   2.756   4.362
 4660WAT      O14221   4.945   1.226   6.662
 4660WAT     H114222   4.963   1.133   6.694
 4660WAT     H214223   4.885   1.221   6.582
 4661WAT      O14224   9.189   3.044   2.705
 4661WAT     H114225   9.266   3.039   2.768
 4661WAT     H214226   9.205   2.981   2.629
 4662WAT      O14227   4.990   9.644   6.844
 4662WAT     H114228   5.011   9.742   6.850
 4662WAT     H214229   4.908   9.632   6.787
 4663WAT      O14230   8.073   8.121   5.365
 4663WAT     H114231   8.019   8.053   5.415
 4663WAT     H214232   8.019   8.205   5.354
 4664WAT      O14233   3.449   8.795   8.365
 4664WAT     H114234   3.395   8.763   8.443
 4664WAT     H214235   3.547   8.788   8.387
 4665WAT      O14236   8.925   2.565   2.664
 4665WAT     H114237   8.893   2.648   2.710
 4665WAT     H214238   8.857   2.536   2.597
 4666WAT      O14239   4.147   4.031   0.649
 4666WAT     H114240   4.073   4.065   0.591
 4666WAT     H214241   4.134   4.066   0.742
 4667WAT      O14242   9.798   3.017   5.906
 4667WAT     H114243   9.769   3.069   5.826
 4667WAT     H214244   9.812   2.921   5.880
 4668WAT      O14245   0.602   1.296   6.010
 4668WAT     H114246   0.629   1.348   6.091
 4668WAT     H214247   0.538   1.350   5.956
 4669WAT      O14248   5.588   0.011   0.457
 4669WAT     H114249   5.540  -0.040   0.386
 4669WAT     H214250   5.686   0.001   0.445
 4670WAT      O14251   8.341   5.654   7.622
 4670WAT     H114252   8.285   5.594   7.679
 4670WAT     H214253   8.359   5.611   7.534
 4671WAT      O14254   7.671   1.546   9.232
 4671WAT     H114255   7.637   1.502   9.149
 4671WAT     H214256   7.618   1.629   9.250
 4672WAT      O14257   7.283   6.720   7.961
 4672WAT     H114258   7.226   6.699   8.040
 4672WAT     H214259   7.264   6.813   7.930
 4673WAT      O14260   7.989   5.438   7.987
 4673WAT     H114261   8.018   5.345   8.011
 4673WAT     H214262   7.919   5.434   7.915
 4674WAT      O14263   7.025   7.210   0.305
 4674WAT     H114264   6.945   7.152   0.322
 4674WAT     H214265   7.031   7.232   0.208
 4675WAT      O14266   4.375   1.670   2.619
 4675WAT     H114267   4.284   1.646   2.653
 4675WAT     H214268   4.408   1.751   2.668
 4676WAT      O14269   9.243   8.966   0.461
 4676WAT     H114270   9.227   8.986   0.558
 4676WAT     H214271   9.249   8.867   0.448
 4677WAT      O14272   5.280   5.113   3.555
 4677WAT     H114273   5.289   5.126   3.654
 4677WAT     H214274   5.257   5.201   3.512
 4678WAT      O14275   3.761   8.080   0.042
 4678WAT     H114276   3.693   8.008   0.035
 4678WAT     H214277   3.824   8.060   0.117
 4679WAT      O14278   2.017   7.233   2.437
 4679WAT     H114279   1.931   7.266   2.474
 4679WAT     H214280   2.001   7.194   2.346
 4680WAT      O14281   4.127   3.939   1.346
 4680WAT     H114282   4.106   3.853   1.394
 4680WAT     H214283   4.062   3.953   1.272
 4681WAT      O14284   5.400   4.888   9.222
 4681WAT     H114285   5.398   4.965   9.286
 4681WAT     H214286   5.431   4.805   9.270
 4682WAT      O14287   1.016   7.836   7.456
 4682WAT     H114288   1.006   7.747   7.412
 4682WAT     H214289   1.087   7.830   7.527
 4683WAT      O14290   0.843   3.679   2.143
 4683WAT     H114291   0.859   3.776   2.125
 4683WAT     H214292   0.820   3.633   2.058
 4684WAT      O14293   5.880   7.285   2.856
 4684WAT     H114294   5.941   7.345   2.804
 4684WAT     H214295   5.808   7.339   2.899
 4685WAT      O14296   2.266   9.205   3.728
 4685WAT     H114297   2.250   9.155   3.643
 4685WAT     H214298   2.364   9.219   3.740
 4686WAT      O14299   1.110   8.744   2.853
 4686WAT     H114300   1.045   8.765   2.926
 4686WAT     H214301   1.191   8.803   2.863
 4687WAT      O14302   1.424   9.080   9.117
 4687WAT     H114303   1.458   9.164   9.159
 4687WAT     H214304   1.500   9.020   9.096
 4688WAT      O14305   8.928   7.865   8.181
 4688WAT     H114306   8.878   7.947   8.156
 4688WAT     H214307   8.960   7.872   8.275
 4689WAT      O14308   0.380   3.557   5.742
 4689WAT     H114309   0.467   3.526   5.780
 4689WAT     H214310   0.362   3.651   5.769
 4690WAT      O14311   1.970   1.900   4.383
 4690WAT     H114312   2.069   1.892   4.369
 4690WAT     H214313   1.928   1.810   4.377
 4691WAT      O14314   2.383   3.506   2.784
 4691WAT     H114315   2.398   3.604   2.792
 4691WAT     H214316   2.340   3.472   2.868
 4692WAT      O14317   7.147   5.083   3.430
 4692WAT     H114318   7.050   5.072   3.449
 4692WAT     H214319   7.163   5.080   3.331
 4693WAT      O14320   3.586   0.915   3.413
 4693WAT     H114321   3.675   0.950   3.443
 4693WAT     H214322   3.600   0.844   3.344
 4694WAT      O14323   5.077   9.348   6.570
 4694WAT     H114324   5.150   9.405   6.608
 4694WAT     H214325   4.990   9.372   6.613
 4695WAT      O14326   2.485   0.432   0.239
 4695WAT     H114327   2.458   0.448   0.334
 4695WAT     H214328   2.452   0.343   0.209
 4696WAT      O14329   2.147   3.927   1.580
 4696WAT     H114330   2.158   4.004   1.517
 4696WAT     H214331   2.053   3.926   1.615
 4697WAT      O14332   2.598   9.441   8.425
 4697WAT     H114333   2.618   9.491   8.508
 4697WAT     H214334   2.551   9.500   8.360
 4698WAT      O14335   1.917   0.744   8.375
 4698WAT     H114336   1.950   0.745   8.280
 4698WAT     H214337   1.864   0.661   8.391
 4699WAT      O14338   7.995   8.073   7.697
 4699WAT     H114339   7.931   8.061   7.774
 4699WAT     H214340   8.058   8.148   7.718
 4700WAT      O14341   4.364   4.150   0.456
 4700WAT     H114342   4.357   4.229   0.517
 4700WAT     H214343   4.321   4.071   0.500
 4701WAT      O14344   2.890   9.358   2.328
 4701WAT     H114345   2.803   9.373   2.280
 4701WAT     H214346   2.883   9.396   2.420
 4702WAT      O14347   0.956   3.732   1.178
 4702WAT     H114348   0.985   3.680   1.258
 4702WAT     H214349   0.993   3.690   1.095
 4703WAT      O14350   6.052   1.867   1.777
 4703WAT     H114351   6.053   1.931   1.700
 4703WAT     H214352   5.958   1.847   1.803
 4704WAT      O14353   9.668   5.186   3.827
 4704WAT     H114354   9.687   5.271   3.776
 4704WAT     H214355   9.718   5.110   3.784
 4705WAT      O14356   6.769   6.392   1.552
 4705WAT     H114357   6.851   6.449   1.547
 4705WAT     H214358   6.709   6.413   1.474
 4706WAT      O14359   4.346   8.724   2.301
 4706WAT     H114360   4.347   8.824   2.312
 4706WAT     H214361   4.437   8.694   2.270
 4707WAT      O14362   1.668   0.521   4.415
 4707WAT     H114363   1.657   0.493   4.320
 4707WAT     H214364   1.763   0.548   4.431
 4708WAT      O14365   3.154   5.788   7.535
 4708WAT     H114366   3.184   5.787   7.630
 4708WAT     H214367   3.085   5.859   7.522
 4709WAT      O14368   1.134   5.027   6.874
 4709WAT     H114369   1.151   4.980   6.960
 4709WAT     H214370   1.040   5.060   6.871
 4710WAT      O14371   0.184   4.881   6.440
 4710WAT     H114372   0.127   4.954   6.401
 4710WAT     H214373   0.190   4.894   6.539
 4711WAT      O14374   0.749   9.826   9.884
 4711WAT     H114375   0.835   9.865   9.915
 4711WAT     H214376   0.732   9.854   9.789
 4712WAT      O14377   7.569   5.528   8.510
 4712WAT     H114378   7.615   5.551   8.425
 4712WAT     H214379   7.493   5.592   8.526
 4713WAT      O14380   0.023   6.286   0.074
 4713WAT     H114381   0.094   6.292   0.005
 4713WAT     H214382   0.064   6.291   0.165
 4714WAT      O14383   6.252   9.488   7.968
 4714WAT     H114384   6.208   9.540   8.041
 4714WAT     H214385   6.207   9.399   7.960
 4715WAT      O14386   9.824   7.197   7.184
 4715WAT     H114387   9.842   7.264   7.256
 4715WAT     H214388   9.905   7.141   7.169
 4716WAT      O14389   1.582   1.219   5.928
 4716WAT     H114390   1.547   1.306   5.963
 4716WAT     H214391   1.558   1.146   5.991
 4717WAT      O14392   1.146   6.606   2.094
 4717WAT     H114393   1.203   6.587   2.174
 4717WAT     H214394   1.095   6.524   2.069
 4718WAT      O14395   6.341   1.830   0.541
 4718WAT     H114396   6.259   1.773   0.550
 4718WAT     H214397   6.378   1.849   0.632
 4719WAT      O14398   7.540   5.093   6.712
 4719WAT     H114399   7.470   5.131   6.773
 4719WAT     H214400   7.574   5.007   6.750
 4720WAT      O14401   9.215   9.011   0.715
 4720WAT     H114402   9.288   9.038   0.778
 4720WAT     H214403   9.162   8.937   0.756
 4721WAT      O14404   5.999   1.030   6.490
 4721WAT     H114405   5.925   0.971   6.522
 4721WAT     H214406   6.085   0.979   6.492
 4722WAT      O14407   7.619   5.684   7.879
 4722WAT     H114408   7.656   5.670   7.788
 4722WAT     H214409   7.694   5.696   7.944
 4723WAT      O14410   0.192   5.023   1.350
 4723WAT     H114411   0.230   5.116   1.343
 4723WAT     H214412   0.215   4.985   1.440
 4724WAT      O14413   0.263   5.181   4.917
 4724WAT     H114414   0.330   5.133   4.862
 4724WAT     H214415   0.235   5.123   4.994
 4725WAT      O14416   5.809   5.198   9.099
 4725WAT     H114417   5.888   5.172   9.154
 4725WAT     H214418   5.778   5.119   9.046
 4726WAT      O14419   5.253   1.832   5.496
 4726WAT     H114420   5.165   1.805   5.457
 4726WAT     H214421   5.288   1.911   5.446
 4727WAT      O14422   7.514   9.550   7.891
 4727WAT     H114423   7.478   9.641   7.914
 4727WAT     H214424   7.479   9.522   7.802
 4728WAT      O14425   1.719   3.942   1.128
 4728WAT     H114426   1.731   3.998   1.046
 4728WAT     H214427   1.621   3.933   1.148
 4729WAT      O14428   1.506   8.252   9.761
 4729WAT     H114429   1.428   8.199   9.794
 4729WAT     H214430   1.526   8.325   9.826
 4730WAT      O14431   3.032   2.222   1.919
 4730WAT     H114432   3.091   2.259   1.848
 4730WAT     H214433   2.937   2.248   1.901
 4731WAT      O14434   4.815   6.584   4.769
 4731WAT     H114435   4.719   6.600   4.747
 4731WAT     H214436   4.870   6.593   4.686
 4732WAT      O14437   2.014   8.429   7.986
 4732WAT     H114438   1.941   8.485   7.946
 4732WAT     H214439   2.094   8.431   7.925
 4733WAT      O14440   3.239   5.200   3.137
 4733WAT     H114441   3.175   5.142   3.087
 4733WAT     H214442   3.266   5.155   3.222
 4734WAT      O14443   6.618   3.923   1.293
 4734WAT     H114444   6.549   3.918   1.220
 4734WAT     H214445   6.607   4.009   1.343
 4735WAT      O14446   7.033   4.390   2.165
 4735WAT     H114447   6.992   4.466   2.114
 4735WAT     H214448   7.063   4.422   2.255
 4736WAT      O14449   4.748   4.236   3.723
 4736WAT     H114450   4.781   4.300   3.792
 4736WAT     H214451   4.703   4.287   3.649
 4737WAT      O14452   1.584   6.029   8.623
 4737WAT     H114453   1.655   6.032   8.554
 4737WAT     H214454   1.495   6.016   8.579
 4738WAT      O14455   1.657   3.081   6.805
 4738WAT     H114456   1.634   3.172   6.839
 4738WAT     H214457   1.590   3.015   6.838
 4739WAT      O14458   2.982   7.026   8.882
 4739WAT     H114459   3.011   6.963   8.810
 4739WAT     H214460   2.911   7.087   8.846
 4740WAT      O14461   1.949   4.790   1.275
 4740WAT     H114462   2.000   4.742   1.346
 4740WAT     H214463   1.851   4.787   1.296
 4741WAT      O14464   6.993   6.977   5.087
 4741WAT     H114465   6.894   6.981   5.104
 4741WAT     H214466   7.014   6.896   5.032
 4742WAT      O14467   3.684   8.324   4.800
 4742WAT     H114468   3.658   8.229   4.783
 4742WAT     H214469   3.728   8.331   4.890
 4743WAT      O14470   4.574   0.681   2.662
 4743WAT     H114471   4.542   0.591   2.634
 4743WAT     H214472   4.674   0.682   2.664
 4744WAT      O14473   7.483   1.911   2.765
 4744WAT     H114474   7.570   1.882   2.727
 4744WAT     H214475   7.463   2.004   2.735
 4745WAT      O14476   4.706   4.927   2.542
 4745WAT     H114477   4.657   4.891   2.621
 4745WAT     H214478   4.803   4.934   2.564
 4746WAT      O14479   9.157   0.609   5.177
 4746WAT     H114480   9.191   0.538   5.115
 4746WAT     H214481   9.207   0.694   5.161
 4747WAT      O14482   1.070   5.077   5.441
 4747WAT     H114483   1.032   5.107   5.353
 4747WAT     H214484   1.088   4.979   5.438
 4748WAT      O14485   4.739   7.532   0.702
 4748WAT     H114486   4.690   7.541   0.616
 4748WAT     H214487   4.674   7.536   0.778
 4749WAT      O14488   5.251   4.925   3.381
 4749WAT     H114489   5.312   4.926   3.301
 4749WAT     H214490   5.265   5.008   3.435
 4750WAT      O14491   1.054   8.969   1.363
 4750WAT     H114492   1.077   9.026   1.442
 4750WAT     H214493   1.019   9.027   1.290
 4751WAT      O14494   3.530   7.292   9.838
 4751WAT     H114495   3.513   7.223   9.909
 4751WAT     H214496   3.453   7.356   9.835
 4752WAT      O14497   2.633   8.467   4.894
 4752WAT     H114498   2.702   8.442   4.825
 4752WAT     H214499   2.590   8.553   4.868
 4753WAT      O14500   4.105   0.541   5.627
 4753WAT     H114501   4.012   0.570   5.604
 4753WAT     H214502   4.154   0.515   5.544
 4754WAT      O14503   1.178   3.079   5.970
 4754WAT     H114504   1.088   3.078   5.926
 4754WAT     H214505   1.197   3.171   6.004
 4755WAT      O14506   1.262   6.804   4.398
 4755WAT     H114507   1.199   6.768   4.329
 4755WAT     H214508   1.210   6.837   4.476
 4756WAT      O14509   6.839   2.487   4.496
 4756WAT     H114510   6.928   2.492   4.450
 4756WAT     H214511   6.769   2.458   4.431
 4757WAT      O14512   8.078   9.156   9.879
 4757WAT     H114513   8.131   9.170   9.795
 4757WAT     H214514   8.129   9.096   9.941
 4758WAT      O14515   2.529   7.047   4.750
 4758WAT     H114516   2.603   6.987   4.721
 4758WAT     H214517   2.566   7.124   4.802
 4759WAT      O14518   2.852   2.178   6.592
 4759WAT     H114519   2.778   2.235   6.556
 4759WAT     H214520   2.891   2.221   6.674
 4760WAT      O14521   1.803   4.694   5.052
 4760WAT     H114522   1.835   4.625   5.117
 4760WAT     H214523   1.881   4.743   5.013
 4761WAT      O14524   5.044   1.112   5.279
 4761WAT     H114525   5.059   1.015   5.295
 4761WAT     H214526   4.998   1.152   5.359
 4762WAT      O14527   4.795   7.828   3.732
 4762WAT     H114528   4.879   7.811   3.784
 4762WAT     H214529   4.722   7.852   3.796
 4763WAT      O14530   1.324   4.983   1.184
 4763WAT     H114531   1.253   5.039   1.141
 4763WAT     H214532   1.310   4.887   1.158
 4764WAT      O14533   6.055   1.243   0.217
 4764WAT     H114534   6.041   1.187   0.135
 4764WAT     H214535   6.027   1.191   0.297
 4765WAT      O14536   6.341   4.175   0.631
 4765WAT     H114537   6.249   4.149   0.602
 4765WAT     H214538   6.394   4.203   0.551
 4766WAT      O14539   6.586   7.781   4.879
 4766WAT     H114540   6.607   7.831   4.795
 4766WAT     H214541   6.644   7.701   4.886
 4767WAT      O14542   4.999   3.487   2.018
 4767WAT     H114543   4.988   3.436   1.933
 4767WAT     H214544   5.080   3.453   2.067
 4768WAT      O14545   6.934   4.036   8.483
 4768WAT     H114546   6.885   4.063   8.400
 4768WAT     H214547   6.995   4.110   8.511
 4769WAT      O14548   3.743   9.527   9.751
 4769WAT     H114549   3.836   9.560   9.771
 4769WAT     H214550   3.748   9.439   9.704
 4770WAT      O14551   9.460   0.693   3.577
 4770WAT     H114552   9.551   0.700   3.619
 4770WAT     H214553   9.392   0.675   3.648
 4771WAT      O14554   4.828   5.228   8.429
 4771WAT     H114555   4.830   5.326   8.411
 4771WAT     H214556   4.740   5.203   8.468
 4772WAT      O14557   1.050   6.627   1.779
 4772WAT     H114558   1.017   6.663   1.867
 4772WAT     H214559   1.007   6.539   1.762
 4773WAT      O14560   2.276   8.290   6.658
 4773WAT     H114561   2.263   8.322   6.752
 4773WAT     H214562   2.335   8.210   6.658
 4774WAT      O14563   3.835   1.083   6.763
 4774WAT     H114564   3.803   1.053   6.852
 4774WAT     H214565   3.767   1.144   6.722
 4775WAT      O14566   5.647   8.773   5.963
 4775WAT     H114567   5.684   8.857   5.924
 4775WAT     H214568   5.587   8.795   6.040
 4776WAT      O14569   4.327   6.333   5.004
 4776WAT     H114570   4.423   6.337   4.979
 4776WAT     H214571   4.317   6.328   5.103
 4777WAT      O14572   5.483   3.644   9.079
 4777WAT     H114573   5.511   3.673   8.987
 4777WAT     H214574   5.387   3.616   9.077
 4778WAT      O14575   3.888   1.341   8.857
 4778WAT     H114576   3.935   1.291   8.784
 4778WAT     H214577   3.875   1.436   8.829
 4779WAT      O14578   7.724   3.720   1.315
 4779WAT     H114579   7.762   3.672   1.236
 4779WAT     H214580   7.725   3.659   1.395
 4780WAT      O14581   2.968   2.636   1.632
 4780WAT     H114582   2.920   2.705   1.578
 4780WAT     H214583   2.929   2.546   1.612
 4781WAT      O14584   7.762   5.548   6.481
 4781WAT     H114585   7.804   5.485   6.416
 4781WAT     H214586   7.758   5.639   6.441
 4782WAT      O14587   1.153   1.267   9.747
 4782WAT     H114588   1.076   1.256   9.685
 4782WAT     H214589   1.153   1.194   9.815
 4783WAT      O14590   4.704   1.645   0.242
 4783WAT     H114591   4.758   1.709   0.188
 4783WAT     H214592   4.626   1.613   0.188
 4784WAT      O14593   0.722   8.572   1.976
 4784WAT     H114594   0.762   8.612   1.893
 4784WAT     H214595   0.629   8.607   1.988
 4785WAT      O14596   0.175   3.171   2.063
 4785WAT     H114597   0.256   3.123   2.097
 4785WAT     H214598   0.123   3.208   2.139
 4786WAT      O14599   1.005   6.656   8.367
 4786WAT     H114600   1.099   6.633   8.390
 4786WAT     H214601   0.982   6.616   8.278
 4787WAT      O14602   6.098   0.516   4.063
 4787WAT     H114603   6.122   0.480   3.973
 4787WAT     H214604   6.057   0.606   4.053
 4788WAT      O14605   1.564   1.541   9.684
 4788WAT     H114606   1.490   1.474   9.676
 4788WAT     H214607   1.537   1.614   9.746
 4789WAT      O14608   6.032   5.661   7.639
 4789WAT     H114609   5.977   5.578   7.651
 4789WAT     H214610   6.078   5.683   7.725
 4790WAT      O14611   2.795   0.851   4.127
 4790WAT     H114612   2.877   0.907   4.140
 4790WAT     H214613   2.782   0.833   4.029
 4791WAT      O14614   3.851   5.372   5.857
 4791WAT     H114615   3.930   5.417   5.814
 4791WAT     H214616   3.877   5.279   5.883
 4792WAT      O14617   5.262   1.811   8.870
 4792WAT     H114618   5.308   1.850   8.949
 4792WAT     H214619   5.249   1.882   8.801
 4793WAT      O14620   3.524   2.374   6.600
 4793WAT     H114621   3.558   2.346   6.689
 4793WAT     H214622   3.429   2.345   6.589
 4794WAT      O14623   9.705   1.976   1.530
 4794WAT     H114624   9.630   1.914   1.506
 4794WAT     H214625   9.738   2.023   1.448
 4795WAT      O14626   5.137   1.550   2.376
 4795WAT     H114627   5.189   1.627   2.413
 4795WAT     H214628   5.152   1.469   2.434
 4796WAT      O14629   5.935   8.314   2.489
 4796WAT     H114630   5.936   8.306   2.588
 4796WAT     H214631   5.858   8.262   2.452
 4797WAT      O14632   6.471   2.478   9.028
 4797WAT     H114633   6.462   2.529   9.113
 4797WAT     H214634   6.389   2.489   8.973
 4798WAT      O14635   9.473   1.800   1.488
 4798WAT     H114636   9.411   1.862   1.537
 4798WAT     H214637   9.463   1.707   1.525
 4799WAT      O14638   8.431   1.621   8.135
 4799WAT     H114639   8.385   1.685   8.196
 4799WAT     H214640   8.372   1.542   8.119
 4800WAT      O14641   1.999   1.814   5.141
 4800WAT     H114642   1.993   1.914   5.143
 4800WAT     H214643   1.919   1.775   5.185
 4801WAT      O14644   1.847   1.172   4.951
 4801WAT     H114645   1.872   1.125   4.866
 4801WAT     H214646   1.882   1.266   4.948
 4802WAT      O14647   2.016   1.223   4.617
 4802WAT     H114648   1.957   1.237   4.537
 4802WAT     H214649   2.106   1.263   4.601
 4803WAT      O14650   4.058   8.866   8.263
 4803WAT     H114651   4.008   8.843   8.180
 4803WAT     H214652   4.147   8.904   8.238
 4804WAT      O14653   5.279   8.711   7.612
 4804WAT     H114654   5.307   8.641   7.678
 4804WAT     H214655   5.352   8.724   7.545
 4805WAT      O14656   3.237   7.328   7.218
 4805WAT     H114657   3.237   7.304   7.121
 4805WAT     H214658   3.143   7.335   7.251
 4806WAT      O14659   1.346   8.813   3.277
 4806WAT     H114660   1.346   8.850   3.184
 4806WAT     H214661   1.297   8.876   3.337
 4807WAT      O14662   8.425   5.206   4.743
 4807WAT     H114663   8.495   5.171   4.680
 4807WAT     H214664   8.335   5.198   4.701
 4808WAT      O14665   1.045   0.188   3.490
 4808WAT     H114666   0.960   0.214   3.446
 4808WAT     H214667   1.046   0.223   3.584
 4809WAT      O14668   8.472   0.050   5.401
 4809WAT     H114669   8.505  -0.004   5.324
 4809WAT     H214670   8.531   0.035   5.481
 4810WAT      O14671   3.022   9.552   5.040
 4810WAT     H114672   3.013   9.539   5.139
 4810WAT     H214673   2.932   9.563   4.999
 4811WAT      O14674   1.880   5.025   1.724
 4811WAT     H114675   1.871   4.936   1.677
 4811WAT     H214676   1.804   5.084   1.697
 4812WAT      O14677   1.835   7.194   3.283
 4812WAT     H114678   1.743   7.191   3.242
 4812WAT     H214679   1.879   7.105   3.271
 4813WAT      O14680   7.248   2.775   6.628
 4813WAT     H114681   7.158   2.801   6.663
 4813WAT     H214682   7.313   2.850   6.645
 4814WAT      O14683   9.665   2.810   1.090
 4814WAT     H114684   9.615   2.729   1.060
 4814WAT     H214685   9.626   2.892   1.049
 4815WAT      O14686   1.015   0.168   6.779
 4815WAT     H114687   0.997   0.237   6.849
 4815WAT     H214688   0.947   0.094   6.786
 4816WAT      O14689   9.427   4.008   4.462
 4816WAT     H114690   9.393   3.918   4.489
 4816WAT     H214691   9.356   4.056   4.411
 4817WAT      O14692   9.254   4.482   6.248
 4817WAT     H114693   9.200   4.404   6.217
 4817WAT     H214694   9.345   4.478   6.207
 4818WAT      O14695   4.470   7.946   3.190
 4818WAT     H114696   4.446   8.014   3.121
 4818WAT     H214697   4.387   7.899   3.220
 4819WAT      O14698   4.794   9.349   5.885
 4819WAT     H114699   4.764   9.388   5.798
 4819WAT     H214700   4.813   9.252   5.874
 4820WAT      O14701   1.072   4.488   9.842
 4820WAT     H114702   1.002   4.417   9.832
 4820WAT     H214703   1.143   4.456   9.905
 4821WAT      O14704   3.403   6.940   7.845
 4821WAT     H114705   3.385   6.852   7.800
 4821WAT     H214706   3.340   6.950   7.922
 4822WAT      O14707   9.698   6.526   7.779
 4822WAT     H114708   9.791   6.529   7.815
 4822WAT     H214709   9.666   6.619   7.761
 4823WAT      O14710   8.013   8.966   5.568
 4823WAT     H114711   8.068   8.937   5.646
 4823WAT     H214712   7.998   9.065   5.572
 4824WAT      O14713   3.757   3.887   5.602
 4824WAT     H114714   3.828   3.947   5.638
 4824WAT     H214715   3.705   3.846   5.678
 4825WAT      O14716   6.829   5.293   0.993
 4825WAT     H114717   6.763   5.256   1.059
 4825WAT     H214718   6.882   5.217   0.953
 4826WAT      O14719   4.452   0.722   4.720
 4826WAT     H114720   4.484   0.713   4.814
 4826WAT     H214721   4.511   0.785   4.670
 4827WAT      O14722   4.193   9.606   6.506
 4827WAT     H114723   4.249   9.578   6.584
 4827WAT     H214724   4.141   9.528   6.473
 4828WAT      O14725   3.499   4.596   8.024
 4828WAT     H114726   3.593   4.629   8.025
 4828WAT     H214727   3.498   4.502   7.989
 4829WAT      O14728   4.262   0.846   6.919
 4829WAT     H114729   4.199   0.769   6.913
 4829WAT     H214730   4.273   0.872   7.015
 4830WAT      O14731   0.495   6.079   6.503
 4830WAT     H114732   0.556   6.006   6.473
 4830WAT     H214733   0.480   6.143   6.428
 4831WAT      O14734   2.926   7.013   0.660
 4831WAT     H114735   3.000   7.070   0.696
 4831WAT     H214736   2.840   7.035   0.707
 4832WAT      O14737   3.829   1.394   6.535
 4832WAT     H114738   3.891   1.420   6.609
 4832WAT     H214739   3.755   1.338   6.572
 4833WAT      O14740   1.678   3.334   3.836
 4833WAT     H114741   1.691   3.236   3.852
 4833WAT     H214742   1.651   3.349   3.741
 4834WAT      O14743   1.664   6.254   0.769
 4834WAT     H114744   1.730   6.231   0.841
 4834WAT     H214745   1.589   6.188   0.771
 4835WAT      O14746   1.086   7.971   2.093
 4835WAT     H114747   1.040   8.010   2.173
 4835WAT     H214748   1.122   7.881   2.116
 4836WAT      O14749   4.328   0.876   2.150
 4836WAT     H114750   4.275   0.924   2.081
 4836WAT     H214751   4.316   0.921   2.239
 4837WAT      O14752   9.479   7.027   6.374
 4837WAT     H114753   9.437   6.944   6.410
 4837WAT     H214754   9.456   7.104   6.433
 4838WAT      O14755   1.761   0.953   5.959
 4838WAT     H114756   1.703   0.897   5.900
 4838WAT     H214757   1.796   1.031   5.906
 4839WAT      O14758   6.971   5.896   7.572
 4839WAT     H114759   6.922   5.872   7.489
 4839WAT     H214760   7.016   5.985   7.560
 4840WAT      O14761   7.337   8.744   1.140
 4840WAT     H114762   7.272   8.673   1.169
 4840WAT     H214763   7.309   8.832   1.178
 4841WAT      O14764   3.939   3.475   9.143
 4841WAT     H114765   4.034   3.447   9.129
 4841WAT     H214766   3.881   3.436   9.071
 4842WAT      O14767   2.774   2.292   1.033
 4842WAT     H114768   2.735   2.377   1.068
 4842WAT     H214769   2.767   2.291   0.933
 4843WAT      O14770   1.447   1.300   2.269
 4843WAT     H114771   1.534   1.310   2.221
 4843WAT     H214772   1.395   1.225   2.229
 4844WAT      O14773   1.122   4.697   1.506
 4844WAT     H114774   1.075   4.649   1.431
 4844WAT     H214775   1.144   4.790   1.476
 4845WAT      O14776   6.600   8.447   7.768
 4845WAT     H114777   6.558   8.509   7.833
 4845WAT     H214778   6.547   8.446   7.683
 4846WAT      O14779   4.348   4.415   5.130
 4846WAT     H114780   4.329   4.381   5.038
 4846WAT     H214781   4.297   4.499   5.146
 4847WAT      O14782   7.037   8.182   6.772
 4847WAT     H114783   7.003   8.102   6.820
 4847WAT     H214784   7.044   8.162   6.674
 4848WAT      O14785   6.246   6.353   3.139
 4848WAT     H114786   6.317   6.387   3.078
 4848WAT     H214787   6.214   6.427   3.198
 4849WAT      O14788   6.562   5.456   2.902
 4849WAT     H114789   6.510   5.431   2.983
 4849WAT     H214790   6.500   5.479   2.827
 4850WAT      O14791   9.274   6.936   5.347
 4850WAT     H114792   9.301   7.022   5.302
 4850WAT     H214793   9.323   6.860   5.304
 4851WAT      O14794   0.093   7.482   4.613
 4851WAT     H114795   0.148   7.506   4.534
 4851WAT     H214796  -0.004   7.492   4.591
 4852WAT      O14797   5.149   3.211   5.575
 4852WAT     H114798   5.163   3.307   5.554
 4852WAT     H214799   5.119   3.201   5.670
 4853WAT      O14800   2.225   4.258   4.540
 4853WAT     H114801   2.286   4.333   4.565
 4853WAT     H214802   2.259   4.173   4.579
 4854WAT      O14803   7.788   9.181   2.292
 4854WAT     H114804   7.810   9.225   2.379
 4854WAT     H214805   7.794   9.248   2.218
 4855WAT      O14806   1.195   5.068   7.164
 4855WAT     H114807   1.123   5.127   7.200
 4855WAT     H214808   1.275   5.122   7.141
 4856WAT      O14809   2.209   2.511   3.001
 4856WAT     H114810   2.225   2.609   2.987
 4856WAT     H214811   2.262   2.459   2.934
 4857WAT      O14812   7.885   2.408   6.667
 4857WAT     H114813   7.885   2.394   6.568
 4857WAT     H214814   7.921   2.326   6.712
 4858WAT      O14815   0.696   8.035   4.623
 4858WAT     H114816   0.645   7.959   4.663
 4858WAT     H214817   0.656   8.059   4.534
 4859WAT      O14818   6.033   6.218   2.468
 4859WAT     H114819   6.087   6.137   2.489
 4859WAT     H214820   5.974   6.240   2.546
 4860WAT      O14821   9.749   2.447   7.355
 4860WAT     H114822   9.663   2.498   7.350
 4860WAT     H214823   9.820   2.498   7.307
 4861WAT      O14824   4.444   1.486   4.712
 4861WAT     H114825   4.526   1.431   4.731
 4861WAT     H214826   4.413   1.530   4.796
 4862WAT      O14827   0.751   3.133   3.110
 4862WAT     H114828   0.782   3.167   3.021
 4862WAT     H214829   0.820   3.154   3.180
 4863WAT      O14830   8.616   0.817   0.091
 4863WAT     H114831   8.580   0.905   0.124
 4863WAT     H214832   8.688   0.834   0.023
 4864WAT      O14833   5.045   6.142   3.810
 4864WAT     H114834   5.098   6.061   3.784
 4864WAT     H214835   4.990   6.173   3.732
 4865WAT      O14836   9.472   3.977   1.045
 4865WAT     H114837   9.377   3.963   1.018
 4865WAT     H214838   9.475   4.024   1.133
 4866WAT      O14839   3.548   5.303   2.538
 4866WAT     H114840   3.619   5.247   2.495
 4866WAT     H214841   3.586   5.347   2.619
 4867WAT      O14842   9.735   9.207   7.406
 4867WAT     H114843   9.684   9.282   7.449
 4867WAT     H214844   9.704   9.196   7.311
 4868WAT      O14845   7.760   5.903   8.496
 4868WAT     H114846   7.773   5.919   8.398
 4868WAT     H214847   7.703   5.977   8.534
 4869WAT      O14848   0.195   4.758   0.965
 4869WAT     H114849   0.179   4.838   1.022
 4869WAT     H214850   0.136   4.683   0.995
 4870WAT      O14851   3.138   8.473   9.639
 4870WAT     H114852   3.154   8.557   9.690
 4870WAT     H214853   3.040   8.460   9.625
 4871WAT      O14854   4.924   7.041   6.459
 4871WAT     H114855   5.016   7.080   6.457
 4871WAT     H214856   4.921   6.960   6.401
 4872WAT      O14857   8.052   9.558   6.723
 4872WAT     H114858   7.960   9.520   6.711
 4872WAT     H214859   8.096   9.515   6.802
 4873WAT      O14860   6.983   7.458   8.546
 4873WAT     H114861   6.965   7.518   8.468
 4873WAT     H214862   7.043   7.383   8.518
 4874WAT      O14863   3.073   7.577   0.498
 4874WAT     H114864   3.069   7.643   0.573
 4874WAT     H214865   3.150   7.515   0.512
 4875WAT      O14866   1.984   1.766   8.827
 4875WAT     H114867   1.938   1.696   8.882
 4875WAT     H214868   1.962   1.752   8.730
 4876WAT      O14869   8.844   2.722   5.560
 4876WAT     H114870   8.744   2.726   5.556
 4876WAT     H214871   8.879   2.806   5.601
 4877WAT      O14872   2.257   4.365   2.810
 4877WAT     H114873   2.328   4.396   2.747
 4877WAT     H214874   2.229   4.440   2.869
 4878WAT      O14875   3.703   8.259   2.837
 4878WAT     H114876   3.764   8.185   2.869
 4878WAT     H214877   3.697   8.256   2.737
 4879WAT      O14878   2.604   7.691   2.371
 4879WAT     H114879   2.670   7.717   2.440
 4879WAT     H214880   2.518   7.741   2.385
 4880WAT      O14881   5.848   5.071   7.044
 4880WAT     H114882   5.896   4.984   7.034
 4880WAT     H214883   5.809   5.076   7.136
 4881WAT      O14884   3.631   8.638   8.860
 4881WAT     H114885   3.579   8.693   8.926
 4881WAT     H214886   3.699   8.696   8.815
 4882WAT      O14887   2.146   2.913   1.838
 4882WAT     H114888   2.100   2.906   1.926
 4882WAT     H214889   2.245   2.913   1.851
 4883WAT      O14890   7.653   8.161   2.059
 4883WAT     H114891   7.664   8.232   2.129
 4883WAT     H214892   7.726   8.094   2.067
 4884WAT      O14893   6.020   1.697   1.078
 4884WAT     H114894   6.083   1.755   1.026
 4884WAT     H214895   6.059   1.605   1.087
 4885WAT      O14896   7.983   5.370   0.162
 4885WAT     H114897   8.075   5.330   0.163
 4885WAT     H214898   7.921   5.312   0.214
 4886WAT      O14899   2.081   1.550   1.395
 4886WAT     H114900   2.081   1.450   1.397
 4886WAT     H214901   2.173   1.584   1.411
 4887WAT      O14902   5.080   2.459   1.484
 4887WAT     H114903   5.058   2.532   1.420
 4887WAT     H214904   5.018   2.382   1.469
 4888WAT      O14905   7.253   7.105   1.183
 4888WAT     H114906   7.184   7.069   1.120
 4888WAT     H214907   7.236   7.203   1.198
 4889WAT      O14908   7.565   4.804   5.621
 4889WAT     H114909   7.552   4.731   5.553
 4889WAT     H214910   7.590   4.763   5.709
 4890WAT      O14911   5.057   5.933   2.128
 4890WAT     H114912   5.079   5.964   2.220
 4890WAT     H214913   5.119   5.858   2.102
 4891WAT      O14914   3.191   5.530   3.433
 4891WAT     H114915   3.148   5.440   3.440
 4891WAT     H214916   3.281   5.521   3.390
 4892WAT      O14917   2.534   3.588   1.687
 4892WAT     H114918   2.438   3.613   1.684
 4892WAT     H214919   2.571   3.588   1.594
 4893WAT      O14920   1.801   7.116   7.004
 4893WAT     H114921   1.863   7.195   7.001
 4893WAT     H214922   1.716   7.139   6.957
 4894WAT      O14923   7.805   1.214   4.873
 4894WAT     H114924   7.718   1.180   4.908
 4894WAT     H214925   7.845   1.147   4.811
 4895WAT      O14926   8.874   0.478   7.523
 4895WAT     H114927   8.856   0.413   7.596
 4895WAT     H214928   8.819   0.560   7.537
 4896WAT      O14929   7.301   5.966   8.615
 4896WAT     H114930   7.311   6.059   8.577
 4896WAT     H214931   7.351   5.960   8.701
 4897WAT      O14932   4.256   5.815   0.280
 4897WAT     H114933   4.206   5.869   0.348
 4897WAT     H214934   4.270   5.871   0.198
 4898WAT      O14935   8.649   7.143   0.620
 4898WAT     H114936   8.647   7.067   0.683
 4898WAT     H214937   8.740   7.186   0.622
 4899WAT      O14938   4.277   1.866   6.040
 4899WAT     H114939   4.309   1.882   6.133
 4899WAT     H214940   4.326   1.926   5.977
 4900WAT      O14941   9.874   3.423   5.120
 4900WAT     H114942   9.968   3.394   5.103
 4900WAT     H214943   9.814   3.387   5.048
 4901WAT      O14944   3.083   9.443   9.388
 4901WAT     H114945   3.073   9.456   9.289
 4901WAT     H214946   2.998   9.407   9.426
 4902WAT      O14947   3.364   8.339   5.386
 4902WAT     H114948   3.282   8.380   5.347
 4902WAT     H214949   3.366   8.355   5.485
 4903WAT      O14950   1.001   5.559   1.111
 4903WAT     H114951   1.088   5.561   1.160
 4903WAT     H214952   0.938   5.495   1.155
 4904WAT      O14953   4.450   7.289   8.623
 4904WAT     H114954   4.512   7.230   8.676
 4904WAT     H214955   4.454   7.382   8.658
 4905WAT      O14956   1.818   1.402   8.692
 4905WAT     H114957   1.852   1.411   8.786
 4905WAT     H214958   1.750   1.329   8.687
 4906WAT      O14959   4.192   9.617   0.911
 4906WAT     H114960   4.263   9.667   0.862
 4906WAT     H214961   4.102   9.647   0.879
 4907WAT      O14962   3.709   2.697   4.161
 4907WAT     H114963   3.748   2.633   4.095
 4907WAT     H214964   3.662   2.771   4.112
 4908WAT      O14965   9.399   3.072   7.814
 4908WAT     H114966   9.395   3.168   7.842
 4908WAT     H214967   9.306   3.035   7.807
 4909WAT      O14968   5.164   4.591   8.864
 4909WAT     H114969   5.184   4.567   8.769
 4909WAT     H214970   5.099   4.666   8.866
 4910WAT      O14971   8.355   2.794   6.005
 4910WAT     H114972   8.331   2.697   5.999
 4910WAT     H214973   8.289   2.841   6.064
 4911WAT      O14974   3.352   7.516   8.902
 4911WAT     H114975   3.420   7.554   8.965
 4911WAT     H214976   3.274   7.578   8.895
 4912WAT      O14977   8.376   5.401   1.694
 4912WAT     H114978   8.294   5.456   1.707
 4912WAT     H214979   8.352   5.304   1.696
 4913WAT      O14980   7.971   9.569   9.049
 4913WAT     H114981   7.966   9.646   8.986
 4913WAT     H214982   8.060   9.568   9.094
 4914WAT      O14983   2.644   1.682   8.965
 4914WAT     H114984   2.584   1.749   8.921
 4914WAT     H214985   2.697   1.727   9.036
 4915WAT      O14986   0.445   5.348   1.193
 4915WAT     H114987   0.449   5.255   1.158
 4915WAT     H214988   0.497   5.409   1.133
 4916WAT      O14989   0.624   0.917   4.790
 4916WAT     H114990   0.663   0.844   4.735
 4916WAT     H214991   0.608   0.884   4.883
 4917WAT      O14992   2.318   2.536   0.649
 4917WAT     H114993   2.396   2.596   0.664
 4917WAT     H214994   2.255   2.544   0.726
 4918WAT      O14995   1.244   0.896   0.129
 4918WAT     H114996   1.337   0.931   0.140
 4918WAT     H214997   1.237   0.805   0.168
 4919WAT      O14998   5.154   0.489   4.918
 4919WAT     H114999   5.171   0.561   4.986
 4919WAT     H215000   5.075   0.435   4.946
 4920WAT      O15001   7.129   5.476   0.206
 4920WAT     H115002   7.176   5.537   0.141
 4920WAT     H215003   7.090   5.530   0.281
 4921WAT      O15004   0.310   5.761   8.840
 4921WAT     H115005   0.364   5.761   8.924
 4921WAT     H215006   0.343   5.688   8.780
 4922WAT      O15007   8.392   6.556   7.598
 4922WAT     H115008   8.377   6.457   7.595
 4922WAT     H215009   8.437   6.580   7.684
 4923WAT      O15010   3.637   1.707   3.747
 4923WAT     H115011   3.672   1.725   3.656
 4923WAT     H215012   3.661   1.782   3.808
 4924WAT      O15013   0.340   5.855   6.640
 4924WAT     H115014   0.322   5.807   6.554
 4924WAT     H215015   0.380   5.944   6.621
 4925WAT      O15016   0.151   2.995   6.226
 4925WAT     H115017   0.084   3.062   6.195
 4925WAT     H215018   0.106   2.908   6.243
 4926WAT      O15019   0.953   0.323   2.783
 4926WAT     H115020   0.871   0.376   2.763
 4926WAT     H215021   0.963   0.250   2.716
 4927WAT      O15022   8.703   1.617   8.184
 4927WAT     H115023   8.732   1.522   8.196
 4927WAT     H215024   8.616   1.619   8.133
 4928WAT      O15025   2.007   9.005   1.183
 4928WAT     H115026   1.967   9.010   1.091
 4928WAT     H215027   2.103   8.980   1.176
 4929WAT      O15028   8.371   0.851   2.035
 4929WAT     H115029   8.335   0.944   2.033
 4929WAT     H215030   8.470   0.854   2.049
 4930WAT      O15031   7.957   9.110   7.720
 4930WAT     H115032   8.038   9.151   7.678
 4930WAT     H215033   7.926   9.034   7.663
 4931WAT      O15034   7.866   3.121   7.147
 4931WAT     H115035   7.786   3.179   7.131
 4931WAT     H215036   7.836   3.034   7.186
 4932WAT      O15037   3.954   5.507   4.382
 4932WAT     H115038   3.906   5.435   4.331
 4932WAT     H215039   3.898   5.590   4.383
 4933WAT      O15040   7.006   5.980   4.644
 4933WAT     H115041   6.968   5.888   4.635
 4933WAT     H215042   6.976   6.021   4.729
 4934WAT      O15043   9.230   9.655   8.751
 4934WAT     H115044   9.326   9.675   8.732
 4934WAT     H215045   9.216   9.643   8.849
 4935WAT      O15046   3.227   1.812   3.463
 4935WAT     H115047   3.236   1.721   3.502
 4935WAT     H215048   3.262   1.880   3.528
 4936WAT      O15049   0.011   1.104   7.111
 4936WAT     H115050  -0.043   1.038   7.058
 4936WAT     H215051   0.108   1.093   7.089
 4937WAT      O15052   7.075   5.751   5.594
 4937WAT     H115053   7.048   5.831   5.646
 4937WAT     H215054   6.995   5.711   5.550
 4938WAT      O15055   5.519   5.485   3.452
 4938WAT     H115056   5.454   5.445   3.387
 4938WAT     H215057   5.531   5.583   3.432
 4939WAT      O15058   4.344   1.502   0.748
 4939WAT     H115059   4.440   1.494   0.775
 4939WAT     H215060   4.308   1.591   0.777
 4940WAT      O15061   3.834   9.109   8.674
 4940WAT     H115062   3.856   9.055   8.592
 4940WAT     H215063   3.892   9.190   8.677
 4941WAT      O15064   8.625   1.768   6.491
 4941WAT     H115065   8.546   1.793   6.435
 4941WAT     H215066   8.647   1.672   6.476
 4942WAT      O15067   5.369   1.725   9.666
 4942WAT     H115068   5.330   1.800   9.613
 4942WAT     H215069   5.313   1.710   9.748
 4943WAT      O15070   1.868   4.886   8.322
 4943WAT     H115071   1.856   4.929   8.411
 4943WAT     H215072   1.918   4.800   8.333
 4944WAT      O15073   7.279   2.189   3.949
 4944WAT     H115074   7.220   2.265   3.974
 4944WAT     H215075   7.266   2.114   4.013
 4945WAT      O15076   0.084   2.064   0.595
 4945WAT     H115077   0.095   2.137   0.663
 4945WAT     H215078   0.115   1.978   0.635
 4946WAT      O15079   4.163   2.486   6.165
 4946WAT     H115080   4.242   2.463   6.222
 4946WAT     H215081   4.119   2.401   6.133
 4947WAT      O15082   3.962   5.900   0.203
 4947WAT     H115083   3.975   5.867   0.297
 4947WAT     H215084   3.994   5.831   0.139
 4948WAT      O15085   5.871   5.586   7.978
 4948WAT     H115086   5.864   5.544   8.069
 4948WAT     H215087   5.891   5.515   7.911
 4949WAT      O15088   5.743   6.098   3.605
 4949WAT     H115089   5.759   6.144   3.517
 4949WAT     H215090   5.785   6.008   3.603
 4950WAT      O15091   9.606   8.212   4.876
 4950WAT     H115092   9.567   8.280   4.813
 4950WAT     H215093   9.563   8.123   4.859
 4951WAT      O15094   6.863   9.497   2.830
 4951WAT     H115095   6.837   9.406   2.862
 4951WAT     H215096   6.909   9.547   2.904
 4952WAT      O15097   6.300   3.414   4.308
 4952WAT     H115098   6.382   3.424   4.251
 4952WAT     H215099   6.319   3.352   4.383
 4953WAT      O15100   4.677   9.737   6.839
 4953WAT     H115101   4.644   9.831   6.836
 4953WAT     H215102   4.696   9.711   6.934
 4954WAT      O15103   0.144   8.934   5.849
 4954WAT     H115104   0.142   8.863   5.779
 4954WAT     H215105   0.229   8.927   5.901
 4955WAT      O15106   0.209   4.023   4.397
 4955WAT     H115107   0.290   4.022   4.455
 4955WAT     H215108   0.168   4.114   4.400
 4956WAT      O15109   1.636   7.207   8.869
 4956WAT     H115110   1.609   7.274   8.939
 4956WAT     H215111   1.571   7.132   8.867
 4957WAT      O15112   0.328   8.501   4.626
 4957WAT     H115113   0.229   8.500   4.613
 4957WAT     H215114   0.367   8.579   4.577
 4958WAT      O15115   6.045   1.473   9.676
 4958WAT     H115116   6.038   1.393   9.617
 4958WAT     H215117   6.084   1.549   9.624
 4959WAT      O15118   5.173   0.954   8.323
 4959WAT     H115119   5.247   0.993   8.377
 4959WAT     H215120   5.114   1.027   8.289
 4960WAT      O15121   9.624   7.828   6.839
 4960WAT     H115122   9.567   7.827   6.921
 4960WAT     H215123   9.665   7.919   6.828
 4961WAT      O15124   7.341   9.106   0.209
 4961WAT     H115125   7.259   9.161   0.229
 4961WAT     H215126   7.316   9.010   0.207
 4962WAT      O15127   1.852   1.610   4.419
 4962WAT     H115128   1.903   1.550   4.357
 4962WAT     H215129   1.788   1.555   4.473
 4963WAT      O15130   8.149   6.495   1.289
 4963WAT     H115131   8.093   6.465   1.366
 4963WAT     H215132   8.105   6.467   1.203
 4964WAT      O15133   9.185   7.788   9.507
 4964WAT     H115134   9.205   7.714   9.442
 4964WAT     H215135   9.105   7.839   9.477
 4965WAT      O15136   1.237   3.102   4.139
 4965WAT     H115137   1.158   3.041   4.127
 4965WAT     H215138   1.208   3.185   4.186
 4966WAT      O15139   2.646   4.590   3.068
 4966WAT     H115140   2.560   4.606   3.116
 4966WAT     H215141   2.638   4.509   3.010
 4967WAT      O15142   7.296   8.749   6.216
 4967WAT     H115143   7.332   8.842   6.230
 4967WAT     H215144   7.284   8.704   6.304
 4968WAT      O15145   9.314   0.920   8.186
 4968WAT     H115146   9.371   0.839   8.178
 4968WAT     H215147   9.371   0.999   8.206
 4969WAT      O15148   9.756   5.016   4.803
 4969WAT     H115149   9.841   5.026   4.752
 4969WAT     H215150   9.718   5.106   4.824
 4970WAT      O15151   9.872   6.298   8.018
 4970WAT     H115152   9.882   6.390   7.980
 4970WAT     H215153   9.933   6.287   8.096
 4971WAT      O15154   3.948   9.596   4.804
 4971WAT     H115155   4.008   9.532   4.756
 4971WAT     H215156   4.003   9.667   4.848
 4972WAT      O15157   7.226   4.768   2.204
 4972WAT     H115158   7.187   4.808   2.121
 4972WAT     H215159   7.321   4.744   2.187
 4973WAT      O15160   4.761   6.194   0.748
 4973WAT     H115161   4.783   6.159   0.657
 4973WAT     H215162   4.740   6.118   0.809
 4974WAT      O15163   3.431   4.380   5.953
 4974WAT     H115164   3.381   4.332   6.025
 4974WAT     H215165   3.368   4.402   5.878
 4975WAT      O15166   0.307   5.044   3.487
 4975WAT     H115167   0.402   5.071   3.472
 4975WAT     H215168   0.268   5.099   3.561
 4976WAT      O15169   0.497   1.359   8.309
 4976WAT     H115170   0.596   1.364   8.322
 4976WAT     H215171   0.473   1.398   8.220
 4977WAT      O15172   5.230   7.965   0.619
 4977WAT     H115173   5.294   7.900   0.660
 4977WAT     H215174   5.147   7.970   0.675
 4978WAT      O15175   5.163   1.024   2.325
 4978WAT     H115176   5.175   1.040   2.227
 4978WAT     H215177   5.076   1.064   2.355
 4979WAT      O15178   7.244   9.042   7.554
 4979WAT     H115179   7.149   9.024   7.527
 4979WAT     H215180   7.298   8.959   7.540
 4980WAT      O15181   5.025   2.796   7.798
 4980WAT     H115182   5.083   2.863   7.753
 4980WAT     H215183   5.006   2.720   7.735
 4981WAT      O15184   7.532   5.838   0.077
 4981WAT     H115185   7.627   5.855   0.105
 4981WAT     H215186   7.502   5.913   0.018
 4982WAT      O15187   6.618   4.627   3.568
 4982WAT     H115188   6.597   4.530   3.552
 4982WAT     H215189   6.670   4.663   3.491
 4983WAT      O15190   0.767   7.295   9.736
 4983WAT     H115191   0.814   7.209   9.718
 4983WAT     H215192   0.799   7.365   9.672
 4984WAT      O15193   1.473   3.042   3.115
 4984WAT     H115194   1.567   3.067   3.092
 4984WAT     H215195   1.462   3.043   3.214
 4985WAT      O15196   1.664   7.308   9.344
 4985WAT     H115197   1.583   7.251   9.332
 4985WAT     H215198   1.643   7.382   9.408
 4986WAT      O15199   2.778   4.806   0.748
 4986WAT     H115200   2.838   4.884   0.766
 4986WAT     H215201   2.683   4.833   0.761
 4987WAT      O15202   7.259   4.274   1.319
 4987WAT     H115203   7.304   4.186   1.301
 4987WAT     H215204   7.209   4.303   1.238
 4988WAT      O15205   6.397   1.082   1.309
 4988WAT     H115206   6.341   1.013   1.262
 4988WAT     H215207   6.387   1.169   1.262
 4989WAT      O15208   9.869   9.143   2.014
 4989WAT     H115209   9.848   9.090   2.096
 4989WAT     H215210   9.811   9.112   1.939
 4990WAT      O15211   8.815   5.197   0.935
 4990WAT     H115212   8.740   5.261   0.951
 4990WAT     H215213   8.883   5.240   0.876
 4991WAT      O15214   0.137   5.903   2.908
 4991WAT     H115215   0.152   5.977   2.973
 4991WAT     H215216   0.219   5.847   2.900
 4992WAT      O15217   2.683   7.626   3.442
 4992WAT     H115218   2.640   7.666   3.361
 4992WAT     H215219   2.627   7.551   3.475
 4993WAT      O15220   7.482   2.550   2.644
 4993WAT     H115221   7.514   2.479   2.580
 4993WAT     H215222   7.543   2.629   2.640
 4994WAT      O15223   2.676   4.374   5.679
 4994WAT     H115224   2.581   4.377   5.709
 4994WAT     H215225   2.712   4.468   5.676
 4995WAT      O15226   5.434   2.003   4.642
 4995WAT     H115227   5.528   2.004   4.677
 4995WAT     H215228   5.405   1.909   4.627
 4996WAT      O15229   0.019   4.467   5.764
 4996WAT     H115230   0.092   4.414   5.720
 4996WAT     H215231  -0.032   4.408   5.826
 4997WAT      O15232   1.374   7.077   2.798
 4997WAT     H115233   1.284   7.109   2.767
 4997WAT     H215234   1.393   6.987   2.758
 4998WAT      O15235   5.136   9.200   3.747
 4998WAT     H115236   5.186   9.146   3.678
 4998WAT     H215237   5.167   9.173   3.838
 4999WAT      O15238   3.186   0.147   9.816
 4999WAT     H115239   3.159   0.173   9.723
 4999WAT     H215240   3.107   0.151   9.877
 5000WAT      O15241   5.337   4.921   4.986
 5000WAT     H115242   5.350   4.841   4.927
 5000WAT     H215243   5.245   4.919   5.024
 5001WAT      O15244   1.646   0.955   1.946
 5001WAT     H115245   1.591   0.921   1.870
 5001WAT     H215246   1.587   0.972   2.025
 5002WAT      O15247   8.040   2.632   2.779
 5002WAT     H115248   8.031   2.546   2.730
 5002WAT     H215249   7.963   2.692   2.756
 5003WAT      O15250   1.458   9.483   1.968
 5003WAT     H115251   1.393   9.509   2.040
 5003WAT     H215252   1.551   9.484   2.005
 5004WAT      O15253   7.370   1.489   4.483
 5004WAT     H115254   7.355   1.568   4.424
 5004WAT     H215255   7.433   1.513   4.556
 5005WAT      O15256   8.538   4.633   4.468
 5005WAT     H115257   8.619   4.692   4.467
 5005WAT     H215258   8.529   4.587   4.380
 5006WAT      O15259   8.904   2.179   1.762
 5006WAT     H115260   8.848   2.252   1.723
 5006WAT     H215261   8.962   2.217   1.834
 5007WAT      O15262   2.360   2.616   0.358
 5007WAT     H115263   2.334   2.528   0.397
 5007WAT     H215264   2.317   2.690   0.410
 5008WAT      O15265   9.837   7.011   2.918
 5008WAT     H115266   9.833   7.019   3.018
 5008WAT     H215267   9.756   7.055   2.878
 5009WAT      O15268   0.008   7.876   5.722
 5009WAT     H115269  -0.017   7.866   5.626
 5009WAT     H215270   0.106   7.897   5.730
 5010WAT      O15271   2.843   6.964   2.280
 5010WAT     H115272   2.891   6.966   2.367
 5010WAT     H215273   2.774   7.037   2.279
 5011WAT      O15274   2.954   1.105   9.096
 5011WAT     H115275   2.951   1.097   8.997
 5011WAT     H215276   2.912   1.192   9.124
 5012WAT      O15277   2.346   8.271   3.663
 5012WAT     H115278   2.292   8.345   3.623
 5012WAT     H215279   2.313   8.183   3.627
 5013WAT      O15280   4.621   3.913   0.894
 5013WAT     H115281   4.569   3.882   0.974
 5013WAT     H215282   4.670   3.998   0.917
 5014WAT      O15283   3.158   9.231   1.214
 5014WAT     H115284   3.234   9.166   1.211
 5014WAT     H215285   3.166   9.295   1.138
 5015WAT      O15286   2.126   7.646   5.590
 5015WAT     H115287   2.031   7.618   5.576
 5015WAT     H215288   2.187   7.580   5.544
 5016WAT      O15289   1.475   9.180   2.067
 5016WAT     H115290   1.413   9.226   2.004
 5016WAT     H215291   1.421   9.126   2.133
 5017WAT      O15292   2.655   6.299   8.629
 5017WAT     H115293   2.680   6.261   8.718
 5017WAT     H215294   2.612   6.228   8.573
 5018WAT      O15295   0.130   9.212   4.339
 5018WAT     H115296   0.038   9.190   4.309
 5018WAT     H215297   0.132   9.306   4.374
 5019WAT      O15298   6.533   2.083   8.897
 5019WAT     H115299   6.627   2.116   8.907
 5019WAT     H215300   6.508   2.086   8.800
 5020WAT      O15301   1.359   7.319   3.465
 5020WAT     H115302   1.325   7.226   3.484
 5020WAT     H215303   1.372   7.367   3.552
 5021WAT      O15304   4.409   8.763   5.863
 5021WAT     H115305   4.372   8.699   5.796
 5021WAT     H215306   4.415   8.718   5.952
 5022WAT      O15307   1.536   4.909   3.375
 5022WAT     H115308   1.628   4.903   3.335
 5022WAT     H215309   1.530   4.990   3.433
 5023WAT      O15310   1.521   2.643   7.785
 5023WAT     H115311   1.451   2.631   7.856
 5023WAT     H215312   1.581   2.564   7.783
 5024WAT      O15313   9.542   9.246   6.993
 5024WAT     H115314   9.504   9.277   6.906
 5024WAT     H215315   9.557   9.326   7.052
 5025WAT      O15316   6.655   8.514   0.423
 5025WAT     H115317   6.601   8.595   0.401
 5025WAT     H215318   6.752   8.538   0.424
 5026WAT      O15319   0.055   5.901   5.375
 5026WAT     H115320   0.135   5.938   5.327
 5026WAT     H215321   0.063   5.920   5.473
 5027WAT      O15322   3.484   0.731   2.853
 5027WAT     H115323   3.572   0.771   2.828
 5027WAT     H215324   3.412   0.799   2.840
 5028WAT      O15325   5.215   3.736   1.751
 5028WAT     H115326   5.148   3.798   1.708
 5028WAT     H215327   5.170   3.650   1.774
 5029WAT      O15328   6.056   5.686   2.527
 5029WAT     H115329   6.123   5.704   2.455
 5029WAT     H215330   5.963   5.693   2.489
 5030WAT      O15331   1.447   7.871   4.791
 5030WAT     H115332   1.382   7.794   4.796
 5030WAT     H215333   1.464   7.905   4.884
 5031WAT      O15334   4.176   6.651   4.162
 5031WAT     H115335   4.206   6.582   4.096
 5031WAT     H215336   4.178   6.612   4.254
 5032WAT      O15337   6.867   5.103   5.940
 5032WAT     H115338   6.769   5.092   5.924
 5032WAT     H215339   6.887   5.199   5.956
 5033WAT      O15340   3.783   7.226   0.025
 5033WAT     H115341   3.698   7.254  -0.019
 5033WAT     H215342   3.817   7.142  -0.018
 5034WAT      O15343   6.471   7.489   5.157
 5034WAT     H115344   6.486   7.401   5.202
 5034WAT     H215345   6.464   7.561   5.227
 5035WAT      O15346   8.738   1.344   8.452
 5035WAT     H115347   8.725   1.314   8.358
 5035WAT     H215348   8.725   1.267   8.514
 5036WAT      O15349   1.676   0.269   7.379
 5036WAT     H115350   1.591   0.265   7.431
 5036WAT     H215351   1.730   0.348   7.409
 5037WAT      O15352   7.067   6.553   9.522
 5037WAT     H115353   6.995   6.576   9.588
 5037WAT     H215354   7.154   6.590   9.554
 5038WAT      O15355   7.455   5.601   3.369
 5038WAT     H115356   7.495   5.649   3.291
 5038WAT     H215357   7.463   5.502   3.354
 5039WAT      O15358   3.836   2.125   6.949
 5039WAT     H115359   3.798   2.034   6.935
 5039WAT     H215360   3.762   2.193   6.949
 5040WAT      O15361   3.631   6.594   7.174
 5040WAT     H115362   3.538   6.616   7.143
 5040WAT     H215363   3.672   6.528   7.111
 5041WAT      O15364   6.307   5.139   8.473
 5041WAT     H115365   6.326   5.067   8.405
 5041WAT     H215366   6.393   5.169   8.514
 5042WAT      O15367   2.667   8.933   4.869
 5042WAT     H115368   2.642   8.855   4.812
 5042WAT     H215369   2.615   8.930   4.954
 5043WAT      O15370   5.065   5.779   2.612
 5043WAT     H115371   5.103   5.715   2.544
 5043WAT     H215372   4.983   5.739   2.652
 5044WAT      O15373   2.666   5.040   0.054
 5044WAT     H115374   2.610   5.093   0.117
 5044WAT     H215375   2.761   5.071   0.059
 5045WAT      O15376   1.437   4.446   8.333
 5045WAT     H115377   1.509   4.403   8.387
 5045WAT     H215378   1.376   4.497   8.394
 5046WAT      O15379   2.370   2.549   3.773
 5046WAT     H115380   2.324   2.536   3.685
 5046WAT     H215381   2.324   2.623   3.824
 5047WAT      O15382   3.994   7.722   3.796
 5047WAT     H115383   4.072   7.674   3.755
 5047WAT     H215384   3.950   7.779   3.727
 5048WAT      O15385   6.469   3.303   5.740
 5048WAT     H115386   6.519   3.217   5.733
 5048WAT     H215387   6.495   3.350   5.824
 5049WAT      O15388   3.068   3.783   3.819
 5049WAT     H115389   3.160   3.807   3.850
 5049WAT     H215390   3.001   3.842   3.864
 5050WAT      O15391   6.423   3.201   7.730
 5050WAT     H115392   6.462   3.286   7.766
 5050WAT     H215393   6.497   3.137   7.709
 5051WAT      O15394   7.227   6.497   4.007
 5051WAT     H115395   7.152   6.462   3.950
 5051WAT     H215396   7.200   6.585   4.046
 5052WAT      O15397   5.163   9.681   0.974
 5052WAT     H115398   5.139   9.593   0.933
 5052WAT     H215399   5.233   9.668   1.044
 5053WAT      O15400   6.614   8.112   1.480
 5053WAT     H115401   6.556   8.043   1.525
 5053WAT     H215402   6.589   8.116   1.383
 5054WAT      O15403   4.112   2.189   2.656
 5054WAT     H115404   4.158   2.220   2.573
 5054WAT     H215405   4.122   2.090   2.665
 5055WAT      O15406   9.864   1.783   0.767
 5055WAT     H115407   9.822   1.854   0.824
 5055WAT     H215408   9.964   1.788   0.776
 5056WAT      O15409   5.761   4.396   3.028
 5056WAT     H115410   5.706   4.344   3.095
 5056WAT     H215411   5.707   4.472   2.994
 5057WAT      O15412   9.443   4.650   9.201
 5057WAT     H115413   9.371   4.717   9.187
 5057WAT     H215414   9.450   4.629   9.299
 5058WAT      O15415   9.376   0.537   6.047
 5058WAT     H115416   9.460   0.487   6.023
 5058WAT     H215417   9.308   0.523   5.975
 5059WAT      O15418   3.655   7.491   2.645
 5059WAT     H115419   3.714   7.453   2.716
 5059WAT     H215420   3.611   7.417   2.594
 5060WAT      O15421   3.819   8.454   8.944
 5060WAT     H115422   3.768   8.539   8.928
 5060WAT     H215423   3.755   8.377   8.948
 5061WAT      O15424   5.961   8.537   7.307
 5061WAT     H115425   5.920   8.563   7.394
 5061WAT     H215426   6.056   8.568   7.305
 5062WAT      O15427   4.111   6.944   8.619
 5062WAT     H115428   4.177   6.996   8.565
 5062WAT     H215429   4.083   6.863   8.568
 5063WAT      O15430   7.223   4.351   4.732
 5063WAT     H115431   7.141   4.396   4.697
 5063WAT     H215432   7.256   4.399   4.813
 5064WAT      O15433   9.015   8.353   9.160
 5064WAT     H115434   8.938   8.345   9.223
 5064WAT     H215435   9.095   8.307   9.198
 5065WAT      O15436   1.643   2.887   7.722
 5065WAT     H115437   1.589   2.812   7.760
 5065WAT     H215438   1.725   2.900   7.777
 5066WAT      O15439   3.703   5.776   3.501
 5066WAT     H115440   3.763   5.852   3.525
 5066WAT     H215441   3.660   5.793   3.412
 5067WAT      O15442   1.792   6.380   6.659
 5067WAT     H115443   1.729   6.376   6.581
 5067WAT     H215444   1.816   6.287   6.687
 5068WAT      O15445   0.367   4.078   6.862
 5068WAT     H115446   0.463   4.052   6.850
 5068WAT     H215447   0.353   4.170   6.825
 5069WAT      O15448   6.210   6.307   5.825
 5069WAT     H115449   6.228   6.388   5.880
 5069WAT     H215450   6.284   6.295   5.759
 5070WAT      O15451   6.366   2.476   6.666
 5070WAT     H115452   6.426   2.549   6.634
 5070WAT     H215453   6.367   2.474   6.766
 5071WAT      O15454   8.872   5.138   1.897
 5071WAT     H115455   8.883   5.040   1.911
 5071WAT     H215456   8.869   5.158   1.799
 5072WAT      O15457   1.945   2.783   4.367
 5072WAT     H115458   1.944   2.835   4.453
 5072WAT     H215459   1.852   2.762   4.339
 5073WAT      O15460   2.274   6.378   5.745
 5073WAT     H115461   2.285   6.475   5.722
 5073WAT     H215462   2.181   6.349   5.724
 5074WAT      O15463   6.969   4.185   9.499
 5074WAT     H115464   6.874   4.158   9.485
 5074WAT     H215465   7.011   4.126   9.568
 5075WAT      O15466   8.860   3.230   9.179
 5075WAT     H115467   8.852   3.146   9.232
 5075WAT     H215468   8.771   3.277   9.178
 5076WAT      O15469   8.138   4.824   4.284
 5076WAT     H115470   8.067   4.790   4.222
 5076WAT     H215471   8.227   4.820   4.239
 5077WAT      O15472   3.381   6.308   3.109
 5077WAT     H115473   3.448   6.288   3.181
 5077WAT     H215474   3.428   6.310   3.020
 5078WAT      O15475   0.423   8.505   9.390
 5078WAT     H115476   0.338   8.556   9.377
 5078WAT     H215477   0.439   8.446   9.311
 5079WAT      O15478   8.270   0.087   5.629
 5079WAT     H115479   8.274   0.017   5.558
 5079WAT     H215480   8.353   0.142   5.626
 5080WAT      O15481   2.856   3.481   1.707
 5080WAT     H115482   2.844   3.578   1.682
 5080WAT     H215483   2.771   3.431   1.690
 5081WAT      O15484   5.637   7.434   0.930
 5081WAT     H115485   5.695   7.375   0.986
 5081WAT     H215486   5.597   7.380   0.855
 5082WAT      O15487   1.795   1.621   3.669
 5082WAT     H115488   1.724   1.583   3.609
 5082WAT     H215489   1.822   1.711   3.635
 5083WAT      O15490   4.428   8.254   2.230
 5083WAT     H115491   4.433   8.201   2.146
 5083WAT     H215492   4.490   8.332   2.224
 5084WAT      O15493   6.524   7.790   1.232
 5084WAT     H115494   6.560   7.785   1.139
 5084WAT     H215495   6.590   7.839   1.290
 5085WAT      O15496   0.096   2.763   9.543
 5085WAT     H115497   0.037   2.733   9.618
 5085WAT     H215498   0.137   2.684   9.498
 5086WAT      O15499   3.863   8.081   2.197
 5086WAT     H115500   3.894   8.147   2.128
 5086WAT     H215501   3.932   8.072   2.268
 5087WAT      O15502   8.471   0.569   7.928
 5087WAT     H115503   8.509   0.485   7.890
 5087WAT     H215504   8.442   0.630   7.854
 5088WAT      O15505   5.788   3.542   6.238
 5088WAT     H115506   5.705   3.592   6.213
 5088WAT     H215507   5.799   3.542   6.337
 5089WAT      O15508   0.494   2.164   2.682
 5089WAT     H115509   0.566   2.233   2.671
 5089WAT     H215510   0.429   2.194   2.753
 5090WAT      O15511   9.479   1.233   6.674
 5090WAT     H115512   9.439   1.158   6.726
 5090WAT     H215513   9.539   1.197   6.602
 5091WAT      O15514   8.730   0.897   7.075
 5091WAT     H115515   8.660   0.843   7.029
 5091WAT     H215516   8.721   0.885   7.174
 5092WAT      O15517   4.404   9.634   4.795
 5092WAT     H115518   4.470   9.685   4.851
 5092WAT     H215519   4.380   9.549   4.842
 5093WAT      O15520   7.583   5.852   6.220
 5093WAT     H115521   7.671   5.821   6.255
 5093WAT     H215522   7.556   5.936   6.269
 5094WAT      O15523   7.106   6.516   6.554
 5094WAT     H115524   7.113   6.588   6.622
 5094WAT     H215525   7.074   6.555   6.467
 5095WAT      O15526   2.925   4.601   5.086
 5095WAT     H115527   3.001   4.574   5.146
 5095WAT     H215528   2.885   4.686   5.121
 5096WAT      O15529   0.074   2.099   4.215
 5096WAT     H115530   0.087   2.138   4.306
 5096WAT     H215531   0.113   2.007   4.213
 5097WAT      O15532   4.436   9.392   0.751
 5097WAT     H115533   4.418   9.427   0.659
 5097WAT     H215534   4.519   9.434   0.788
 5098WAT      O15535   3.604   7.269   8.979
 5098WAT     H115536   3.621   7.171   8.984
 5098WAT     H215537   3.557   7.291   8.893
 5099WAT      O15538   0.032   4.610   6.924
 5099WAT     H115539   0.126   4.629   6.950
 5099WAT     H215540  -0.001   4.682   6.863
 5100WAT      O15541   6.204   3.165   1.405
 5100WAT     H115542   6.159   3.253   1.420
 5100WAT     H215543   6.301   3.180   1.389
 5101WAT      O15544   3.654   3.100   5.926
 5101WAT     H115545   3.657   3.200   5.920
 5101WAT     H215546   3.684   3.060   5.840
 5102WAT      O15547   4.100   7.854   2.816
 5102WAT     H115548   4.155   7.770   2.823
 5102WAT     H215549   4.159   7.929   2.784
 5103WAT      O15550   5.573   5.630   7.233
 5103WAT     H115551   5.516   5.650   7.154
 5103WAT     H215552   5.544   5.686   7.311
 5104WAT      O15553   1.333   6.046   1.940
 5104WAT     H115554   1.267   6.007   2.004
 5104WAT     H215555   1.376   5.973   1.887
 5105WAT      O15556   3.317   7.069   4.921
 5105WAT     H115557   3.325   7.163   4.954
 5105WAT     H215558   3.381   7.010   4.970
 5106WAT      O15559   9.080   9.717   0.332
 5106WAT     H115560   9.105   9.749   0.423
 5106WAT     H215561   8.986   9.683   0.333
 5107WAT      O15562   9.166   9.135   1.361
 5107WAT     H115563   9.166   9.048   1.311
 5107WAT     H215564   9.072   9.166   1.373
 5108WAT      O15565   4.748   4.627   6.052
 5108WAT     H115566   4.704   4.539   6.032
 5108WAT     H215567   4.825   4.612   6.114
 5109WAT      O15568   0.160   1.810   9.226
 5109WAT     H115569   0.090   1.739   9.238
 5109WAT     H215570   0.208   1.824   9.313
 5110WAT      O15571   7.077   9.220   3.691
 5110WAT     H115572   7.091   9.169   3.776
 5110WAT     H215573   7.066   9.155   3.616
 5111WAT      O15574   8.720   4.935   0.606
 5111WAT     H115575   8.639   4.936   0.547
 5111WAT     H215576   8.693   4.914   0.700
 5112WAT      O15577   3.425   6.520   1.170
 5112WAT     H115578   3.486   6.446   1.142
 5112WAT     H215579   3.358   6.485   1.235
 5113WAT      O15580   4.732   2.912   7.676
 5113WAT     H115581   4.827   2.926   7.650
 5113WAT     H215582   4.722   2.927   7.775
 5114WAT      O15583   5.522   0.581   6.973
 5114WAT     H115584   5.561   0.665   6.935
 5114WAT     H215585   5.581   0.547   7.046
 5115WAT      O15586   6.585   6.649   4.631
 5115WAT     H115587   6.553   6.611   4.718
 5115WAT     H215588   6.635   6.579   4.580
 5116WAT      O15589   3.494   7.078   4.688
 5116WAT     H115590   3.448   7.089   4.775
 5116WAT     H215591   3.442   7.017   4.629
 5117WAT      O15592   1.891   5.250   8.653
 5117WAT     H115593   1.988   5.267   8.635
 5117WAT     H215594   1.842   5.338   8.660
 5118WAT      O15595   3.144   5.082   1.371
 5118WAT     H115596   3.126   4.987   1.344
 5118WAT     H215597   3.068   5.116   1.426
 5119WAT      O15598   8.144   8.783   3.959
 5119WAT     H115599   8.141   8.684   3.975
 5119WAT     H215600   8.104   8.803   3.870
 5120WAT      O15601   0.310   6.582   7.597
 5120WAT     H115602   0.355   6.509   7.649
 5120WAT     H215603   0.376   6.654   7.577
 5121WAT      O15604   4.591   7.894   3.896
 5121WAT     H115605   4.594   7.935   3.987
 5121WAT     H215606   4.532   7.813   3.898
 5122WAT      O15607   1.392   6.178   7.596
 5122WAT     H115608   1.475   6.228   7.572
 5122WAT     H215609   1.417   6.093   7.643
 5123WAT      O15610   8.827   0.167   4.067
 5123WAT     H115611   8.814   0.265   4.076
 5123WAT     H215612   8.924   0.145   4.074
 5124WAT      O15613   3.566   2.500   1.518
 5124WAT     H115614   3.638   2.469   1.456
 5124WAT     H215615   3.597   2.581   1.568
 5125WAT      O15616   9.337   0.102   0.785
 5125WAT     H115617   9.294   0.070   0.869
 5125WAT     H215618   9.387   0.187   0.802
 5126WAT      O15619   9.479   3.001   9.553
 5126WAT     H115620   9.568   2.969   9.521
 5126WAT     H215621   9.489   3.040   9.645
 5127WAT      O15622   6.744   4.761   0.169
 5127WAT     H115623   6.774   4.852   0.198
 5127WAT     H215624   6.818   4.715   0.120
 5128WAT      O15625   8.887   4.253   6.883
 5128WAT     H115626   8.860   4.303   6.801
 5128WAT     H215627   8.954   4.306   6.934
 5129WAT      O15628   8.910   8.298   5.301
 5129WAT     H115629   8.916   8.211   5.349
 5129WAT     H215630   8.942   8.287   5.207
 5130WAT      O15631   6.647   4.321   3.628
 5130WAT     H115632   6.740   4.284   3.639
 5130WAT     H215633   6.600   4.319   3.717
 5131WAT      O15634   3.316   8.664   1.474
 5131WAT     H115635   3.369   8.580   1.467
 5131WAT     H215636   3.257   8.660   1.555
 5132WAT      O15637   7.824   2.806   2.754
 5132WAT     H115638   7.829   2.905   2.761
 5132WAT     H215639   7.761   2.780   2.680
 5133WAT      O15640   6.072   6.190   3.632
 5133WAT     H115641   6.024   6.248   3.697
 5133WAT     H215642   6.047   6.217   3.539
 5134WAT      O15643   4.498   3.249   7.065
 5134WAT     H115644   4.441   3.223   7.143
 5134WAT     H215645   4.535   3.340   7.080
 5135WAT      O15646   7.690   6.790   9.856
 5135WAT     H115647   7.600   6.766   9.820
 5135WAT     H215648   7.695   6.889   9.871
 5136WAT      O15649   7.991   6.600   5.059
 5136WAT     H115650   8.066   6.556   5.009
 5136WAT     H215651   8.016   6.695   5.077
 5137WAT      O15652   7.740   9.141   8.192
 5137WAT     H115653   7.736   9.126   8.291
 5137WAT     H215654   7.716   9.236   8.172
 5138WAT      O15655   4.815   1.804   8.311
 5138WAT     H115656   4.793   1.706   8.314
 5138WAT     H215657   4.870   1.829   8.390
 5139WAT      O15658   6.810   5.284   2.975
 5139WAT     H115659   6.843   5.296   3.068
 5139WAT     H215660   6.747   5.359   2.952
 5140WAT      O15661   2.110   0.178   4.193
 5140WAT     H115662   2.092   0.142   4.285
 5140WAT     H215663   2.106   0.278   4.196
 5141WAT      O15664   4.154   7.237   8.056
 5141WAT     H115665   4.231   7.277   8.107
 5141WAT     H215666   4.189   7.194   7.972
 5142WAT      O15667   6.870   8.081   8.972
 5142WAT     H115668   6.932   8.156   8.993
 5142WAT     H215669   6.777   8.116   8.961
 5143WAT      O15670   9.541   0.270   4.296
 5143WAT     H115671   9.534   0.228   4.387
 5143WAT     H215672   9.491   0.214   4.230
 5144WAT      O15673   4.277   2.106   4.491
 5144WAT     H115674   4.187   2.074   4.519
 5144WAT     H215675   4.274   2.133   4.394
 5145WAT      O15676   5.817   4.993   2.256
 5145WAT     H115677   5.900   5.043   2.231
 5145WAT     H215678   5.836   4.895   2.257
 5146WAT      O15679   2.607   7.154   6.427
 5146WAT     H115680   2.676   7.222   6.404
 5146WAT     H215681   2.607   7.139   6.526
 5147WAT      O15682   3.382   3.884   7.994
 5147WAT     H115683   3.441   3.925   7.924
 5147WAT     H215684   3.402   3.787   8.002
 5148WAT      O15685   0.200   0.277   7.828
 5148WAT     H115686   0.263   0.350   7.854
 5148WAT     H215687   0.246   0.213   7.766
 5149WAT      O15688   2.532   0.087   1.029
 5149WAT     H115689   2.433   0.079   1.037
 5149WAT     H215690   2.558   0.093   0.932
 5150WAT      O15691   5.520   6.675   5.107
 5150WAT     H115692   5.521   6.575   5.106
 5150WAT     H215693   5.485   6.710   5.020
 5151WAT      O15694   9.491   3.067   8.999
 5151WAT     H115695   9.545   3.081   9.082
 5151WAT     H215696   9.547   3.085   8.919
 5152WAT      O15697   5.834   9.741   1.618
 5152WAT     H115698   5.759   9.782   1.565
 5152WAT     H215699   5.885   9.677   1.560
 5153WAT      O15700   4.091   5.321   5.496
 5153WAT     H115701   4.051   5.286   5.581
 5153WAT     H215702   4.187   5.345   5.512
 5154WAT      O15703   6.726   5.085   5.305
 5154WAT     H115704   6.729   5.016   5.233
 5154WAT     H215705   6.757   5.045   5.392
 5155WAT      O15706   6.272   8.863   3.755
 5155WAT     H115707   6.365   8.853   3.790
 5155WAT     H215708   6.257   8.959   3.730
 5156WAT      O15709   5.105   2.794   2.571
 5156WAT     H115710   5.112   2.694   2.560
 5156WAT     H215711   5.190   2.837   2.540
 5157WAT      O15712   8.211   5.204   0.874
 5157WAT     H115713   8.234   5.115   0.915
 5157WAT     H215714   8.124   5.197   0.825
 5158WAT      O15715   9.737   0.490   1.623
 5158WAT     H115716   9.690   0.420   1.677
 5158WAT     H215717   9.800   0.445   1.559
 5159WAT      O15718   8.161   9.747   5.454
 5159WAT     H115719   8.181   9.761   5.357
 5159WAT     H215720   8.088   9.679   5.464
 5160WAT      O15721   1.648   5.970   2.500
 5160WAT     H115722   1.575   6.037   2.512
 5160WAT     H215723   1.621   5.903   2.431
 5161WAT      O15724   3.071   5.863   8.613
 5161WAT     H115725   3.057   5.956   8.649
 5161WAT     H215726   3.167   5.852   8.588
 5162WAT      O15727   1.757   1.232   0.522
 5162WAT     H115728   1.659   1.253   0.514
 5162WAT     H215729   1.806   1.268   0.443
 5163WAT      O15730   9.304   9.114   4.755
 5163WAT     H115731   9.251   9.124   4.839
 5163WAT     H215732   9.245   9.078   4.683
 5164WAT      O15733   9.723   2.694   8.771
 5164WAT     H115734   9.769   2.606   8.760
 5164WAT     H215735   9.631   2.688   8.732
 5165WAT      O15736   4.761   2.127   7.519
 5165WAT     H115737   4.743   2.202   7.455
 5165WAT     H215738   4.856   2.132   7.550
 5166WAT      O15739   7.524   4.069   4.799
 5166WAT     H115740   7.581   4.118   4.732
 5166WAT     H215741   7.449   4.023   4.751
 5167WAT      O15742   9.658   4.576   9.553
 5167WAT     H115743   9.577   4.558   9.496
 5167WAT     H215744   9.630   4.621   9.637
 5168WAT      O15745   2.915   2.135   6.167
 5168WAT     H115746   2.904   2.212   6.104
 5168WAT     H215747   2.968   2.164   6.247
 5169WAT      O15748   0.507   2.325   6.238
 5169WAT     H115749   0.592   2.355   6.194
 5169WAT     H215750   0.494   2.375   6.324
 5170WAT      O15751   1.657   4.895   0.578
 5170WAT     H115752   1.576   4.893   0.520
 5170WAT     H215753   1.683   4.990   0.596
 5171WAT      O15754   2.462   2.494   7.305
 5171WAT     H115755   2.426   2.574   7.353
 5171WAT     H215756   2.389   2.454   7.250
 5172WAT      O15757   5.571   6.540   3.816
 5172WAT     H115758   5.628   6.457   3.814
 5172WAT     H215759   5.484   6.521   3.770
 5173WAT      O15760   2.797   6.579   2.424
 5173WAT     H115761   2.862   6.563   2.499
 5173WAT     H215762   2.760   6.491   2.394
 5174WAT      O15763   7.098   9.827   6.388
 5174WAT     H115764   7.081   9.761   6.314
 5174WAT     H215765   7.126   9.777   6.471
 5175WAT      O15766   7.225   0.671   6.769
 5175WAT     H115767   7.262   0.655   6.860
 5175WAT     H215768   7.169   0.755   6.770
 5176WAT      O15769   6.471   3.888   7.695
 5176WAT     H115770   6.548   3.877   7.758
 5176WAT     H215771   6.495   3.851   7.605
 5177WAT      O15772   8.405   1.760   6.331
 5177WAT     H115773   8.422   1.797   6.240
 5177WAT     H215774   8.307   1.755   6.347
 5178WAT      O15775   6.959   2.024   7.039
 5178WAT     H115776   6.916   2.092   7.098
 5178WAT     H215777   6.919   2.031   6.947
 5179WAT      O15778   7.992   4.089   1.264
 5179WAT     H115779   7.989   4.186   1.288
 5179WAT     H215780   7.939   4.073   1.181
 5180WAT      O15781   4.496   7.951   8.953
 5180WAT     H115782   4.544   8.022   8.900
 5180WAT     H215783   4.426   7.994   9.010
 5181WAT      O15784   2.807   9.167   0.780
 5181WAT     H115785   2.768   9.252   0.743
 5181WAT     H215786   2.874   9.189   0.851
 5182WAT      O15787   7.855   7.458   3.554
 5182WAT     H115788   7.781   7.407   3.511
 5182WAT     H215789   7.858   7.551   3.516
 5183WAT      O15790   3.176   7.669   2.702
 5183WAT     H115791   3.255   7.715   2.743
 5183WAT     H215792   3.124   7.623   2.773
 5184WAT      O15793   1.084   4.161   8.356
 5184WAT     H115794   1.108   4.133   8.263
 5184WAT     H215795   1.050   4.255   8.355
 5185WAT      O15796   4.539   9.152   7.682
 5185WAT     H115797   4.561   9.242   7.644
 5185WAT     H215798   4.449   9.154   7.725
 5186WAT      O15799   2.290   1.842   5.156
 5186WAT     H115800   2.373   1.817   5.206
 5186WAT     H215801   2.287   1.791   5.070
 5187WAT      O15802   5.467   8.115   3.991
 5187WAT     H115803   5.476   8.187   3.923
 5187WAT     H215804   5.447   8.155   4.080
 5188WAT      O15805   0.481   5.951   2.565
 5188WAT     H115806   0.433   6.031   2.601
 5188WAT     H215807   0.578   5.973   2.553
 5189WAT      O15808   3.851   9.067   1.436
 5189WAT     H115809   3.786   8.991   1.425
 5189WAT     H215810   3.914   9.069   1.359
 5190WAT      O15811   6.913   4.299   0.393
 5190WAT     H115812   6.847   4.350   0.448
 5190WAT     H215813   6.947   4.221   0.445
 5191WAT      O15814   8.735   6.632   1.847
 5191WAT     H115815   8.725   6.726   1.813
 5191WAT     H215816   8.742   6.569   1.770
 5192WAT      O15817   8.258   3.557   2.500
 5192WAT     H115818   8.176   3.548   2.557
 5192WAT     H215819   8.331   3.602   2.553
 5193WAT      O15820   8.762   3.440   7.766
 5193WAT     H115821   8.743   3.442   7.668
 5193WAT     H215822   8.676   3.439   7.817
 5194WAT      O15823   4.850   8.344   6.549
 5194WAT     H115824   4.802   8.389   6.474
 5194WAT     H215825   4.884   8.255   6.519
 5195WAT      O15826   6.796   0.728   0.184
 5195WAT     H115827   6.746   0.683   0.111
 5195WAT     H215828   6.892   0.697   0.182
 5196WAT      O15829   3.871   1.521   1.430
 5196WAT     H115830   3.807   1.552   1.500
 5196WAT     H215831   3.932   1.452   1.469
 5197WAT      O15832   7.134   7.301   1.544
 5197WAT     H115833   7.151   7.340   1.634
 5197WAT     H215834   7.219   7.298   1.491
 5198WAT      O15835   4.519   5.840   6.690
 5198WAT     H115836   4.511   5.853   6.788
 5198WAT     H215837   4.436   5.872   6.645
 5199WAT      O15838   4.331   2.774   8.955
 5199WAT     H115839   4.271   2.854   8.961
 5199WAT     H215840   4.406   2.793   8.892
 5200WAT      O15841   1.886   0.168   8.819
 5200WAT     H115842   1.789   0.142   8.816
 5200WAT     H215843   1.902   0.243   8.754
 5201WAT      O15844   5.809   2.728   7.697
 5201WAT     H115845   5.821   2.796   7.770
 5201WAT     H215846   5.887   2.732   7.635
 5202WAT      O15847   7.684   1.080   6.131
 5202WAT     H115848   7.694   1.094   6.033
 5202WAT     H215849   7.600   1.124   6.163
 5203WAT      O15850   8.415   6.290   8.790
 5203WAT     H115851   8.459   6.291   8.700
 5203WAT     H215852   8.485   6.295   8.861
 5204WAT      O15853   2.427   3.693   5.360
 5204WAT     H115854   2.517   3.656   5.381
 5204WAT     H215855   2.417   3.700   5.261
 5205WAT      O15856   4.006   6.821   4.976
 5205WAT     H115857   3.979   6.915   4.958
 5205WAT     H215858   3.984   6.797   5.070
 5206WAT      O15859   7.392   6.811   4.487
 5206WAT     H115860   7.455   6.888   4.477
 5206WAT     H215861   7.299   6.839   4.465
 5207WAT      O15862   9.347   5.763   5.559
 5207WAT     H115863   9.304   5.840   5.511
 5207WAT     H215864   9.446   5.770   5.551
 5208WAT      O15865   3.585   4.044   6.798
 5208WAT     H115866   3.512   4.111   6.781
 5208WAT     H215867   3.648   4.043   6.720
 5209WAT      O15868   4.361   6.021   7.770
 5209WAT     H115869   4.269   6.049   7.799
 5209WAT     H215870   4.373   6.041   7.673
 5210WAT      O15871   8.313   6.463   5.763
 5210WAT     H115872   8.320   6.518   5.679
 5210WAT     H215873   8.232   6.490   5.814
 5211WAT      O15874   9.252   4.113   6.290
 5211WAT     H115875   9.192   4.174   6.238
 5211WAT     H215876   9.196   4.052   6.346
 5212WAT      O15877   6.783   8.341   3.140
 5212WAT     H115878   6.733   8.382   3.217
 5212WAT     H215879   6.730   8.354   3.056
 5213WAT      O15880   6.161   0.202   8.169
 5213WAT     H115881   6.218   0.247   8.100
 5213WAT     H215882   6.156   0.104   8.151
 5214WAT      O15883   8.624   7.386   2.890
 5214WAT     H115884   8.714   7.428   2.874
 5214WAT     H215885   8.558   7.458   2.914
 5215WAT      O15886   3.249   0.659   7.110
 5215WAT     H115887   3.185   0.657   7.033
 5215WAT     H215888   3.227   0.736   7.170
 5216WAT      O15889   0.044   1.076   2.836
 5216WAT     H115890  -0.012   1.032   2.766
 5216WAT     H215891  -0.010   1.091   2.918
 5217WAT      O15892   2.334   6.901   1.713
 5217WAT     H115893   2.402   6.923   1.784
 5217WAT     H215894   2.266   6.838   1.751
 5218WAT      O15895   5.917   7.445   8.582
 5218WAT     H115896   5.998   7.407   8.537
 5218WAT     H215897   5.850   7.372   8.596
 5219WAT      O15898   4.691   2.990   7.928
 5219WAT     H115899   4.749   2.947   7.997
 5219WAT     H215900   4.598   2.999   7.963
 5220WAT      O15901   6.622   6.071   0.166
 5220WAT     H115902   6.681   6.056   0.245
 5220WAT     H215903   6.550   6.137   0.190
 5221WAT      O15904   6.991   8.699   4.702
 5221WAT     H115905   7.025   8.792   4.712
 5221WAT     H215906   7.047   8.636   4.755
 5222WAT      O15907   7.183   3.025   1.246
 5222WAT     H115908   7.219   3.031   1.153
 5222WAT     H215909   7.107   3.089   1.257
 5223WAT      O15910   7.152   1.800   6.067
 5223WAT     H115911   7.070   1.856   6.076
 5223WAT     H215912   7.198   1.821   5.981
 5224WAT      O15913   5.001   7.444   0.367
 5224WAT     H115914   5.007   7.478   0.273
 5224WAT     H215915   4.946   7.361   0.370
 5225WAT      O15916   7.958   0.696   8.074
 5225WAT     H115917   7.888   0.648   8.021
 5225WAT     H215918   8.046   0.691   8.026
 5226WAT      O15919   0.054   6.882   7.527
 5226WAT     H115920   0.107   6.908   7.608
 5226WAT     H215921  -0.040   6.912   7.537
 5227WAT      O15922   0.092   8.869   4.343
 5227WAT     H115923   0.176   8.882   4.291
 5227WAT     H215924   0.021   8.930   4.308
 5228WAT      O15925   6.156   6.627   3.640
 5228WAT     H115926   6.211   6.593   3.717
 5228WAT     H215927   6.195   6.593   3.554
 5229WAT      O15928   0.134   3.173   3.774
 5229WAT     H115929   0.204   3.124   3.723
 5229WAT     H215930   0.071   3.107   3.815
 5230WAT      O15931   3.304   3.272   0.698
 5230WAT     H115932   3.236   3.327   0.651
 5230WAT     H215933   3.327   3.315   0.785
 5231WAT      O15934   4.683   3.908   9.649
 5231WAT     H115935   4.619   3.831   9.649
 5231WAT     H215936   4.635   3.991   9.619
 5232WAT      O15937   8.771   4.977   3.303
 5232WAT     H115938   8.706   5.052   3.292
 5232WAT     H215939   8.778   4.926   3.217
 5233WAT      O15940   6.003   1.271   3.138
 5233WAT     H115941   5.938   1.346   3.126
 5233WAT     H215942   6.059   1.288   3.219
 5234WAT      O15943   6.562   9.074   6.808
 5234WAT     H115944   6.516   8.995   6.850
 5234WAT     H215945   6.585   9.052   6.713
 5235WAT      O15946   3.794   1.671   5.994
 5235WAT     H115947   3.861   1.739   5.965
 5235WAT     H215948   3.785   1.674   6.094
 5236WAT      O15949   3.127   2.158   5.795
 5236WAT     H115950   3.174   2.203   5.871
 5236WAT     H215951   3.065   2.223   5.751
 5237WAT      O15952   9.390   0.073   5.095
 5237WAT     H115953   9.338  -0.006   5.063
 5237WAT     H215954   9.479   0.075   5.049
 5238WAT      O15955   8.620   3.941   0.992
 5238WAT     H115956   8.708   3.949   0.946
 5238WAT     H215957   8.580   3.851   0.971
 5239WAT      O15958   5.636   9.142   3.179
 5239WAT     H115959   5.611   9.229   3.136
 5239WAT     H215960   5.721   9.107   3.139
 5240WAT      O15961   3.725   6.285   5.056
 5240WAT     H115962   3.759   6.229   5.131
 5240WAT     H215963   3.761   6.250   4.969
 5241WAT      O15964   8.951   4.792   0.551
 5241WAT     H115965   8.996   4.788   0.640
 5241WAT     H215966   8.865   4.841   0.560
 5242WAT      O15967   8.085   9.843   2.519
 5242WAT     H115968   8.044   9.787   2.447
 5242WAT     H215969   8.184   9.849   2.504
 5243WAT      O15970   2.030   4.512   7.787
 5243WAT     H115971   2.069   4.595   7.828
 5243WAT     H215972   2.094   4.475   7.719
 5244WAT      O15973   2.176   8.355   5.966
 5244WAT     H115974   2.098   8.324   6.021
 5244WAT     H215975   2.246   8.394   6.027
 5245WAT      O15976   9.266   6.848   0.523
 5245WAT     H115977   9.364   6.829   0.528
 5245WAT     H215978   9.237   6.850   0.427
 5246WAT      O15979   0.660   5.684   9.369
 5246WAT     H115980   0.608   5.703   9.452
 5246WAT     H215981   0.621   5.735   9.293
 5247WAT      O15982   2.682   0.745   0.677
 5247WAT     H115983   2.596   0.779   0.638
 5247WAT     H215984   2.707   0.799   0.757
 5248WAT      O15985   1.907   8.950   7.302
 5248WAT     H115986   1.847   8.896   7.244
 5248WAT     H215987   1.973   8.889   7.347
 5249WAT      O15988   9.019   6.946   9.373
 5249WAT     H115989   8.987   7.030   9.329
 5249WAT     H215990   9.032   6.962   9.471
 5250WAT      O15991   1.232   2.081   8.543
 5250WAT     H115992   1.211   1.988   8.513
 5250WAT     H215993   1.157   2.142   8.516
 5251WAT      O15994   5.784   4.503   8.255
 5251WAT     H115995   5.775   4.413   8.212
 5251WAT     H215996   5.877   4.513   8.291
 5252WAT      O15997   6.292   2.950   1.547
 5252WAT     H115998   6.336   2.885   1.485
 5252WAT     H215999   6.274   3.036   1.500
 5253WAT      O16000   2.132   7.723   8.069
 5253WAT     H116001   2.217   7.775   8.075
 5253WAT     H216002   2.059   7.783   8.035
 5254WAT      O16003   8.290   9.727   3.162
 5254WAT     H116004   8.304   9.826   3.156
 5254WAT     H216005   8.201   9.708   3.203
 5255WAT      O16006   7.610   6.021   7.450
 5255WAT     H116007   7.513   6.032   7.475
 5255WAT     H216008   7.667   6.053   7.526
 5256WAT      O16009   9.226   5.981   9.530
 5256WAT     H116010   9.309   5.932   9.555
 5256WAT     H216011   9.229   6.006   9.434
 5257WAT      O16012   4.945   4.621   5.780
 5257WAT     H116013   4.989   4.639   5.692
 5257WAT     H216014   4.856   4.579   5.764
 5258WAT      O16015   5.779   9.295   0.584
 5258WAT     H116016   5.751   9.361   0.515
 5258WAT     H216017   5.875   9.270   0.570
 5259WAT      O16018   8.126   1.160   6.975
 5259WAT     H116019   8.053   1.134   7.038
 5259WAT     H216020   8.210   1.177   7.026
 5260WAT      O16021   4.627   0.191   2.099
 5260WAT     H116022   4.591   0.159   2.187
 5260WAT     H216023   4.717   0.234   2.113
 5261WAT      O16024   7.070   1.204   3.162
 5261WAT     H116025   6.976   1.235   3.175
 5261WAT     H216026   7.069   1.113   3.121
 5262WAT      O16027   2.358   0.280   4.042
 5262WAT     H116028   2.344   0.184   4.017
 5262WAT     H216029   2.308   0.301   4.126
 5263WAT      O16030   3.873   9.392   1.074
 5263WAT     H116031   3.787   9.342   1.077
 5263WAT     H216032   3.948   9.330   1.051
 5264WAT      O16033   7.658   7.544   3.265
 5264WAT     H116034   7.609   7.556   3.178
 5264WAT     H216035   7.712   7.626   3.284
 5265WAT      O16036   1.031   7.625   7.282
 5265WAT     H116037   1.126   7.628   7.313
 5265WAT     H216038   1.025   7.665   7.190
 5266WAT      O16039   5.181   1.259   2.907
 5266WAT     H116040   5.277   1.269   2.880
 5266WAT     H216041   5.155   1.336   2.965
 5267WAT      O16042   2.313   4.577   2.060
 5267WAT     H116043   2.331   4.509   1.989
 5267WAT     H216044   2.281   4.662   2.018
 5268WAT      O16045   4.140   1.996   9.009
 5268WAT     H116046   4.239   2.002   8.995
 5268WAT     H216047   4.105   2.086   9.034
 5269WAT      O16048   8.815   0.735   1.436
 5269WAT     H116049   8.752   0.697   1.503
 5269WAT     H216050   8.902   0.757   1.481
 5270WAT      O16051   6.031   1.797   5.766
 5270WAT     H116052   6.081   1.776   5.849
 5270WAT     H216053   6.092   1.842   5.700
 5271WAT      O16054   6.505   9.345   5.030
 5271WAT     H116055   6.409   9.342   5.058
 5271WAT     H216056   6.513   9.320   4.933
 5272WAT      O16057   5.481   0.805   5.015
 5272WAT     H116058   5.521   0.816   4.924
 5272WAT     H216059   5.425   0.722   5.016
 5273WAT      O16060   9.160   9.385   7.680
 5273WAT     H116061   9.255   9.401   7.707
 5273WAT     H216062   9.134   9.292   7.705
 5274WAT      O16063   2.852   5.103   9.601
 5274WAT     H116064   2.942   5.138   9.627
 5274WAT     H216065   2.853   5.003   9.606
 5275WAT      O16066   8.369   1.523   6.475
 5275WAT     H116067   8.303   1.549   6.545
 5275WAT     H216068   8.404   1.606   6.430
 5276WAT      O16069   8.043   4.511   4.457
 5276WAT     H116070   8.053   4.541   4.552
 5276WAT     H216071   7.958   4.547   4.419
 5277WAT      O16072   9.095   8.165   3.751
 5277WAT     H116073   9.069   8.093   3.815
 5277WAT     H216074   9.053   8.149   3.662
 5278WAT      O16075   4.326   1.821   6.697
 5278WAT     H116076   4.334   1.722   6.697
 5278WAT     H216077   4.374   1.859   6.777
 5279WAT      O16078   0.063   6.189   1.202
 5279WAT     H116079   0.117   6.194   1.286
 5279WAT     H216080   0.035   6.094   1.187
 5280WAT      O16081   9.558   6.912   8.381
 5280WAT     H116082   9.521   7.004   8.394
 5280WAT     H216083   9.506   6.847   8.436
 5281WAT      O16084   5.998   3.613   7.110
 5281WAT     H116085   5.980   3.707   7.081
 5281WAT     H216086   5.962   3.599   7.203
 5282WAT      O16087   1.849   6.645   8.568
 5282WAT     H116088   1.911   6.673   8.642
 5282WAT     H216089   1.765   6.699   8.573
 5283WAT      O16090   5.604   9.573   7.755
 5283WAT     H116091   5.560   9.569   7.666
 5283WAT     H216092   5.560   9.643   7.812
 5284WAT      O16093   7.464   3.893   3.550
 5284WAT     H116094   7.393   3.950   3.509
 5284WAT     H216095   7.510   3.945   3.623
 5285WAT      O16096   4.384   7.566   9.132
 5285WAT     H116097   4.445   7.645   9.140
 5285WAT     H216098   4.313   7.586   9.064
 5286WAT      O16099   5.687   2.526   9.083
 5286WAT     H116100   5.617   2.461   9.113
 5286WAT     H216101   5.736   2.488   9.005
 5287WAT      O16102   4.541   8.153   3.772
 5287WAT     H116103   4.539   8.067   3.823
 5287WAT     H216104   4.549   8.134   3.674
 5288WAT      O16105   4.939   7.524   1.518
 5288WAT     H116106   4.943   7.547   1.615
 5288WAT     H216107   4.896   7.599   1.468
 5289WAT      O16108   6.444   3.637   7.977
 5289WAT     H116109   6.399   3.555   8.014
 5289WAT     H216110   6.385   3.716   7.991
 5290WAT      O16111   6.380   4.556   9.767
 5290WAT     H116112   6.467   4.556   9.815
 5290WAT     H216113   6.390   4.511   9.678
 5291WAT      O16114   7.943   6.019   2.758
 5291WAT     H116115   7.845   6.036   2.743
 5291WAT     H216116   7.954   5.955   2.834
 5292WAT      O16117   7.089   0.874   3.309
 5292WAT     H116118   7.105   0.775   3.305
 5292WAT     H216119   7.170   0.919   3.346
 5293WAT      O16120   9.745   9.712   9.337
 5293WAT     H116121   9.802   9.763   9.273
 5293WAT     H216122   9.679   9.656   9.286
 5294WAT      O16123   6.509   7.468   6.743
 5294WAT     H116124   6.442   7.443   6.673
 5294WAT     H216125   6.474   7.443   6.833
 5295WAT      O16126   9.045   8.955   5.330
 5295WAT     H116127   9.134   8.910   5.344
 5295WAT     H216128   8.974   8.885   5.325
 5296WAT      O16129   6.755   9.187   6.936
 5296WAT     H116130   6.822   9.223   6.871
 5296WAT     H216131   6.676   9.151   6.887
 5297WAT      O16132   7.509   0.469   3.636
 5297WAT     H116133   7.429   0.427   3.679
 5297WAT     H216134   7.556   0.402   3.579
 5298WAT      O16135   6.357   8.980   8.234
 5298WAT     H116136   6.441   8.946   8.276
 5298WAT     H216137   6.284   8.913   8.246
 5299WAT      O16138   5.286   8.809   2.052
 5299WAT     H116139   5.286   8.909   2.061
 5299WAT     H216140   5.372   8.780   2.010
 5300WAT      O16141   5.983   8.682   6.548
 5300WAT     H116142   6.051   8.672   6.621
 5300WAT     H216143   5.957   8.592   6.514
 5301WAT      O16144   7.016   9.015   5.287
 5301WAT     H116145   7.074   9.025   5.368
 5301WAT     H216146   7.069   9.038   5.205
 5302WAT      O16147   9.428   5.538   8.786
 5302WAT     H116148   9.349   5.478   8.776
 5302WAT     H216149   9.410   5.625   8.739
 5303WAT      O16150   5.694   8.642   2.761
 5303WAT     H116151   5.620   8.708   2.771
 5303WAT     H216152   5.668   8.572   2.695
 5304WAT      O16153   3.894   4.372   4.467
 5304WAT     H116154   3.857   4.330   4.384
 5304WAT     H216155   3.843   4.456   4.488
 5305WAT      O16156   2.308   1.914   6.730
 5305WAT     H116157   2.237   1.973   6.693
 5305WAT     H216158   2.372   1.969   6.784
 5306WAT      O16159   7.486   1.444   0.317
 5306WAT     H116160   7.546   1.487   0.385
 5306WAT     H216161   7.522   1.463   0.225
 5307WAT      O16162   6.483   6.094   2.748
 5307WAT     H116163   6.383   6.091   2.745
 5307WAT     H216164   6.513   6.104   2.843
 5308WAT      O16165   1.714   5.317   9.504
 5308WAT     H116166   1.778   5.388   9.476
 5308WAT     H216167   1.761   5.253   9.565
 5309WAT      O16168   2.708   4.941   0.439
 5309WAT     H116169   2.767   4.891   0.375
 5309WAT     H216170   2.634   4.881   0.469
 5310WAT      O16171   5.067   6.486   4.925
 5310WAT     H116172   5.133   6.558   4.903
 5310WAT     H216173   5.114   6.411   4.971
 5311WAT      O16174   3.271   5.169   6.625
 5311WAT     H116175   3.344   5.210   6.571
 5311WAT     H216176   3.304   5.153   6.719
 5312WAT      O16177   4.736   5.500   6.747
 5312WAT     H116178   4.813   5.517   6.809
 5312WAT     H216179   4.768   5.504   6.652
 5313WAT      O16180   8.767   3.511   0.206
 5313WAT     H116181   8.816   3.569   0.140
 5313WAT     H216182   8.831   3.480   0.276
 5314WAT      O16183   7.273   0.265   8.471
 5314WAT     H116184   7.184   0.239   8.510
 5314WAT     H216185   7.321   0.324   8.535
 5315WAT      O16186   5.918   2.247   4.316
 5315WAT     H116187   5.869   2.229   4.402
 5315WAT     H216188   5.852   2.260   4.242
 5316WAT      O16189   9.834   0.950   2.048
 5316WAT     H116190   9.754   0.952   2.107
 5316WAT     H216191   9.811   0.986   1.958
 5317WAT      O16192   7.535   1.950   1.108
 5317WAT     H116193   7.534   2.042   1.070
 5317WAT     H216194   7.628   1.928   1.138
 5318WAT      O16195   9.850   1.562   8.411
 5318WAT     H116196   9.916   1.626   8.371
 5318WAT     H216197   9.841   1.581   8.509
 5319WAT      O16198   5.883   6.297   4.446
 5319WAT     H116199   5.862   6.199   4.456
 5319WAT     H216200   5.982   6.308   4.433
 5320WAT      O16201   1.833   7.675   7.497
 5320WAT     H116202   1.865   7.671   7.592
 5320WAT     H216203   1.864   7.760   7.455
 5321WAT      O16204   7.815   5.415   8.822
 5321WAT     H116205   7.890   5.349   8.823
 5321WAT     H216206   7.829   5.482   8.894
 5322WAT      O16207   2.373   0.684   2.213
 5322WAT     H116208   2.297   0.743   2.187
 5322WAT     H216209   2.349   0.634   2.296
 5323WAT      O16210   3.953   6.322   9.645
 5323WAT     H116211   3.860   6.304   9.676
 5323WAT     H216212   4.016   6.258   9.689
 5324WAT      O16213   6.059   3.735   8.799
 5324WAT     H116214   6.095   3.650   8.837
 5324WAT     H216215   6.096   3.749   8.707
 5325WAT      O16216   2.447   3.030   6.198
 5325WAT     H116217   2.534   3.079   6.187
 5325WAT     H216218   2.452   2.970   6.278
 5326WAT      O16219   5.092   6.848   4.339
 5326WAT     H116220   5.004   6.802   4.346
 5326WAT     H216221   5.095   6.925   4.403
 5327WAT      O16222   6.250   7.543   9.313
 5327WAT     H116223   6.265   7.474   9.241
 5327WAT     H216224   6.158   7.533   9.349
 5328WAT      O16225   8.809   1.505   9.172
 5328WAT     H116226   8.830   1.550   9.085
 5328WAT     H216227   8.878   1.531   9.240
 5329WAT      O16228   0.672   3.735   6.747
 5329WAT     H116229   0.736   3.678   6.694
 5329WAT     H216230   0.578   3.712   6.722
 5330WAT      O16231   9.499   4.962   6.659
 5330WAT     H116232   9.416   4.987   6.610
 5330WAT     H216233   9.517   5.028   6.731
 5331WAT      O16234   1.442   6.238   0.387
 5331WAT     H116235   1.501   6.304   0.433
 5331WAT     H216236   1.408   6.172   0.454
 5332WAT      O16237   2.966   9.632   2.986
 5332WAT     H116238   2.933   9.548   2.943
 5332WAT     H216239   3.000   9.611   3.078
 5333WAT      O16240   9.308   3.756   2.785
 5333WAT     H116241   9.372   3.718   2.718
 5333WAT     H216242   9.243   3.686   2.814
 5334WAT      O16243   3.498   7.781   7.656
 5334WAT     H116244   3.428   7.720   7.620
 5334WAT     H216245   3.584   7.765   7.608
 5335WAT      O16246   0.956   0.655   0.609
 5335WAT     H116247   0.966   0.593   0.532
 5335WAT     H216248   1.047   0.681   0.644
 5336WAT      O16249   4.846   0.379   6.451
 5336WAT     H116250   4.746   0.380   6.457
 5336WAT     H216251   4.874   0.359   6.357
 5337WAT      O16252   6.552   3.039   1.078
 5337WAT     H116253   6.460   3.014   1.051
 5337WAT     H216254   6.616   3.019   1.003
 5338WAT      O16255   1.828   6.781   6.469
 5338WAT     H116256   1.865   6.874   6.474
 5338WAT     H216257   1.802   6.761   6.375
 5339WAT      O16258   3.829   3.548   1.687
 5339WAT     H116259   3.917   3.519   1.648
 5339WAT     H216260   3.759   3.479   1.665
 5340WAT      O16261   1.281   6.515   3.719
 5340WAT     H116262   1.281   6.517   3.619
 5340WAT     H216263   1.354   6.456   3.752
 5341WAT      O16264   8.666   1.376   3.110
 5341WAT     H116265   8.596   1.311   3.083
 5341WAT     H216266   8.676   1.446   3.038
 5342WAT      O16267   6.107   7.679   9.076
 5342WAT     H116268   6.206   7.666   9.077
 5342WAT     H216269   6.072   7.663   8.983
 5343WAT      O16270   8.385   5.619   0.698
 5343WAT     H116271   8.336   5.660   0.621
 5343WAT     H216272   8.423   5.692   0.756
 5344WAT      O16273   6.647   4.776   4.108
 5344WAT     H116274   6.571   4.830   4.144
 5344WAT     H216275   6.682   4.715   4.180
 5345WAT      O16276   3.575   6.200   0.204
 5345WAT     H116277   3.591   6.147   0.121
 5345WAT     H216278   3.487   6.247   0.196
 5346WAT      O16279   2.016   5.802   1.198
 5346WAT     H116280   1.925   5.840   1.214
 5346WAT     H216281   2.010   5.702   1.193
 5347WAT      O16282   1.424   6.710   0.413
 5347WAT     H116283   1.454   6.802   0.439
 5347WAT     H216284   1.483   6.676   0.339
 5348WAT      O16285   0.325   6.661   7.178
 5348WAT     H116286   0.405   6.719   7.180
 5348WAT     H216287   0.269   6.677   7.260
 5349WAT      O16288   4.358   1.586   2.192
 5349WAT     H116289   4.415   1.668   2.184
 5349WAT     H216290   4.369   1.547   2.283
 5350WAT      O16291   6.682   0.741   9.784
 5350WAT     H116292   6.623   0.703   9.713
 5350WAT     H216293   6.631   0.809   9.837
 5351WAT      O16294   8.331   5.284   6.267
 5351WAT     H116295   8.381   5.205   6.303
 5351WAT     H216296   8.387   5.330   6.199
 5352WAT      O16297   0.443   4.057   8.119
 5352WAT     H116298   0.476   4.115   8.044
 5352WAT     H216299   0.416   3.968   8.083
 5353WAT      O16300   4.797   1.626   3.921
 5353WAT     H116301   4.873   1.561   3.920
 5353WAT     H216302   4.793   1.671   4.010
 5354WAT      O16303   7.115   0.963   3.987
 5354WAT     H116304   7.031   0.917   4.015
 5354WAT     H216305   7.102   1.062   3.989
 5355WAT      O16306   5.861   2.990   4.165
 5355WAT     H116307   5.887   2.966   4.259
 5355WAT     H216308   5.814   2.912   4.123
 5356WAT      O16309   8.727   5.338   8.397
 5356WAT     H116310   8.798   5.303   8.336
 5356WAT     H216311   8.640   5.292   8.378
 5357WAT      O16312   8.910   2.459   9.546
 5357WAT     H116313   8.900   2.365   9.514
 5357WAT     H216314   8.918   2.459   9.646
 5358WAT      O16315   7.261   5.272   8.466
 5358WAT     H116316   7.311   5.204   8.413
 5358WAT     H216317   7.240   5.351   8.407
 5359WAT      O16318   4.908   9.296   0.728
 5359WAT     H116319   4.947   9.219   0.678
 5359WAT     H216320   4.908   9.377   0.670
 5360WAT      O16321   8.412   6.014   6.831
 5360WAT     H116322   8.501   6.020   6.787
 5360WAT     H216323   8.380   6.106   6.854
 5361WAT      O16324   8.825   1.575   5.242
 5361WAT     H116325   8.732   1.555   5.212
 5361WAT     H216326   8.823   1.647   5.311
 5362WAT      O16327   3.789   8.744   4.221
 5362WAT     H116328   3.860   8.687   4.179
 5362WAT     H216329   3.799   8.743   4.320
 5363WAT      O16330   3.579   8.879   3.692
 5363WAT     H116331   3.665   8.851   3.735
 5363WAT     H216332   3.520   8.923   3.760
 5364WAT      O16333   0.816   3.518   6.653
 5364WAT     H116334   0.805   3.419   6.665
 5364WAT     H216335   0.910   3.538   6.626
 5365WAT      O16336   0.480   7.113   4.706
 5365WAT     H116337   0.533   7.166   4.640
 5365WAT     H216338   0.421   7.174   4.758
 5366WAT      O16339   8.451   9.803   8.375
 5366WAT     H116340   8.447   9.890   8.425
 5366WAT     H216341   8.430   9.820   8.279
 5367WAT      O16342   3.443   0.455   5.475
 5367WAT     H116343   3.453   0.476   5.378
 5367WAT     H216344   3.461   0.538   5.529
 5368WAT      O16345   7.991   9.287   5.228
 5368WAT     H116346   8.063   9.260   5.166
 5368WAT     H216347   7.919   9.217   5.230
 5369WAT      O16348   1.520   6.399   4.900
 5369WAT     H116349   1.581   6.345   4.957
 5369WAT     H216350   1.441   6.344   4.873
 5370WAT      O16351   4.046   6.787   0.583
 5370WAT     H116352   4.127   6.733   0.605
 5370WAT     H216353   3.968   6.752   0.634
 5371WAT      O16354   9.426   4.208   5.917
 5371WAT     H116355   9.454   4.240   6.008
 5371WAT     H216356   9.463   4.117   5.901
 5372WAT      O16357   4.340   2.066   8.631
 5372WAT     H116358   4.295   2.153   8.651
 5372WAT     H216359   4.380   2.030   8.716
 5373WAT      O16360   1.309   3.801   9.033
 5373WAT     H116361   1.312   3.900   9.048
 5373WAT     H216362   1.345   3.755   9.114
 5374WAT      O16363   0.350   7.254   1.086
 5374WAT     H116364   0.303   7.333   1.126
 5374WAT     H216365   0.448   7.261   1.105
 5375WAT      O16366   2.313   4.797   6.108
 5375WAT     H116367   2.406   4.774   6.077
 5375WAT     H216368   2.317   4.877   6.168
 5376WAT      O16369   9.057   6.966   3.162
 5376WAT     H116370   9.142   6.962   3.216
 5376WAT     H216371   9.048   7.057   3.121
 5377WAT      O16372   1.875   8.564   3.640
 5377WAT     H116373   1.794   8.573   3.581
 5377WAT     H216374   1.849   8.518   3.725
 5378WAT      O16375   9.728   7.844   3.626
 5378WAT     H116376   9.686   7.917   3.571
 5378WAT     H216377   9.718   7.866   3.723
 5379WAT      O16378   7.898   8.549   6.539
 5379WAT     H116379   7.930   8.595   6.621
 5379WAT     H216380   7.850   8.615   6.480
 5380WAT      O16381   3.535   2.977   6.306
 5380WAT     H116382   3.600   3.041   6.348
 5380WAT     H216383   3.580   2.889   6.292
 5381WAT      O16384   5.505   0.643   1.182
 5381WAT     H116385   5.434   0.701   1.143
 5381WAT     H216386   5.510   0.557   1.131
 5382WAT      O16387   3.945   0.890   6.576
 5382WAT     H116388   3.902   0.974   6.608
 5382WAT     H216389   3.899   0.858   6.493
 5383WAT      O16390   0.681   7.768   4.945
 5383WAT     H116391   0.636   7.853   4.971
 5383WAT     H216392   0.779   7.775   4.963
 5384WAT      O16393   4.565   2.083   8.502
 5384WAT     H116394   4.552   2.103   8.405
 5384WAT     H216395   4.477   2.076   8.548
 5385WAT      O16396   5.654   8.199   4.243
 5385WAT     H116397   5.662   8.134   4.318
 5385WAT     H216398   5.593   8.273   4.269
 5386WAT      O16399   9.234   4.298   1.233
 5386WAT     H116400   9.281   4.271   1.149
 5386WAT     H216401   9.243   4.397   1.246
 5387WAT      O16402   0.612   6.733   2.636
 5387WAT     H116403   0.708   6.716   2.616
 5387WAT     H216404   0.584   6.675   2.713
 5388WAT      O16405   3.013   4.887   2.817
 5388WAT     H116406   3.086   4.819   2.809
 5388WAT     H216407   2.990   4.922   2.727
 5389WAT      O16408   4.424   4.803   7.122
 5389WAT     H116409   4.348   4.746   7.152
 5389WAT     H216410   4.392   4.898   7.113
 5390WAT      O16411   8.535   4.699   8.652
 5390WAT     H116412   8.495   4.677   8.563
 5390WAT     H216413   8.518   4.624   8.716
 5391WAT      O16414   0.960   6.211   0.322
 5391WAT     H116415   0.985   6.279   0.391
 5391WAT     H216416   0.940   6.257   0.236
 5392WAT      O16417   0.523   5.780   4.080
 5392WAT     H116418   0.535   5.720   4.160
 5392WAT     H216419   0.461   5.854   4.103
 5393WAT      O16420   2.753   9.756   3.055
 5393WAT     H116421   2.682   9.755   2.984
 5393WAT     H216422   2.836   9.714   3.020
 5394WAT      O16423   0.251   7.894   1.625
 5394WAT     H116424   0.345   7.871   1.652
 5394WAT     H216425   0.204   7.812   1.594
 5395WAT      O16426   9.548   4.207   4.072
 5395WAT     H116427   9.574   4.256   3.988
 5395WAT     H216428   9.574   4.262   4.151
 5396WAT      O16429   0.089   8.368   8.695
 5396WAT     H116430   0.132   8.458   8.703
 5396WAT     H216431   0.044   8.361   8.606
 5397WAT      O16432   0.756   2.760   6.359
 5397WAT     H116433   0.849   2.796   6.372
 5397WAT     H216434   0.722   2.790   6.270
 5398WAT      O16435   4.997   3.790   7.646
 5398WAT     H116436   5.013   3.703   7.601
 5398WAT     H216437   5.005   3.864   7.579
 5399WAT      O16438   7.539   9.187   6.960
 5399WAT     H116439   7.488   9.264   6.922
 5399WAT     H216440   7.562   9.206   7.055
 5400WAT      O16441   4.900   7.177   5.736
 5400WAT     H116442   4.820   7.139   5.690
 5400WAT     H216443   4.893   7.159   5.834
 5401WAT      O16444   0.745   6.809   7.403
 5401WAT     H116445   0.685   6.794   7.324
 5401WAT     H216446   0.786   6.722   7.431
 5402WAT      O16447   5.616   9.444   2.248
 5402WAT     H116448   5.533   9.389   2.238
 5402WAT     H216449   5.597   9.522   2.308
 5403WAT      O16450   7.403   4.804   1.205
 5403WAT     H116451   7.465   4.725   1.200
 5403WAT     H216452   7.442   4.872   1.268
 5404WAT      O16453   1.221   3.885   1.348
 5404WAT     H116454   1.124   3.897   1.371
 5404WAT     H216455   1.247   3.953   1.279
 5405WAT      O16456   6.311   2.230   5.698
 5405WAT     H116457   6.398   2.194   5.665
 5405WAT     H216458   6.325   2.321   5.737
 5406WAT      O16459   1.498   1.120   5.508
 5406WAT     H116460   1.492   1.042   5.446
 5406WAT     H216461   1.557   1.190   5.468
 5407WAT      O16462   7.592   1.449   5.888
 5407WAT     H116463   7.632   1.527   5.841
 5407WAT     H216464   7.662   1.377   5.898
 5408WAT      O16465   9.394   7.133   8.430
 5408WAT     H116466   9.435   7.155   8.518
 5408WAT     H216467   9.295   7.145   8.436
 5409WAT      O16468   0.407   9.570   2.128
 5409WAT     H116469   0.412   9.629   2.047
 5409WAT     H216470   0.327   9.511   2.121
 5410WAT      O16471   0.809   2.499   6.734
 5410WAT     H116472   0.738   2.541   6.790
 5410WAT     H216473   0.774   2.485   6.641
 5411WAT      O16474   8.935   9.275   5.637
 5411WAT     H116475   8.894   9.240   5.553
 5411WAT     H216476   9.030   9.301   5.618
 5412WAT      O16477   2.824   0.273   7.504
 5412WAT     H116478   2.900   0.208   7.505
 5412WAT     H216479   2.857   0.363   7.475
 5413WAT      O16480   5.050   8.099   5.596
 5413WAT     H116481   5.080   8.179   5.543
 5413WAT     H216482   4.951   8.090   5.590
 5414WAT      O16483   0.422   2.656   0.251
 5414WAT     H116484   0.371   2.644   0.166
 5414WAT     H216485   0.377   2.606   0.325
 5415WAT      O16486   9.227   3.475   4.974
 5415WAT     H116487   9.138   3.446   4.939
 5415WAT     H216488   9.292   3.481   4.899
 5416WAT      O16489   1.509   7.651   6.505
 5416WAT     H116490   1.469   7.740   6.483
 5416WAT     H216491   1.583   7.663   6.572
 5417WAT      O16492   5.528   5.988   9.564
 5417WAT     H116493   5.579   5.943   9.638
 5417WAT     H216494   5.432   5.961   9.568
 5418WAT      O16495   6.889   2.756   2.195
 5418WAT     H116496   6.945   2.700   2.255
 5418WAT     H216497   6.940   2.837   2.165
 5419WAT      O16498   1.371   7.068   5.295
 5419WAT     H116499   1.421   7.128   5.233
 5419WAT     H216500   1.280   7.105   5.312
 5420WAT      O16501   4.385   4.838   1.682
 5420WAT     H116502   4.377   4.805   1.588
 5420WAT     H216503   4.322   4.788   1.740
 5421WAT      O16504   6.192   6.928   1.374
 5421WAT     H116505   6.239   6.840   1.366
 5421WAT     H216506   6.185   6.953   1.471
 5422WAT      O16507   8.734   9.591   5.033
 5422WAT     H116508   8.830   9.573   5.012
 5422WAT     H216509   8.686   9.503   5.041
 5423WAT      O16510   8.512   6.546   2.968
 5423WAT     H116511   8.520   6.526   3.065
 5423WAT     H216512   8.420   6.578   2.947
 5424WAT      O16513   6.770   3.104   3.514
 5424WAT     H116514   6.863   3.070   3.526
 5424WAT     H216515   6.743   3.157   3.595
 5425WAT      O16516   7.545   3.711   4.647
 5425WAT     H116517   7.488   3.791   4.665
 5425WAT     H216518   7.623   3.738   4.590
 5426WAT      O16519   2.276   8.830   0.969
 5426WAT     H116520   2.237   8.738   0.972
 5426WAT     H216521   2.226   8.884   0.901
 5427WAT      O16522   9.778   0.896   6.925
 5427WAT     H116523   9.759   0.940   6.837
 5427WAT     H216524   9.777   0.797   6.913
 5428WAT      O16525   3.198   4.645   6.781
 5428WAT     H116526   3.294   4.672   6.771
 5428WAT     H216527   3.153   4.649   6.692
 5429WAT      O16528   4.849   8.462   0.300
 5429WAT     H116529   4.909   8.537   0.329
 5429WAT     H216530   4.773   8.499   0.247
 5430WAT      O16531   5.786   5.422   9.696
 5430WAT     H116532   5.823   5.378   9.615
 5430WAT     H216533   5.752   5.352   9.759
 5431WAT      O16534   8.463   5.762   2.972
 5431WAT     H116535   8.519   5.734   3.050
 5431WAT     H216536   8.459   5.862   2.968
 5432WAT      O16537   7.928   0.952   0.758
 5432WAT     H116538   8.010   1.006   0.779
 5432WAT     H216539   7.912   0.886   0.831
 5433WAT      O16540   1.531   9.778   4.811
 5433WAT     H116541   1.599   9.849   4.794
 5433WAT     H216542   1.556   9.695   4.762
 5434WAT      O16543   2.297   5.550   9.288
 5434WAT     H116544   2.374   5.508   9.241
 5434WAT     H216545   2.328   5.588   9.375
 5435WAT      O16546   3.894   8.518   3.064
 5435WAT     H116547   3.882   8.617   3.073
 5435WAT     H216548   3.877   8.491   2.970
 5436WAT      O16549   5.851   9.817   8.265
 5436WAT     H116550   5.874   9.914   8.274
 5436WAT     H216551   5.927   9.762   8.299
 5437WAT      O16552   9.247   2.234   1.519
 5437WAT     H116553   9.297   2.190   1.444
 5437WAT     H216554   9.161   2.271   1.484
 5438WAT      O16555   2.780   1.419   7.965
 5438WAT     H116556   2.726   1.478   8.026
 5438WAT     H216557   2.876   1.446   7.969
 5439WAT      O16558   4.833   7.637   7.621
 5439WAT     H116559   4.917   7.605   7.665
 5439WAT     H216560   4.796   7.714   7.672
 5440WAT      O16561   4.050   8.015   8.278
 5440WAT     H116562   3.959   8.055   8.291
 5440WAT     H216563   4.063   7.995   8.182
 5441WAT      O16564   6.366   2.247   6.823
 5441WAT     H116565   6.459   2.223   6.849
 5441WAT     H216566   6.368   2.307   6.743
 5442WAT      O16567   7.399   8.516   4.753
 5442WAT     H116568   7.463   8.574   4.703
 5442WAT     H216569   7.445   8.479   4.835
 5443WAT      O16570   7.246   7.176   2.971
 5443WAT     H116571   7.195   7.152   2.888
 5443WAT     H216572   7.203   7.132   3.050
 5444WAT      O16573   4.218   2.901   1.252
 5444WAT     H116574   4.243   2.959   1.329
 5444WAT     H216575   4.255   2.939   1.167
 5445WAT      O16576   6.300   6.589   3.864
 5445WAT     H116577   6.317   6.501   3.906
 5445WAT     H216578   6.253   6.649   3.930
 5446WAT      O16579   7.373   8.594   9.521
 5446WAT     H116580   7.370   8.520   9.453
 5446WAT     H216581   7.404   8.678   9.477
 5447WAT      O16582   1.756   2.545   3.095
 5447WAT     H116583   1.819   2.468   3.082
 5447WAT     H216584   1.695   2.526   3.171
 5448WAT      O16585   6.566   1.384   0.402
 5448WAT     H116586   6.529   1.316   0.465
 5448WAT     H216587   6.571   1.473   0.447
 5449WAT      O16588   2.760   5.499   4.330
 5449WAT     H116589   2.722   5.454   4.411
 5449WAT     H216590   2.856   5.521   4.346
 5450WAT      O16591   5.670   3.345   0.933
 5450WAT     H116592   5.579   3.357   0.894
 5450WAT     H216593   5.694   3.248   0.933
 5451WAT      O16594   0.003   9.400   6.016
 5451WAT     H116595   0.049   9.481   6.053
 5451WAT     H216596   0.070   9.343   5.968
 5452WAT      O16597   7.109   3.036   0.307
 5452WAT     H116598   7.053   3.107   0.350
 5452WAT     H216599   7.064   3.004   0.224
 5453WAT      O16600   4.505   5.493   3.420
 5453WAT     H116601   4.481   5.590   3.429
 5453WAT     H216602   4.422   5.437   3.427
 5454WAT      O16603   5.838   4.420   1.592
 5454WAT     H116604   5.916   4.477   1.617
 5454WAT     H216605   5.842   4.397   1.495
 5455WAT      O16606   4.425   6.723   3.292
 5455WAT     H116607   4.483   6.688   3.366
 5455WAT     H216608   4.476   6.791   3.240
 5456WAT      O16609   5.141   2.327   0.478
 5456WAT     H116610   5.236   2.336   0.507
 5456WAT     H216611   5.130   2.372   0.389
 5457WAT      O16612   9.022   8.366   2.295
 5457WAT     H116613   9.034   8.453   2.342
 5457WAT     H216614   8.925   8.345   2.287
 5458WAT      O16615   0.399   7.319   1.772
 5458WAT     H116616   0.489   7.330   1.813
 5458WAT     H216617   0.346   7.403   1.783
 5459WAT      O16618   5.950   5.334   3.617
 5459WAT     H116619   6.024   5.379   3.666
 5459WAT     H216620   5.938   5.241   3.653
 5460WAT      O16621   4.040   1.112   9.524
 5460WAT     H116622   4.120   1.125   9.465
 5460WAT     H216623   4.038   1.018   9.557
 5461WAT      O16624   1.038   5.738   8.418
 5461WAT     H116625   0.968   5.756   8.349
 5461WAT     H216626   1.018   5.652   8.465
 5462WAT      O16627   8.973   1.378   2.306
 5462WAT     H116628   8.970   1.473   2.338
 5462WAT     H216629   9.029   1.373   2.223
 5463WAT      O16630   1.046   3.538   4.800
 5463WAT     H116631   1.008   3.447   4.818
 5463WAT     H216632   1.141   3.529   4.770
 5464WAT      O16633   0.262   4.714   2.861
 5464WAT     H116634   0.296   4.641   2.920
 5464WAT     H216635   0.337   4.752   2.808
 5465WAT      O16636   3.350   7.747   9.225
 5465WAT     H116637   3.345   7.801   9.308
 5465WAT     H216638   3.258   7.725   9.194
 5466WAT      O16639   2.658   5.217   8.942
 5466WAT     H116640   2.585   5.181   8.883
 5466WAT     H216641   2.711   5.141   8.979
 5467WAT      O16642   2.562   6.964   7.450
 5467WAT     H116643   2.509   6.879   7.449
 5467WAT     H216644   2.646   6.950   7.503
 5468WAT      O16645   5.758   3.078   0.600
 5468WAT     H116646   5.846   3.089   0.554
 5468WAT     H216647   5.773   3.045   0.694
 5469WAT      O16648   6.548   5.775   2.933
 5469WAT     H116649   6.645   5.753   2.947
 5469WAT     H216650   6.510   5.714   2.864
 5470WAT      O16651   9.395   8.504   7.024
 5470WAT     H116652   9.448   8.489   7.107
 5470WAT     H216653   9.298   8.509   7.046
 5471WAT      O16654   1.581   8.941   5.035
 5471WAT     H116655   1.554   9.033   5.009
 5471WAT     H216656   1.631   8.898   4.960
 5472WAT      O16657   1.521   8.503   6.970
 5472WAT     H116658   1.571   8.462   6.894
 5472WAT     H216659   1.552   8.461   7.056
 5473WAT      O16660   5.259   7.549   7.957
 5473WAT     H116661   5.352   7.519   7.934
 5473WAT     H216662   5.257   7.649   7.959
 5474WAT      O16663   6.780   0.160   7.064
 5474WAT     H116664   6.685   0.175   7.090
 5474WAT     H216665   6.833   0.243   7.080
 5475WAT      O16666   2.250   3.129   4.324
 5475WAT     H116667   2.274   3.108   4.229
 5475WAT     H216668   2.278   3.223   4.345
 5476WAT      O16669   1.182   0.459   6.488
 5476WAT     H116670   1.185   0.378   6.546
 5476WAT     H216671   1.248   0.526   6.521
 5477WAT      O16672   8.962   2.799   1.790
 5477WAT     H116673   8.887   2.802   1.725
 5477WAT     H216674   8.958   2.880   1.849
 5478WAT      O16675   4.076   5.288   9.320
 5478WAT     H116676   4.108   5.273   9.226
 5478WAT     H216677   4.076   5.386   9.340
 5479WAT      O16678   1.969   0.137   4.775
 5479WAT     H116679   1.886   0.171   4.730
 5479WAT     H216680   2.044   0.202   4.762
 5480WAT      O16681   7.397   4.581   7.526
 5480WAT     H116682   7.493   4.579   7.554
 5480WAT     H216683   7.368   4.675   7.514
 5481WAT      O16684   7.954   2.372   8.791
 5481WAT     H116685   8.010   2.303   8.745
 5481WAT     H216686   7.928   2.443   8.726
 5482WAT      O16687   8.749   3.206   9.839
 5482WAT     H116688   8.826   3.211   9.902
 5482WAT     H216689   8.760   3.276   9.768
 5483WAT      O16690   2.905   1.719   4.109
 5483WAT     H116691   2.826   1.726   4.048
 5483WAT     H216692   2.928   1.623   4.123
 5484WAT      O16693   5.476   7.467   8.728
 5484WAT     H116694   5.465   7.494   8.633
 5484WAT     H216695   5.462   7.369   8.737
 5485WAT      O16696   7.062   7.170   4.443
 5485WAT     H116697   7.058   7.145   4.539
 5485WAT     H216698   7.107   7.259   4.434
 5486WAT      O16699   0.435   6.920   6.925
 5486WAT     H116700   0.495   6.987   6.968
 5486WAT     H216701   0.372   6.966   6.863
 5487WAT      O16702   1.546   2.523   0.261
 5487WAT     H116703   1.622   2.460   0.278
 5487WAT     H216704   1.460   2.472   0.263
 5488WAT      O16705   0.470   7.838   0.056
 5488WAT     H116706   0.532   7.760   0.057
 5488WAT     H216707   0.376   7.806   0.050
 5489WAT      O16708   8.708   0.061   7.636
 5489WAT     H116709   8.750   0.054   7.545
 5489WAT     H216710   8.609   0.056   7.627
 5490WAT      O16711   5.182   3.523   0.870
 5490WAT     H116712   5.110   3.517   0.940
 5490WAT     H216713   5.219   3.616   0.869
 5491WAT      O16714   5.736   2.005   0.844
 5491WAT     H116715   5.657   1.944   0.847
 5491WAT     H216716   5.765   2.026   0.937
 5492WAT      O16717   3.062   6.907   2.932
 5492WAT     H116718   3.097   6.814   2.925
 5492WAT     H216719   3.137   6.972   2.925
 5493WAT      O16720   2.241   8.249   3.229
 5493WAT     H116721   2.311   8.314   3.261
 5493WAT     H216722   2.178   8.296   3.167
 5494WAT      O16723   0.937   7.681   4.301
 5494WAT     H116724   0.914   7.671   4.398
 5494WAT     H216725   1.016   7.623   4.279
 5495WAT      O16726   0.525   7.406   4.793
 5495WAT     H116727   0.537   7.387   4.696
 5495WAT     H216728   0.429   7.394   4.818
 5496WAT      O16729   2.519   1.414   5.299
 5496WAT     H116730   2.485   1.331   5.344
 5496WAT     H216731   2.586   1.458   5.357
 5497WAT      O16732   8.041   7.679   4.291
 5497WAT     H116733   8.086   7.750   4.236
 5497WAT     H216734   8.050   7.702   4.388
 5498WAT      O16735   6.276   3.813   4.129
 5498WAT     H116736   6.223   3.794   4.212
 5498WAT     H216737   6.349   3.879   4.151
 5499WAT      O16738   7.954   0.427   6.757
 5499WAT     H116739   7.994   0.425   6.848
 5499WAT     H216740   8.004   0.364   6.697
 5500WAT      O16741   6.677   7.023   6.630
 5500WAT     H116742   6.616   6.954   6.669
 5500WAT     H216743   6.764   6.981   6.605
 5501WAT      O16744   5.248   3.781   7.756
 5501WAT     H116745   5.243   3.690   7.796
 5501WAT     H216746   5.156   3.811   7.729
 5502WAT      O16747   4.326   9.783   7.602
 5502WAT     H116748   4.287   9.797   7.510
 5502WAT     H216749   4.269   9.831   7.669
 5503WAT      O16750   1.999   9.667   2.160
 5503WAT     H116751   2.091   9.695   2.134
 5503WAT     H216752   1.941   9.748   2.169
 5504WAT      O16753   6.558   5.891   4.095
 5504WAT     H116754   6.642   5.937   4.124
 5504WAT     H216755   6.524   5.935   4.011
 5505WAT      O16756   3.493   0.499   2.231
 5505WAT     H116757   3.534   0.509   2.140
 5505WAT     H216758   3.539   0.560   2.295
 5506WAT      O16759   5.236   3.839   2.397
 5506WAT     H116760   5.296   3.863   2.320
 5506WAT     H216761   5.149   3.806   2.362
 5507WAT      O16762   8.078   5.660   2.735
 5507WAT     H116763   8.044   5.681   2.644
 5507WAT     H216764   8.175   5.636   2.730
 5508WAT      O16765   7.542   6.186   3.159
 5508WAT     H116766   7.635   6.196   3.194
 5508WAT     H216767   7.492   6.120   3.215
 5509WAT      O16768   9.553   6.229   1.073
 5509WAT     H116769   9.635   6.211   1.018
 5509WAT     H216770   9.472   6.214   1.016
 5510WAT      O16771   4.398   8.071   6.245
 5510WAT     H116772   4.405   8.136   6.321
 5510WAT     H216773   4.445   8.109   6.165
 5511WAT      O16774   2.982   3.274   1.574
 5511WAT     H116775   2.958   3.359   1.622
 5511WAT     H216776   2.976   3.290   1.475
 5512WAT      O16777   2.224   0.747   2.765
 5512WAT     H116778   2.147   0.688   2.789
 5512WAT     H216779   2.288   0.697   2.708
 5513WAT      O16780   1.328   7.737   2.406
 5513WAT     H116781   1.237   7.694   2.408
 5513WAT     H216782   1.328   7.816   2.467
 5514WAT      O16783   1.706   6.263   2.376
 5514WAT     H116784   1.672   6.225   2.290
 5514WAT     H216785   1.776   6.202   2.414
 5515WAT      O16786   2.622   1.347   1.419
 5515WAT     H116787   2.707   1.394   1.394
 5515WAT     H216788   2.578   1.397   1.494
 5516WAT      O16789   1.683   0.331   6.779
 5516WAT     H116790   1.727   0.414   6.743
 5516WAT     H216791   1.584   0.342   6.777
 5517WAT      O16792   4.208   1.701   6.332
 5517WAT     H116793   4.194   1.611   6.373
 5517WAT     H216794   4.161   1.771   6.386
 5518WAT      O16795   1.594   9.387   6.040
 5518WAT     H116796   1.579   9.410   6.136
 5518WAT     H216797   1.673   9.326   6.032
 5519WAT      O16798   3.460   1.337   7.983
 5519WAT     H116799   3.549   1.322   7.940
 5519WAT     H216800   3.473   1.392   8.066
 5520WAT      O16801   2.802   6.853   5.933
 5520WAT     H116802   2.761   6.807   5.854
 5520WAT     H216803   2.895   6.820   5.946
 5521WAT      O16804   9.709   3.826   0.216
 5521WAT     H116805   9.764   3.822   0.132
 5521WAT     H216806   9.628   3.882   0.199
 5522WAT      O16807   8.944   2.940   2.303
 5522WAT     H116808   8.876   2.921   2.373
 5522WAT     H216809   8.972   3.036   2.307
 5523WAT      O16810   4.397   3.449   4.620
 5523WAT     H116811   4.315   3.434   4.676
 5523WAT     H216812   4.372   3.449   4.523
 5524WAT      O16813   0.517   7.840   0.978
 5524WAT     H116814   0.562   7.877   0.897
 5524WAT     H216815   0.565   7.870   1.060
 5525WAT      O16816   3.319   8.105   2.889
 5525WAT     H116817   3.325   8.203   2.870
 5525WAT     H216818   3.401   8.075   2.938
 5526WAT      O16819   2.717   6.861   4.721
 5526WAT     H116820   2.702   6.763   4.710
 5526WAT     H216821   2.799   6.877   4.776
 5527WAT      O16822   1.879   0.499   3.554
 5527WAT     H116823   1.877   0.403   3.583
 5527WAT     H216824   1.805   0.517   3.490
 5528WAT      O16825   2.042   7.537   6.516
 5528WAT     H116826   2.105   7.591   6.459
 5528WAT     H216827   1.949   7.573   6.506
 5529WAT      O16828   2.594   9.792   3.291
 5529WAT     H116829   2.656   9.742   3.230
 5529WAT     H216830   2.625   9.886   3.301
 5530WAT      O16831   4.121   8.502   7.431
 5530WAT     H116832   4.048   8.516   7.364
 5530WAT     H216833   4.170   8.417   7.410
 5531WAT      O16834   0.174   4.487   5.289
 5531WAT     H116835   0.086   4.509   5.247
 5531WAT     H216836   0.247   4.497   5.220
 5532WAT      O16837   7.373   0.933   7.918
 5532WAT     H116838   7.391   1.025   7.952
 5532WAT     H216839   7.345   0.875   7.994
 5533WAT      O16840   1.230   6.385   5.862
 5533WAT     H116841   1.246   6.303   5.918
 5533WAT     H216842   1.307   6.447   5.872
 5534WAT      O16843   0.120   0.366   5.225
 5534WAT     H116844   0.164   0.301   5.287
 5534WAT     H216845   0.164   0.455   5.233
 5535WAT      O16846   7.572   6.236   1.454
 5535WAT     H116847   7.511   6.249   1.376
 5535WAT     H216848   7.542   6.156   1.507
 5536WAT      O16849   0.511   0.132   6.901
 5536WAT     H116850   0.488   0.126   6.804
 5536WAT     H216851   0.431   0.107   6.956
 5537WAT      O16852   8.779   7.169   5.927
 5537WAT     H116853   8.682   7.185   5.907
 5537WAT     H216854   8.807   7.228   6.002
 5538WAT      O16855   3.879   7.380   1.677
 5538WAT     H116856   3.928   7.402   1.761
 5538WAT     H216857   3.937   7.323   1.619
 5539WAT      O16858   0.504   4.085   1.325
 5539WAT     H116859   0.452   4.000   1.327
 5539WAT     H216860   0.587   4.075   1.380
 5540WAT      O16861   3.859   0.659   3.471
 5540WAT     H116862   3.879   0.563   3.491
 5540WAT     H216863   3.941   0.714   3.485
 5541WAT      O16864   9.751   6.881   9.317
 5541WAT     H116865   9.850   6.881   9.327
 5541WAT     H216866   9.726   6.931   9.233
 5542WAT      O16867   1.458   6.097   5.632
 5542WAT     H116868   1.452   6.029   5.559
 5542WAT     H216869   1.523   6.168   5.607
 5543WAT      O16870   1.224   1.088   7.948
 5543WAT     H116871   1.324   1.098   7.951
 5543WAT     H216872   1.200   1.020   7.879
 5544WAT      O16873   4.340   9.794   3.691
 5544WAT     H116874   4.345   9.798   3.591
 5544WAT     H216875   4.328   9.699   3.720
 5545WAT      O16876   5.035   6.120   4.092
 5545WAT     H116877   5.035   6.145   3.995
 5545WAT     H216878   5.020   6.022   4.102
 5546WAT      O16879   0.253   6.855   1.150
 5546WAT     H116880   0.155   6.876   1.143
 5546WAT     H216881   0.298   6.925   1.205
 5547WAT      O16882   1.502   2.120   7.288
 5547WAT     H116883   1.479   2.058   7.363
 5547WAT     H216884   1.476   2.078   7.201
 5548WAT      O16885   7.234   0.743   8.059
 5548WAT     H116886   7.260   0.661   8.008
 5548WAT     H216887   7.136   0.759   8.050
 5549WAT      O16888   6.471   3.167   3.200
 5549WAT     H116889   6.568   3.169   3.222
 5549WAT     H216890   6.436   3.260   3.193
 5550WAT      O16891   5.149   0.511   7.359
 5550WAT     H116892   5.113   0.487   7.269
 5550WAT     H216893   5.152   0.611   7.369
 5551WAT      O16894   9.212   7.841   4.700
 5551WAT     H116895   9.148   7.873   4.770
 5551WAT     H216896   9.209   7.741   4.695
 5552WAT      O16897   0.956   5.670   4.887
 5552WAT     H116898   0.903   5.690   4.805
 5552WAT     H216899   0.964   5.571   4.899
 5553WAT      O16900   7.508   4.095   5.937
 5553WAT     H116901   7.597   4.049   5.939
 5553WAT     H216902   7.446   4.046   5.876
 5554WAT      O16903   1.120   8.558   1.254
 5554WAT     H116904   1.065   8.502   1.316
 5554WAT     H216905   1.211   8.518   1.244
 5555WAT      O16906   0.990   4.722   4.091
 5555WAT     H116907   0.902   4.699   4.048
 5555WAT     H216908   0.992   4.819   4.114
 5556WAT      O16909   5.904   7.280   5.214
 5556WAT     H116910   5.947   7.351   5.158
 5556WAT     H216911   5.959   7.197   5.211
 5557WAT      O16912   2.404   4.753   9.892
 5557WAT     H116913   2.420   4.841   9.848
 5557WAT     H216914   2.326   4.707   9.849
 5558WAT      O16915   8.676   5.979   8.217
 5558WAT     H116916   8.640   5.906   8.159
 5558WAT     H216917   8.677   5.948   8.312
 5559WAT      O16918   0.638   1.614   4.943
 5559WAT     H116919   0.695   1.532   4.949
 5559WAT     H216920   0.697   1.695   4.949
 5560WAT      O16921   2.814   4.990   5.516
 5560WAT     H116922   2.879   5.027   5.583
 5560WAT     H216923   2.846   4.901   5.484
 5561WAT      O16924   1.831   1.357   5.872
 5561WAT     H116925   1.742   1.312   5.880
 5561WAT     H216926   1.824   1.433   5.808
 5562WAT      O16927   2.237   9.733   0.860
 5562WAT     H116928   2.259   9.826   0.891
 5562WAT     H216929   2.147   9.707   0.895
 5563WAT      O16930   1.140   1.844   3.703
 5563WAT     H116931   1.072   1.870   3.771
 5563WAT     H216932   1.225   1.894   3.720
 5564WAT      O16933   6.354   3.275   3.827
 5564WAT     H116934   6.269   3.322   3.804
 5564WAT     H216935   6.355   3.252   3.924
 5565WAT      O16936   5.835   2.549   3.033
 5565WAT     H116937   5.820   2.647   3.021
 5565WAT     H216938   5.824   2.503   2.945
 5566WAT      O16939   5.933   6.247   1.890
 5566WAT     H116940   5.850   6.204   1.926
 5566WAT     H216941   5.950   6.333   1.938
 5567WAT      O16942   8.938   1.744   2.329
 5567WAT     H116943   8.989   1.811   2.274
 5567WAT     H216944   8.871   1.698   2.271
 5568WAT      O16945   6.211   0.867   9.780
 5568WAT     H116946   6.117   0.884   9.753
 5568WAT     H216947   6.217   0.860   9.880
 5569WAT      O16948   9.231   4.870   8.793
 5569WAT     H116949   9.131   4.860   8.796
 5569WAT     H216950   9.265   4.891   8.885
 5570WAT      O16951   3.333   3.037   7.287
 5570WAT     H116952   3.432   3.028   7.276
 5570WAT     H216953   3.303   3.123   7.247
 5571WAT      O16954   3.899   7.523  -0.002
 5571WAT     H116955   3.851   7.440   0.027
 5571WAT     H216956   3.890   7.593   0.070
 5572WAT      O16957   5.170   5.645   1.542
 5572WAT     H116958   5.141   5.572   1.480
 5572WAT     H216959   5.262   5.676   1.516
 5573WAT      O16960   8.818   1.011   9.074
 5573WAT     H116961   8.888   0.979   9.010
 5573WAT     H216962   8.846   1.099   9.113
 5574WAT      O16963   6.964   6.375   7.064
 5574WAT     H116964   6.893   6.340   7.003
 5574WAT     H216965   7.045   6.400   7.010
 5575WAT      O16966   8.984   2.168   9.016
 5575WAT     H116967   9.054   2.233   8.987
 5575WAT     H216968   8.977   2.169   9.116
 5576WAT      O16969   1.043   4.094   9.329
 5576WAT     H116970   1.119   4.084   9.265
 5576WAT     H216971   0.957   4.071   9.283
 5577WAT      O16972   0.207   1.646   2.452
 5577WAT     H116973   0.127   1.594   2.480
 5577WAT     H216974   0.209   1.733   2.500
 5578WAT      O16975   6.744   5.217   6.549
 5578WAT     H116976   6.766   5.121   6.569
 5578WAT     H216977   6.670   5.247   6.609
 5579WAT      O16978   0.174   8.617   9.355
 5579WAT     H116979   0.195   8.600   9.259
 5579WAT     H216980   0.077   8.639   9.364
 5580WAT      O16981   3.281   5.713   5.194
 5580WAT     H116982   3.191   5.754   5.182
 5580WAT     H216983   3.294   5.639   5.128
 5581WAT      O16984   5.570   7.904   7.773
 5581WAT     H116985   5.622   7.885   7.690
 5581WAT     H216986   5.479   7.863   7.765
 5582WAT      O16987   6.473   2.073   3.323
 5582WAT     H116988   6.392   2.120   3.357
 5582WAT     H216989   6.553   2.103   3.376
 5583WAT      O16990   9.218   0.949   9.729
 5583WAT     H116991   9.264   0.960   9.641
 5583WAT     H216992   9.285   0.952   9.803
 5584WAT      O16993   3.629   5.769   6.435
 5584WAT     H116994   3.725   5.740   6.434
 5584WAT     H216995   3.624   5.865   6.406
 5585WAT      O16996   0.254   0.436   6.833
 5585WAT     H116997   0.298   0.429   6.922
 5585WAT     H216998   0.277   0.356   6.777
 5586WAT      O16999   0.520   1.271   8.697
 5586WAT     H117000   0.503   1.240   8.603
 5586WAT     H217001   0.453   1.342   8.721
 5587WAT      O17002   0.770   1.426   8.298
 5587WAT     H117003   0.754   1.525   8.297
 5587WAT     H217004   0.860   1.407   8.259
 5588WAT      O17005   1.996   7.687   4.206
 5588WAT     H117006   2.025   7.595   4.232
 5588WAT     H217007   1.900   7.686   4.178
 5589WAT      O17008   1.727   1.782   1.073
 5589WAT     H117009   1.817   1.803   1.035
 5589WAT     H217010   1.707   1.847   1.146
 5590WAT      O17011   5.617   4.051   8.641
 5590WAT     H117012   5.557   3.974   8.663
 5590WAT     H217013   5.605   4.124   8.708
 5591WAT      O17014   8.452   4.049   8.145
 5591WAT     H117015   8.527   3.991   8.179
 5591WAT     H217016   8.487   4.111   8.075
 5592WAT      O17017   4.289   7.300   6.569
 5592WAT     H117018   4.209   7.271   6.621
 5592WAT     H217019   4.326   7.222   6.518
 5593WAT      O17020   5.245   7.815   9.466
 5593WAT     H117021   5.190   7.842   9.544
 5593WAT     H217022   5.197   7.745   9.414
 5594WAT      O17023   3.064   9.494   4.695
 5594WAT     H117024   3.126   9.572   4.695
 5594WAT     H217025   2.970   9.526   4.708
 5595WAT      O17026   0.719   7.656   1.756
 5595WAT     H117027   0.768   7.670   1.670
 5595WAT     H217028   0.782   7.670   1.832
 5596WAT      O17029   7.621   5.537   3.917
 5596WAT     H117030   7.538   5.485   3.901
 5596WAT     H217031   7.609   5.595   3.997
 5597WAT      O17032   0.661   4.590   2.874
 5597WAT     H117033   0.669   4.524   2.800
 5597WAT     H217034   0.641   4.542   2.960
 5598WAT      O17035   0.617   8.173   8.796
 5598WAT     H117036   0.529   8.169   8.842
 5598WAT     H217037   0.674   8.096   8.825
 5599WAT      O17038   2.267   5.909   5.249
 5599WAT     H117039   2.199   5.957   5.193
 5599WAT     H217040   2.304   5.832   5.196
 5600WAT      O17041   5.215   0.130   0.305
 5600WAT     H117042   5.263   0.171   0.227
 5600WAT     H217043   5.130   0.180   0.321
 5601WAT      O17044   4.647   2.743   3.434
 5601WAT     H117045   4.560   2.694   3.434
 5601WAT     H217046   4.665   2.777   3.342
 5602WAT      O17047   5.570   1.876   1.531
 5602WAT     H117048   5.508   1.909   1.603
 5602WAT     H217049   5.593   1.780   1.548
 5603WAT      O17050   8.757   6.504   8.375
 5603WAT     H117051   8.713   6.437   8.315
 5603WAT     H217052   8.768   6.590   8.326
 5604WAT      O17053   5.842   5.824   3.596
 5604WAT     H117054   5.819   5.780   3.509
 5604WAT     H217055   5.834   5.757   3.670
 5605WAT      O17056   9.845   1.360   6.964
 5605WAT     H117057   9.845   1.278   7.020
 5605WAT     H217058   9.793   1.432   7.010
 5606WAT      O17059   6.087   7.791   6.371
 5606WAT     H117060   6.172   7.741   6.387
 5606WAT     H217061   6.010   7.728   6.381
 5607WAT      O17062   1.254   2.867   5.468
 5607WAT     H117063   1.297   2.857   5.379
 5607WAT     H217064   1.209   2.956   5.474
 5608WAT      O17065   7.912   1.812   9.043
 5608WAT     H117066   7.977   1.850   8.979
 5608WAT     H217067   7.826   1.791   8.996
 5609WAT      O17068   4.762   1.287   8.927
 5609WAT     H117069   4.777   1.188   8.921
 5609WAT     H217070   4.678   1.311   8.879
 5610WAT      O17071   4.425   1.230   8.339
 5610WAT     H117072   4.442   1.318   8.383
 5610WAT     H217073   4.358   1.179   8.392
 5611WAT      O17074   4.654   4.230   2.007
 5611WAT     H117075   4.598   4.258   1.930
 5611WAT     H217076   4.749   4.218   1.977
 5612WAT      O17077   9.089   5.520   3.219
 5612WAT     H117078   8.990   5.516   3.204
 5612WAT     H217079   9.112   5.604   3.269
 5613WAT      O17080   5.995   4.591   0.856
 5613WAT     H117081   6.054   4.643   0.918
 5613WAT     H217082   5.985   4.641   0.770
 5614WAT      O17083   6.422   3.345   6.219
 5614WAT     H117084   6.347   3.347   6.152
 5614WAT     H217085   6.463   3.255   6.220
 5615WAT      O17086   2.944   0.602   5.584
 5615WAT     H117087   3.041   0.592   5.604
 5615WAT     H217088   2.929   0.588   5.486
 5616WAT      O17089   3.609   0.972   3.055
 5616WAT     H117090   3.599   1.053   3.112
 5616WAT     H217091   3.616   0.891   3.113
 5617WAT      O17092   3.060   6.045   2.553
 5617WAT     H117093   3.143   5.991   2.569
 5617WAT     H217094   2.986   6.010   2.610
 5618WAT      O17095   8.099   5.076   3.593
 5618WAT     H117096   8.123   5.167   3.628
 5618WAT     H217097   8.183   5.023   3.579
 5619WAT      O17098   7.840   0.101   0.364
 5619WAT     H117099   7.780   0.153   0.425
 5619WAT     H217100   7.824   0.003   0.377
 5620WAT      O17101   0.049   1.783   8.991
 5620WAT     H117102  -0.038   1.830   9.010
 5620WAT     H217103   0.111   1.796   9.069
 5621WAT      O17104   7.502   7.962   1.797
 5621WAT     H117105   7.402   7.955   1.795
 5621WAT     H217106   7.531   8.040   1.741
 5622WAT      O17107   7.588   8.084   6.052
 5622WAT     H117108   7.524   8.018   6.011
 5622WAT     H217109   7.661   8.103   5.987
 5623WAT      O17110   6.259   7.598   7.633
 5623WAT     H117111   6.309   7.528   7.684
 5623WAT     H217112   6.315   7.631   7.558
 5624WAT      O17113   6.935   7.832   5.129
 5624WAT     H117114   7.021   7.874   5.100
 5624WAT     H217115   6.945   7.800   5.223
 5625WAT      O17116   5.608   9.125   2.431
 5625WAT     H117117   5.670   9.191   2.474
 5625WAT     H217118   5.643   9.033   2.445
 5626WAT      O17119   1.414   5.782   4.036
 5626WAT     H117120   1.415   5.852   4.108
 5626WAT     H217121   1.372   5.699   4.070
 5627WAT      O17122   0.623   8.519   2.970
 5627WAT     H117123   0.694   8.523   2.899
 5627WAT     H217124   0.542   8.475   2.932
 5628WAT      O17125   0.957   0.941   6.697
 5628WAT     H117126   0.984   0.970   6.789
 5628WAT     H217127   1.020   0.981   6.630
 5629WAT      O17128   7.025   4.059   5.826
 5629WAT     H117129   7.039   4.158   5.826
 5629WAT     H217130   6.999   4.030   5.918
 5630WAT      O17131   8.348   0.099   4.895
 5630WAT     H117132   8.284   0.175   4.879
 5630WAT     H217133   8.312   0.040   4.967
 5631WAT      O17134   0.198   1.731   8.378
 5631WAT     H117135   0.242   1.650   8.418
 5631WAT     H217136   0.205   1.808   8.443
 5632WAT      O17137   2.985   3.842   7.965
 5632WAT     H117138   2.986   3.813   8.060
 5632WAT     H217139   2.927   3.922   7.955
 5633WAT      O17140   9.670   4.065   0.871
 5633WAT     H117141   9.615   4.071   0.788
 5633WAT     H217142   9.617   4.021   0.944
 5634WAT      O17143   5.999   7.578   8.817
 5634WAT     H117144   6.081   7.525   8.838
 5634WAT     H217145   5.943   7.528   8.751
 5635WAT      O17146   9.068   3.606   6.759
 5635WAT     H117147   9.132   3.596   6.682
 5635WAT     H217148   9.027   3.517   6.780
 5636WAT      O17149   9.465   0.293   3.444
 5636WAT     H117150   9.555   0.336   3.447
 5636WAT     H217151   9.469   0.211   3.386
 5637WAT      O17152   6.993   3.492   6.901
 5637WAT     H117153   7.021   3.553   6.826
 5637WAT     H217154   7.074   3.451   6.942
 5638WAT      O17155   6.446   3.094   6.361
 5638WAT     H117156   6.512   3.019   6.353
 5638WAT     H217157   6.354   3.058   6.353
 5639WAT      O17158   6.184   1.709   8.915
 5639WAT     H117159   6.250   1.663   8.975
 5639WAT     H217160   6.196   1.808   8.921
 5640WAT      O17161   3.737   7.015   9.434
 5640WAT     H117162   3.834   7.016   9.462
 5640WAT     H217163   3.683   7.064   9.502
 5641WAT      O17164   4.750   3.412   9.522
 5641WAT     H117165   4.650   3.425   9.518
 5641WAT     H217166   4.777   3.341   9.457
 5642WAT      O17167   6.707   3.382   9.441
 5642WAT     H117168   6.634   3.325   9.478
 5642WAT     H217169   6.737   3.345   9.353
 5643WAT      O17170   2.634   1.847   1.901
 5643WAT     H117171   2.617   1.863   1.998
 5643WAT     H217172   2.678   1.757   1.889
 5644WAT      O17173   8.092   1.303   2.593
 5644WAT     H117174   8.095   1.274   2.498
 5644WAT     H217175   8.015   1.366   2.606
 5645WAT      O17176   7.258   3.680   2.766
 5645WAT     H117177   7.278   3.766   2.721
 5645WAT     H217178   7.179   3.636   2.722
 5646WAT      O17179   5.007   1.704   5.815
 5646WAT     H117180   5.089   1.735   5.862
 5646WAT     H217181   4.930   1.764   5.838
 5647WAT      O17182   2.145   7.513   4.468
 5647WAT     H117183   2.099   7.601   4.478
 5647WAT     H217184   2.078   7.439   4.477
 5648WAT      O17185   6.064   6.738   2.993
 5648WAT     H117186   5.985   6.677   2.995
 5648WAT     H217187   6.047   6.811   2.926
 5649WAT      O17188   8.480   0.503   4.714
 5649WAT     H117189   8.411   0.435   4.690
 5649WAT     H217190   8.570   0.461   4.711
 5650WAT      O17191   2.778   1.495   4.889
 5650WAT     H117192   2.786   1.523   4.793
 5650WAT     H217193   2.737   1.570   4.942
 5651WAT      O17194   0.768   8.417   3.480
 5651WAT     H117195   0.686   8.461   3.443
 5651WAT     H217196   0.752   8.390   3.575
 5652WAT      O17197   4.194   3.868   8.065
 5652WAT     H117198   4.148   3.780   8.057
 5652WAT     H217199   4.287   3.861   8.029
 5653WAT      O17200   0.577   4.517   9.289
 5653WAT     H117201   0.608   4.582   9.220
 5653WAT     H217202   0.563   4.564   9.376
 5654WAT      O17203   3.403   2.438   1.086
 5654WAT     H117204   3.360   2.524   1.114
 5654WAT     H217205   3.335   2.366   1.083
 5655WAT      O17206   6.355   0.641   0.843
 5655WAT     H117207   6.347   0.542   0.848
 5655WAT     H217208   6.379   0.668   0.750
 5656WAT      O17209   4.285   8.175   3.524
 5656WAT     H117210   4.260   8.205   3.432
 5656WAT     H217211   4.383   8.155   3.527
 5657WAT      O17212   9.480   1.504   4.203
 5657WAT     H117213   9.428   1.424   4.175
 5657WAT     H217214   9.431   1.587   4.177
 5658WAT      O17215   7.792   0.143   8.987
 5658WAT     H117216   7.841   0.218   8.941
 5658WAT     H217217   7.735   0.181   9.060
 5659WAT      O17218   4.751   6.641   2.116
 5659WAT     H117219   4.827   6.682   2.167
 5659WAT     H217220   4.666   6.654   2.168
 5660WAT      O17221   0.929   9.733   0.801
 5660WAT     H117222   0.916   9.716   0.704
 5660WAT     H217223   0.972   9.823   0.814
 5661WAT      O17224   8.696   0.395   2.773
 5661WAT     H117225   8.738   0.304   2.782
 5661WAT     H217226   8.698   0.423   2.677
 5662WAT      O17227   9.804   5.057   1.484
 5662WAT     H117228   9.800   5.127   1.556
 5662WAT     H217229   9.894   5.058   1.441
 5663WAT      O17230   4.922   2.264   2.266
 5663WAT     H117231   4.915   2.362   2.243
 5663WAT     H217232   4.883   2.211   2.191
 5664WAT      O17233   3.740   0.579   9.132
 5664WAT     H117234   3.649   0.612   9.108
 5664WAT     H217235   3.745   0.480   9.118
 5665WAT      O17236   1.407   3.239   8.512
 5665WAT     H117237   1.489   3.183   8.511
 5665WAT     H217238   1.411   3.304   8.588
 5666WAT      O17239   1.585   6.776   3.602
 5666WAT     H117240   1.519   6.845   3.632
 5666WAT     H217241   1.676   6.817   3.597
 5667WAT      O17242   9.295   7.946   8.052
 5667WAT     H117243   9.358   7.994   7.991
 5667WAT     H217244   9.322   7.962   8.147
 5668WAT      O17245   9.759   9.474   1.630
 5668WAT     H117246   9.698   9.448   1.555
 5668WAT     H217247   9.705   9.489   1.713
 5669WAT      O17248   7.469   1.100   8.151
 5669WAT     H117249   7.491   1.193   8.181
 5669WAT     H217250   7.392   1.065   8.203
 5670WAT      O17251   7.515   8.246   1.823
 5670WAT     H117252   7.570   8.190   1.886
 5670WAT     H217253   7.577   8.299   1.765
 5671WAT      O17254   5.265   3.313   6.720
 5671WAT     H117255   5.193   3.289   6.786
 5671WAT     H217256   5.236   3.288   6.628
 5672WAT      O17257   0.994   3.204   0.823
 5672WAT     H117258   0.948   3.163   0.744
 5672WAT     H217259   1.067   3.264   0.791
 5673WAT      O17260   1.592   6.357   7.573
 5673WAT     H117261   1.594   6.412   7.490
 5673WAT     H217262   1.684   6.348   7.609
 5674WAT      O17263   4.139   2.202   6.558
 5674WAT     H117264   4.195   2.245   6.629
 5674WAT     H217265   4.061   2.156   6.601
 5675WAT      O17266   7.611   8.735   5.596
 5675WAT     H117267   7.533   8.714   5.655
 5675WAT     H217268   7.601   8.687   5.509
 5676WAT      O17269   8.102   7.966   5.809
 5676WAT     H117270   8.125   8.006   5.897
 5676WAT     H217271   8.099   8.038   5.739
 5677WAT      O17272   2.904   7.554   0.922
 5677WAT     H117273   2.920   7.595   1.012
 5677WAT     H217274   2.814   7.509   0.921
 5678WAT      O17275   5.153   8.865   3.076
 5678WAT     H117276   5.188   8.772   3.065
 5678WAT     H217277   5.163   8.893   3.171
 5679WAT      O17278   0.180   1.754   6.471
 5679WAT     H117279   0.133   1.720   6.390
 5679WAT     H217280   0.249   1.821   6.444
 5680WAT      O17281   5.000   6.048   7.713
 5680WAT     H117282   5.047   6.126   7.755
 5680WAT     H217283   4.986   6.066   7.615
 5681WAT      O17284   5.427   1.853   6.143
 5681WAT     H117285   5.439   1.783   6.213
 5681WAT     H217286   5.344   1.906   6.162
 5682WAT      O17287   7.766   6.715   5.223
 5682WAT     H117288   7.703   6.790   5.242
 5682WAT     H217289   7.796   6.720   5.128
 5683WAT      O17290   8.453   6.375   4.584
 5683WAT     H117291   8.512   6.432   4.640
 5683WAT     H217292   8.509   6.310   4.532
 5684WAT      O17293   9.022   5.301   9.794
 5684WAT     H117294   8.962   5.370   9.755
 5684WAT     H217295   9.083   5.344   9.861
 5685WAT      O17296   5.007   8.690   4.702
 5685WAT     H117297   4.932   8.672   4.638
 5685WAT     H217298   5.078   8.744   4.657
 5686WAT      O17299   5.935   7.033   3.597
 5686WAT     H117300   5.883   6.970   3.538
 5686WAT     H217301   5.898   7.028   3.690
 5687WAT      O17302   6.644   8.761   1.405
 5687WAT     H117303   6.577   8.790   1.474
 5687WAT     H217304   6.618   8.672   1.368
 5688WAT      O17305   9.171   9.428   4.995
 5688WAT     H117306   9.121   9.389   5.073
 5688WAT     H217307   9.147   9.378   4.912
 5689WAT      O17308   5.940   4.368   9.226
 5689WAT     H117309   5.845   4.390   9.249
 5689WAT     H217310   5.957   4.390   9.130
 5690WAT      O17311   0.439   2.801   2.650
 5690WAT     H117312   0.376   2.747   2.706
 5690WAT     H217313   0.476   2.876   2.705
 5691WAT      O17314   5.134   0.808   6.939
 5691WAT     H117315   5.065   0.752   6.986
 5691WAT     H217316   5.216   0.754   6.923
 5692WAT      O17317   9.470   9.299   7.975
 5692WAT     H117318   9.470   9.312   8.074
 5692WAT     H217319   9.432   9.209   7.953
 5693WAT      O17320   7.219   1.512   0.259
 5693WAT     H117321   7.225   1.477   0.165
 5693WAT     H217322   7.311   1.515   0.299
 5694WAT      O17323   5.607   0.544   0.850
 5694WAT     H117324   5.586   0.469   0.913
 5694WAT     H217325   5.525   0.597   0.831
 5695WAT      O17326   1.882   3.616   7.820
 5695WAT     H117327   1.790   3.621   7.857
 5695WAT     H217328   1.878   3.602   7.721
 5696WAT      O17329   2.075   3.063   8.753
 5696WAT     H117330   2.111   2.980   8.709
 5696WAT     H217331   2.151   3.117   8.788
 5697WAT      O17332   5.754   2.572   8.720
 5697WAT     H117333   5.800   2.610   8.640
 5697WAT     H217334   5.808   2.495   8.755
 5698WAT      O17335   8.515   5.540   7.202
 5698WAT     H117336   8.470   5.538   7.113
 5698WAT     H217337   8.564   5.627   7.213
 5699WAT      O17338   8.864   0.511   1.801
 5699WAT     H117339   8.953   0.466   1.798
 5699WAT     H217340   8.803   0.469   1.734
 5700WAT      O17341   2.099   9.613   4.323
 5700WAT     H117342   2.176   9.565   4.280
 5700WAT     H217343   2.030   9.634   4.254
 5701WAT      O17344   9.598   1.016   5.223
 5701WAT     H117345   9.683   1.027   5.275
 5701WAT     H217346   9.542   0.945   5.266
 5702WAT      O17347   1.855   2.832   7.919
 5702WAT     H117348   1.882   2.746   7.877
 5702WAT     H217349   1.934   2.894   7.922
 5703WAT      O17350   2.665   3.599   5.393
 5703WAT     H117351   2.735   3.550   5.444
 5703WAT     H217352   2.697   3.692   5.374
 5704WAT      O17353   8.512   2.733   0.827
 5704WAT     H117354   8.535   2.793   0.751
 5704WAT     H217355   8.449   2.662   0.796
 5705WAT      O17356   8.931   4.747   8.214
 5705WAT     H117357   8.961   4.765   8.307
 5705WAT     H217358   8.969   4.816   8.152
 5706WAT      O17359   0.548   0.630   4.105
 5706WAT     H117360   0.619   0.699   4.093
 5706WAT     H217361   0.591   0.540   4.119
 5707WAT      O17362   3.201   0.744   3.480
 5707WAT     H117363   3.289   0.789   3.496
 5707WAT     H217364   3.197   0.714   3.385
 5708WAT      O17365   3.367   8.222   0.765
 5708WAT     H117366   3.326   8.162   0.696
 5708WAT     H217367   3.454   8.256   0.731
 5709WAT      O17368   0.326   3.676   4.641
 5709WAT     H117369   0.415   3.719   4.627
 5709WAT     H217370   0.327   3.585   4.600
 5710WAT      O17371   1.286   7.142   3.054
 5710WAT     H117372   1.302   7.239   3.069
 5710WAT     H217373   1.288   7.123   2.956
 5711WAT      O17374   8.953   4.819   9.031
 5711WAT     H117375   8.902   4.734   9.042
 5711WAT     H217376   9.005   4.837   9.114
 5712WAT      O17377   0.960   6.439   1.157
 5712WAT     H117378   1.037   6.420   1.096
 5712WAT     H217379   0.899   6.360   1.160
 5713WAT      O17380   0.130   5.105   0.835
 5713WAT     H117381   0.050   5.051   0.808
 5713WAT     H217382   0.142   5.099   0.934
 5714WAT      O17383   3.770   9.561   5.787
 5714WAT     H117384   3.797   9.652   5.820
 5714WAT     H217385   3.705   9.521   5.850
 5715WAT      O17386   9.675   4.248   8.895
 5715WAT     H117387   9.679   4.287   8.987
 5715WAT     H217388   9.631   4.312   8.833
 5716WAT      O17389   9.049   9.086   8.490
 5716WAT     H117390   9.127   9.149   8.496
 5716WAT     H217391   9.020   9.077   8.395
 5717WAT      O17392   4.132   8.535   8.231
 5717WAT     H117393   4.085   8.600   8.172
 5717WAT     H217394   4.176   8.465   8.175
 5718WAT      O17395   0.801   6.076   4.283
 5718WAT     H117396   0.772   6.028   4.200
 5718WAT     H217397   0.818   6.172   4.261
 5719WAT      O17398   0.244   0.581   0.698
 5719WAT     H117399   0.323   0.601   0.756
 5719WAT     H217400   0.213   0.487   0.714
 5720WAT      O17401   2.968   9.675   6.185
 5720WAT     H117402   2.986   9.578   6.171
 5720WAT     H217403   2.948   9.718   6.097
 5721WAT      O17404   7.015   3.298   4.191
 5721WAT     H117405   6.929   3.347   4.178
 5721WAT     H217406   7.092   3.360   4.179
 5722WAT      O17407   2.613   8.335   6.379
 5722WAT     H117408   2.641   8.267   6.446
 5722WAT     H217409   2.692   8.387   6.349
 5723WAT      O17410   3.130   2.754   3.412
 5723WAT     H117411   3.192   2.679   3.436
 5723WAT     H217412   3.056   2.758   3.480
 5724WAT      O17413   8.357   8.163   1.759
 5724WAT     H117414   8.314   8.233   1.701
 5724WAT     H217415   8.418   8.207   1.825
 5725WAT      O17416   6.431   7.128   8.751
 5725WAT     H117417   6.495   7.061   8.789
 5725WAT     H217418   6.443   7.134   8.652
 5726WAT      O17419   6.523   1.786   2.298
 5726WAT     H117420   6.477   1.870   2.271
 5726WAT     H217421   6.460   1.728   2.350
 5727WAT      O17422   5.719   5.780   4.677
 5727WAT     H117423   5.625   5.811   4.659
 5727WAT     H217424   5.748   5.814   4.766
 5728WAT      O17425   2.857   5.338   1.814
 5728WAT     H117426   2.828   5.366   1.723
 5728WAT     H217427   2.955   5.357   1.825
 5729WAT      O17428   2.265   3.901   2.331
 5729WAT     H117429   2.183   3.863   2.288
 5729WAT     H217430   2.244   3.927   2.426
 5730WAT      O17431   6.074   4.843   1.849
 5730WAT     H117432   6.061   4.939   1.874
 5730WAT     H217433   6.149   4.804   1.903
 5731WAT      O17434   3.228   8.260   4.580
 5731WAT     H117435   3.302   8.327   4.576
 5731WAT     H217436   3.152   8.298   4.634
 5732WAT      O17437   8.231   0.638   0.677
 5732WAT     H117438   8.266   0.636   0.584
 5732WAT     H217439   8.134   0.664   0.677
 5733WAT      O17440   3.543   4.714   8.402
 5733WAT     H117441   3.598   4.650   8.348
 5733WAT     H217442   3.544   4.803   8.358
 5734WAT      O17443   5.968   7.312   3.562
 5734WAT     H117444   6.062   7.325   3.528
 5734WAT     H217445   5.951   7.215   3.576
 5735WAT      O17446   5.893   9.455   0.222
 5735WAT     H117447   5.992   9.457   0.232
 5735WAT     H217448   5.859   9.548   0.207
 5736WAT      O17449   3.077   8.956   0.491
 5736WAT     H117450   3.114   8.901   0.567
 5736WAT     H217451   3.053   9.047   0.524
 5737WAT      O17452   4.425   2.936   6.322
 5737WAT     H117453   4.479   2.853   6.309
 5737WAT     H217454   4.340   2.928   6.270
 5738WAT      O17455   5.325   0.756   2.783
 5738WAT     H117456   5.273   0.811   2.717
 5738WAT     H217457   5.395   0.812   2.826
 5739WAT      O17458   2.260   7.311   2.316
 5739WAT     H117459   2.326   7.362   2.372
 5739WAT     H217460   2.191   7.270   2.376
 5740WAT      O17461   2.050   4.889   9.719
 5740WAT     H117462   2.093   4.818   9.775
 5740WAT     H217463   1.968   4.853   9.676
 5741WAT      O17464   7.815   6.100   1.333
 5741WAT     H117465   7.726   6.122   1.374
 5741WAT     H217466   7.885   6.104   1.404
 5742WAT      O17467   5.994   5.693   6.427
 5742WAT     H117468   6.034   5.783   6.443
 5742WAT     H217469   5.901   5.705   6.391
 5743WAT      O17470   3.928   3.741   8.580
 5743WAT     H117471   3.846   3.706   8.534
 5743WAT     H217472   3.923   3.721   8.678
 5744WAT      O17473   1.086   5.616   0.869
 5744WAT     H117474   1.033   5.598   0.952
 5744WAT     H217475   1.173   5.660   0.894
 5745WAT      O17476   8.165   3.182   4.016
 5745WAT     H117477   8.112   3.263   3.993
 5745WAT     H217478   8.133   3.144   4.102
 5746WAT      O17479   8.960   6.759   4.962
 5746WAT     H117480   8.906   6.836   4.927
 5746WAT     H217481   8.960   6.762   5.062
 5747WAT      O17482   5.428   3.176   7.851
 5747WAT     H117483   5.435   3.079   7.826
 5747WAT     H217484   5.354   3.219   7.800
 5748WAT      O17485   6.044   5.678   4.747
 5748WAT     H117486   6.044   5.581   4.774
 5748WAT     H217487   6.136   5.716   4.760
 5749WAT      O17488   2.337   5.580   8.346
 5749WAT     H117489   2.311   5.575   8.442
 5749WAT     H217490   2.321   5.673   8.311
 5750WAT      O17491   3.836   7.497   4.310
 5750WAT     H117492   3.902   7.513   4.236
 5750WAT     H217493   3.839   7.572   4.375
 5751WAT      O17494   6.738   3.798   6.306
 5751WAT     H117495   6.639   3.806   6.294
 5751WAT     H217496   6.770   3.872   6.364
 5752WAT      O17497   4.531   4.794   9.457
 5752WAT     H117498   4.552   4.891   9.465
 5752WAT     H217499   4.451   4.772   9.513
 5753WAT      O17500   0.997   8.762   9.603
 5753WAT     H117501   1.070   8.827   9.625
 5753WAT     H217502   0.958   8.786   9.514
 5754WAT      O17503   5.658   7.489   6.904
 5754WAT     H117504   5.693   7.404   6.944
 5754WAT     H217505   5.623   7.471   6.812
 5755WAT      O17506   9.094   4.176   9.427
 5755WAT     H117507   9.124   4.086   9.459
 5755WAT     H217508   9.105   4.181   9.327
 5756WAT      O17509   7.328   5.563   7.021
 5756WAT     H117510   7.321   5.643   7.082
 5756WAT     H217511   7.255   5.498   7.042
 5757WAT      O17512   1.359   9.036   0.692
 5757WAT     H117513   1.446   9.079   0.717
 5757WAT     H217514   1.376   8.942   0.661
 5758WAT      O17515   3.885   1.606   2.918
 5758WAT     H117516   3.856   1.546   2.844
 5758WAT     H217517   3.805   1.647   2.962
 5759WAT      O17518   7.983   2.789   3.815
 5759WAT     H117519   8.036   2.774   3.898
 5759WAT     H217520   8.045   2.796   3.736
 5760WAT      O17521   6.397   4.952   1.154
 5760WAT     H117522   6.365   4.859   1.132
 5760WAT     H217523   6.494   4.959   1.134
 5761WAT      O17524   8.253   3.214   1.948
 5761WAT     H117525   8.315   3.218   1.869
 5761WAT     H217526   8.207   3.303   1.959
 5762WAT      O17527   9.348   2.962   4.911
 5762WAT     H117528   9.377   2.886   4.970
 5762WAT     H217529   9.257   2.944   4.875
 5763WAT      O17530   5.997   8.554   8.834
 5763WAT     H117531   5.937   8.476   8.847
 5763WAT     H217532   6.068   8.553   8.905
 5764WAT      O17533   8.459   0.022   6.628
 5764WAT     H117534   8.383   0.019   6.693
 5764WAT     H217535   8.425  -0.002   6.537
 5765WAT      O17536   1.369   8.410   5.857
 5765WAT     H117537   1.419   8.485   5.813
 5765WAT     H217538   1.311   8.446   5.930
 5766WAT      O17539   9.201   0.469   5.854
 5766WAT     H117540   9.131   0.402   5.877
 5766WAT     H217541   9.176   0.515   5.768
 5767WAT      O17542   9.394   3.595   4.301
 5767WAT     H117543   9.489   3.591   4.270
 5767WAT     H217544   9.345   3.514   4.268
 5768WAT      O17545   9.343   0.065   4.192
 5768WAT     H117546   9.370  -0.007   4.128
 5768WAT     H217547   9.359   0.033   4.286
 5769WAT      O17548   8.081   3.080   4.275
 5769WAT     H117549   8.024   3.140   4.331
 5769WAT     H217550   8.150   3.036   4.333
 5770WAT      O17551   5.169   4.529   6.174
 5770WAT     H117552   5.194   4.484   6.088
 5770WAT     H217553   5.237   4.508   6.244
 5771WAT      O17554   5.278   0.039   6.450
 5771WAT     H117555   5.305  -0.042   6.397
 5771WAT     H217556   5.209   0.090   6.399
 5772WAT      O17557   2.128   9.600   5.463
 5772WAT     H117558   2.089   9.573   5.551
 5772WAT     H217559   2.117   9.526   5.397
 5773WAT      O17560   8.612   4.184   3.414
 5773WAT     H117561   8.666   4.214   3.493
 5773WAT     H217562   8.652   4.222   3.331
 5774WAT      O17563   4.246   4.652   8.448
 5774WAT     H117564   4.174   4.605   8.397
 5774WAT     H217565   4.251   4.615   8.541
 5775WAT      O17566   8.238   1.914   1.150
 5775WAT     H117567   8.169   1.876   1.088
 5775WAT     H217568   8.195   1.938   1.237
 5776WAT      O17569   7.722   2.538   9.827
 5776WAT     H117570   7.725   2.532   9.728
 5776WAT     H217571   7.666   2.617   9.854
 5777WAT      O17572   8.876   4.702   5.748
 5777WAT     H117573   8.798   4.760   5.774
 5777WAT     H217574   8.846   4.608   5.737
 5778WAT      O17575   4.582   7.951   6.935
 5778WAT     H117576   4.504   7.910   6.888
 5778WAT     H217577   4.582   8.050   6.919
 5779WAT      O17578   5.660   0.504   9.300
 5779WAT     H117579   5.628   0.537   9.389
 5779WAT     H217580   5.610   0.551   9.227
 5780WAT      O17581   1.419   3.787   3.980
 5780WAT     H117582   1.387   3.824   3.893
 5780WAT     H217583   1.418   3.687   3.976
 5781WAT      O17584   7.122   5.800   6.679
 5781WAT     H117585   7.201   5.751   6.717
 5781WAT     H217586   7.098   5.761   6.590
 5782WAT      O17587   6.074   5.175   6.374
 5782WAT     H117588   6.088   5.270   6.346
 5782WAT     H217589   6.088   5.168   6.473
 5783WAT      O17590   9.481   5.097   2.486
 5783WAT     H117591   9.426   5.083   2.403
 5783WAT     H217592   9.449   5.034   2.557
 5784WAT      O17593   4.222   2.279   9.268
 5784WAT     H117594   4.137   2.272   9.216
 5784WAT     H217595   4.273   2.194   9.260
 5785WAT      O17596   6.298   3.874   2.370
 5785WAT     H117597   6.211   3.875   2.419
 5785WAT     H217598   6.353   3.797   2.402
 5786WAT      O17599   5.542   1.013   6.256
 5786WAT     H117600   5.462   1.072   6.263
 5786WAT     H217601   5.520   0.934   6.199
 5787WAT      O17602   7.813   3.990   0.804
 5787WAT     H117603   7.874   3.912   0.818
 5787WAT     H217604   7.733   3.960   0.751
 5788WAT      O17605   8.423   7.208   6.117
 5788WAT     H117606   8.333   7.249   6.104
 5788WAT     H217607   8.461   7.181   6.028
 5789WAT      O17608   8.050   8.273   4.122
 5789WAT     H117609   8.098   8.209   4.061
 5789WAT     H217610   8.068   8.248   4.217
 5790WAT      O17611   0.548   7.811   4.704
 5790WAT     H117612   0.452   7.794   4.726
 5790WAT     H217613   0.605   7.777   4.779
 5791WAT      O17614   3.800   9.490   8.853
 5791WAT     H117615   3.810   9.585   8.826
 5791WAT     H217616   3.729   9.482   8.923
 5792WAT      O17617   1.489   1.247   1.456
 5792WAT     H117618   1.409   1.194   1.428
 5792WAT     H217619   1.565   1.227   1.394
 5793WAT      O17620   0.529   2.390   7.553
 5793WAT     H117621   0.473   2.307   7.555
 5793WAT     H217622   0.499   2.452   7.625
 5794WAT      O17623   9.074   9.309   4.757
 5794WAT     H117624   9.129   9.340   4.680
 5794WAT     H217625   9.022   9.227   4.730
 5795WAT      O17626   8.279   3.264   8.151
 5795WAT     H117627   8.301   3.307   8.238
 5795WAT     H217628   8.241   3.331   8.088
 5796WAT      O17629   7.660   3.173   3.611
 5796WAT     H117630   7.707   3.112   3.675
 5796WAT     H217631   7.707   3.171   3.523
 5797WAT      O17632   7.539   2.778   8.960
 5797WAT     H117633   7.506   2.723   8.883
 5797WAT     H217634   7.580   2.862   8.926
 5798WAT      O17635   2.934   9.100   4.138
 5798WAT     H117636   2.965   9.050   4.218
 5798WAT     H217637   2.887   9.038   4.076
 5799WAT      O17638   0.418   0.080   2.869
 5799WAT     H117639   0.501   0.136   2.872
 5799WAT     H217640   0.413   0.032   2.782
 5800WAT      O17641   6.423   9.513   0.331
 5800WAT     H117642   6.418   9.420   0.294
 5800WAT     H217643   6.446   9.577   0.258
 5801WAT      O17644   3.428   6.563   8.627
 5801WAT     H117645   3.461   6.515   8.708
 5801WAT     H217646   3.409   6.659   8.650
 5802WAT      O17647   0.426   9.440   3.305
 5802WAT     H117648   0.381   9.522   3.340
 5802WAT     H217649   0.497   9.466   3.240
 5803WAT      O17650   2.445   0.895   6.624
 5803WAT     H117651   2.423   0.930   6.714
 5803WAT     H217652   2.361   0.880   6.572
 5804WAT      O17653   7.053   9.067   6.844
 5804WAT     H117654   7.123   9.026   6.785
 5804WAT     H217655   7.014   9.147   6.799
 5805WAT      O17656   3.900   5.755   3.825
 5805WAT     H117657   3.988   5.781   3.785
 5805WAT     H217658   3.912   5.673   3.882
 5806WAT      O17659   6.618   8.820   6.909
 5806WAT     H117660   6.600   8.732   6.953
 5806WAT     H217661   6.702   8.814   6.855
 5807WAT      O17662   8.824   9.289   5.061
 5807WAT     H117663   8.833   9.358   4.989
 5807WAT     H217664   8.727   9.274   5.080
 5808WAT      O17665   4.912   4.133   6.736
 5808WAT     H117666   4.840   4.153   6.803
 5808WAT     H217667   4.917   4.034   6.720
 5809WAT      O17668   0.957   0.664   7.581
 5809WAT     H117669   0.957   0.582   7.524
 5809WAT     H217670   1.051   0.689   7.603
 5810WAT      O17671   3.439   6.153   8.672
 5810WAT     H117672   3.369   6.168   8.603
 5810WAT     H217673   3.402   6.172   8.763
 5811WAT      O17674   4.408   6.824   5.414
 5811WAT     H117675   4.494   6.776   5.431
 5811WAT     H217676   4.384   6.878   5.494
 5812WAT      O17677   8.357   7.906   0.708
 5812WAT     H117678   8.450   7.937   0.693
 5812WAT     H217679   8.293   7.969   0.664
 5813WAT      O17680   7.390   3.483   5.664
 5813WAT     H117681   7.339   3.398   5.649
 5813WAT     H217682   7.478   3.463   5.707
 5814WAT      O17683   9.302   6.405   5.918
 5814WAT     H117684   9.269   6.311   5.927
 5814WAT     H217685   9.237   6.458   5.862
 5815WAT      O17686   3.786   2.249   5.272
 5815WAT     H117687   3.868   2.299   5.303
 5815WAT     H217688   3.770   2.270   5.175
 5816WAT      O17689   1.444   2.713   8.330
 5816WAT     H117690   1.535   2.689   8.297
 5816WAT     H217691   1.435   2.813   8.334
 5817WAT      O17692   4.940   4.617   1.635
 5817WAT     H117693   4.939   4.716   1.647
 5817WAT     H217694   4.886   4.592   1.555
 5818WAT      O17695   9.881   6.356   9.246
 5818WAT     H117696   9.788   6.355   9.284
 5818WAT     H217697   9.888   6.427   9.176
 5819WAT      O17698   7.840   4.107   2.712
 5819WAT     H117699   7.812   4.101   2.808
 5819WAT     H217700   7.824   4.200   2.678
 5820WAT      O17701   9.150   8.721   5.743
 5820WAT     H117702   9.115   8.796   5.800
 5820WAT     H217703   9.245   8.740   5.718
 5821WAT      O17704   4.961   0.978   6.775
 5821WAT     H117705   5.028   0.950   6.844
 5821WAT     H217706   4.873   0.935   6.795
 5822WAT      O17707   2.111   0.960   6.627
 5822WAT     H117708   2.012   0.967   6.639
 5822WAT     H217709   2.151   1.051   6.630
 5823WAT      O17710   6.425   2.347   2.192
 5823WAT     H117711   6.470   2.279   2.250
 5823WAT     H217712   6.345   2.384   2.241
 5824WAT      O17713   1.959   4.241   5.332
 5824WAT     H117714   1.994   4.174   5.265
 5824WAT     H217715   1.968   4.203   5.424
 5825WAT      O17716   0.309   4.456   1.228
 5825WAT     H117717   0.237   4.497   1.171
 5825WAT     H217718   0.271   4.382   1.283
 5826WAT      O17719   1.978   0.540   1.950
 5826WAT     H117720   1.917   0.619   1.954
 5826WAT     H217721   2.057   0.562   1.891
 5827WAT      O17722   9.597   7.888   9.848
 5827WAT     H117723   9.550   7.809   9.810
 5827WAT     H217724   9.648   7.861   9.930
 5828WAT      O17725   2.308   7.829   6.903
 5828WAT     H117726   2.318   7.745   6.850
 5828WAT     H217727   2.253   7.895   6.851
 5829WAT      O17728   4.661   7.595   3.275
 5829WAT     H117729   4.699   7.539   3.201
 5829WAT     H217730   4.662   7.691   3.249
 5830WAT      O17731   2.127   8.720   2.078
 5830WAT     H117732   2.179   8.642   2.044
 5830WAT     H217733   2.114   8.786   2.004
 5831WAT      O17734   4.094   3.625   8.014
 5831WAT     H117735   4.139   3.548   8.061
 5831WAT     H217736   4.095   3.608   7.915
 5832WAT      O17737   1.146   8.296   9.171
 5832WAT     H117738   1.160   8.331   9.078
 5832WAT     H217739   1.110   8.369   9.229
 5833WAT      O17740   7.623   0.269   8.689
 5833WAT     H117741   7.716   0.273   8.725
 5833WAT     H217742   7.618   0.198   8.619
 5834WAT      O17743   6.026   3.283   5.897
 5834WAT     H117744   6.013   3.382   5.898
 5834WAT     H217745   5.941   3.238   5.925
 5835WAT      O17746   0.949   8.471   1.434
 5835WAT     H117747   0.881   8.401   1.411
 5835WAT     H217748   0.977   8.460   1.530
 5836WAT      O17749   1.555   7.462   5.351
 5836WAT     H117750   1.584   7.534   5.288
 5836WAT     H217751   1.506   7.502   5.429
 5837WAT      O17752   4.919   1.983   5.534
 5837WAT     H117753   4.846   1.982   5.602
 5837WAT     H217754   4.879   1.994   5.443
 5838WAT      O17755   0.474   8.811   5.142
 5838WAT     H117756   0.432   8.831   5.231
 5838WAT     H217757   0.417   8.745   5.093
 5839WAT      O17758   4.114   6.401   7.212
 5839WAT     H117759   4.026   6.404   7.164
 5839WAT     H217760   4.172   6.475   7.179
 5840WAT      O17761   7.350   9.765   4.299
 5840WAT     H117762   7.291   9.697   4.256
 5840WAT     H217763   7.436   9.723   4.327
 5841WAT      O17764   2.091   9.190   7.988
 5841WAT     H117765   2.073   9.206   7.891
 5841WAT     H217766   2.098   9.278   8.035
 5842WAT      O17767   7.114   8.575   1.241
 5842WAT     H117768   7.078   8.483   1.226
 5842WAT     H217769   7.039   8.637   1.260
 5843WAT      O17770   8.132   4.374   7.788
 5843WAT     H117771   8.034   4.375   7.804
 5843WAT     H217772   8.155   4.439   7.715
 5844WAT      O17773   8.089   0.882   6.287
 5844WAT     H117774   8.108   0.934   6.370
 5844WAT     H217775   7.994   0.899   6.259
 5845WAT      O17776   0.679   1.843   2.980
 5845WAT     H117777   0.655   1.939   2.994
 5845WAT     H217778   0.759   1.820   3.034
 5846WAT      O17779   4.893   1.534   5.623
 5846WAT     H117780   4.965   1.522   5.554
 5846WAT     H217781   4.928   1.589   5.699
 5847WAT      O17782   8.549   7.430   6.985
 5847WAT     H117783   8.488   7.469   6.915
 5847WAT     H217784   8.552   7.331   6.975
 5848WAT      O17785   1.762   3.832   6.358
 5848WAT     H117786   1.860   3.840   6.344
 5848WAT     H217787   1.723   3.923   6.377
 5849WAT      O17788   2.268   5.780   6.554
 5849WAT     H117789   2.262   5.793   6.653
 5849WAT     H217790   2.209   5.704   6.526
 5850WAT      O17791   1.172   2.169   6.918
 5850WAT     H117792   1.080   2.197   6.889
 5850WAT     H217793   1.226   2.251   6.939
 5851WAT      O17794   0.015   7.071   5.944
 5851WAT     H117795  -0.043   7.104   5.870
 5851WAT     H217796   0.100   7.035   5.906
 5852WAT      O17797   4.240   2.068   0.921
 5852WAT     H117798   4.321   2.072   0.980
 5852WAT     H217799   4.269   2.058   0.826
 5853WAT      O17800   9.869   3.584   3.368
 5853WAT     H117801   9.899   3.491   3.393
 5853WAT     H217802   9.928   3.620   3.296
 5854WAT      O17803   4.191   2.733   9.798
 5854WAT     H117804   4.180   2.780   9.711
 5854WAT     H217805   4.260   2.661   9.788
 5855WAT      O17806   6.687   4.441   4.056
 5855WAT     H117807   6.655   4.453   4.150
 5855WAT     H217808   6.644   4.510   3.997
 5856WAT      O17809   7.400   0.766   2.050
 5856WAT     H117810   7.376   0.843   1.991
 5856WAT     H217811   7.360   0.779   2.140
 5857WAT      O17812   9.639   3.431   3.113
 5857WAT     H117813   9.684   3.356   3.163
 5857WAT     H217814   9.700   3.510   3.110
 5858WAT      O17815   7.793   1.610   1.565
 5858WAT     H117816   7.702   1.587   1.599
 5858WAT     H217817   7.861   1.592   1.637
 5859WAT      O17818   0.578   7.723   6.182
 5859WAT     H117819   0.676   7.716   6.162
 5859WAT     H217820   0.564   7.773   6.267
 5860WAT      O17821   3.237   2.173   3.444
 5860WAT     H117822   3.159   2.112   3.428
 5860WAT     H217823   3.305   2.126   3.500
 5861WAT      O17824   6.206   6.038   2.538
 5861WAT     H117825   6.244   5.950   2.511
 5861WAT     H217826   6.213   6.049   2.637
 5862WAT      O17827   1.605   9.595   2.190
 5862WAT     H117828   1.574   9.532   2.261
 5862WAT     H217829   1.665   9.547   2.126
 5863WAT      O17830   7.462   0.242   3.925
 5863WAT     H117831   7.422   0.183   3.995
 5863WAT     H217832   7.392   0.270   3.860
 5864WAT      O17833   1.925   7.881   3.418
 5864WAT     H117834   1.827   7.891   3.436
 5864WAT     H217835   1.972   7.967   3.440
 5865WAT      O17836   5.246   6.310   8.957
 5865WAT     H117837   5.336   6.325   8.918
 5865WAT     H217838   5.176   6.350   8.897
 5866WAT      O17839   2.707   7.176   6.699
 5866WAT     H117840   2.806   7.184   6.685
 5866WAT     H217841   2.672   7.262   6.735
 5867WAT      O17842   0.000   7.203   9.573
 5867WAT     H117843  -0.047   7.122   9.609
 5867WAT     H217844   0.072   7.174   9.509
 5868WAT      O17845   5.525   6.256   9.571
 5868WAT     H117846   5.611   6.286   9.529
 5868WAT     H217847   5.519   6.157   9.565
 5869WAT      O17848   7.699   3.123   4.520
 5869WAT     H117849   7.687   3.062   4.599
 5869WAT     H217850   7.792   3.158   4.518
 5870WAT      O17851   0.887   3.120   1.042
 5870WAT     H117852   0.953   3.128   1.117
 5870WAT     H217853   0.929   3.152   0.957
 5871WAT      O17854   2.063   8.062   7.618
 5871WAT     H117855   2.122   8.000   7.565
 5871WAT     H217856   1.991   8.008   7.662
 5872WAT      O17857   4.898   7.743   9.692
 5872WAT     H117858   4.920   7.663   9.636
 5872WAT     H217859   4.803   7.737   9.723
 5873WAT      O17860   3.943   3.810   9.455
 5873WAT     H117861   3.946   3.884   9.523
 5873WAT     H217862   4.033   3.769   9.446
 5874WAT      O17863   7.918   5.903   3.449
 5874WAT     H117864   7.991   5.967   3.474
 5874WAT     H217865   7.851   5.899   3.523
 5875WAT      O17866   3.596   3.499   7.063
 5875WAT     H117867   3.560   3.412   7.032
 5875WAT     H217868   3.676   3.524   7.008
 5876WAT      O17869   4.326   2.145   5.625
 5876WAT     H117870   4.407   2.193   5.592
 5876WAT     H217871   4.251   2.211   5.636
 5877WAT      O17872   0.697   8.383   3.756
 5877WAT     H117873   0.747   8.431   3.827
 5877WAT     H217874   0.732   8.290   3.746
 5878WAT      O17875   8.048   9.569   5.729
 5878WAT     H117876   7.989   9.544   5.806
 5878WAT     H217877   7.992   9.575   5.646
 5879WAT      O17878   6.199   7.983   5.719
 5879WAT     H117879   6.188   8.068   5.771
 5879WAT     H217880   6.194   7.905   5.781
 5880WAT      O17881   0.082   6.266   5.233
 5880WAT     H117882   0.073   6.228   5.324
 5880WAT     H217883   0.124   6.199   5.172
 5881WAT      O17884   9.029   5.387   0.306
 5881WAT     H117885   9.031   5.421   0.212
 5881WAT     H217886   9.072   5.298   0.310
 5882WAT      O17887   7.521   8.712   4.597
 5882WAT     H117888   7.518   8.791   4.659
 5882WAT     H217889   7.447   8.719   4.530
 5883WAT      O17890   2.937   5.005   2.521
 5883WAT     H117891   2.857   5.030   2.466
 5883WAT     H217892   2.986   5.087   2.547
 5884WAT      O17893   3.545   8.116   8.832
 5884WAT     H117894   3.494   8.178   8.891
 5884WAT     H217895   3.581   8.040   8.886
 5885WAT      O17896   9.612   4.516   7.548
 5885WAT     H117897   9.636   4.503   7.452
 5885WAT     H217898   9.540   4.451   7.574
 5886WAT      O17899   6.920   8.604   9.456
 5886WAT     H117900   6.842   8.558   9.498
 5886WAT     H217901   6.976   8.537   9.408
 5887WAT      O17902   4.923   5.961   4.606
 5887WAT     H117903   4.930   5.979   4.704
 5887WAT     H217904   4.961   6.038   4.555
 5888WAT      O17905   5.655   4.645   7.611
 5888WAT     H117906   5.624   4.738   7.593
 5888WAT     H217907   5.577   4.588   7.637
 5889WAT      O17908   1.414   0.079   8.411
 5889WAT     H117909   1.447   0.158   8.462
 5889WAT     H217910   1.316   0.088   8.395
 5890WAT      O17911   3.177   2.887   7.476
 5890WAT     H117912   3.213   2.940   7.399
 5890WAT     H217913   3.185   2.940   7.560
 5891WAT      O17914   3.246   1.247   5.971
 5891WAT     H117915   3.184   1.196   6.030
 5891WAT     H217916   3.338   1.247   6.011
 5892WAT      O17917   3.366   5.839   8.856
 5892WAT     H117918   3.399   5.845   8.761
 5892WAT     H217919   3.329   5.748   8.873
 5893WAT      O17920   1.046   9.126   1.584
 5893WAT     H117921   1.146   9.129   1.588
 5893WAT     H217922   1.007   9.185   1.654
 5894WAT      O17923   4.728   6.990   6.683
 5894WAT     H117924   4.766   6.908   6.725
 5894WAT     H217925   4.779   7.013   6.600
 5895WAT      O17926   2.023   6.077   4.488
 5895WAT     H117927   2.007   6.175   4.504
 5895WAT     H217928   1.938   6.035   4.455
 5896WAT      O17929   0.852   9.278   8.035
 5896WAT     H117930   0.952   9.279   8.044
 5896WAT     H217931   0.815   9.361   8.078
 5897WAT      O17932   1.722   5.171   2.080
 5897WAT     H117933   1.726   5.181   2.180
 5897WAT     H217934   1.786   5.100   2.051
 5898WAT      O17935   3.785   7.281   1.129
 5898WAT     H117936   3.738   7.369   1.132
 5898WAT     H217937   3.745   7.219   1.196
 5899WAT      O17938   5.880   6.946   1.594
 5899WAT     H117939   5.967   6.961   1.642
 5899WAT     H217940   5.861   7.024   1.535
 5900WAT      O17941   9.819   6.486   9.571
 5900WAT     H117942   9.797   6.402   9.519
 5900WAT     H217943   9.913   6.513   9.552
 5901WAT      O17944   2.036   2.462   3.895
 5901WAT     H117945   2.081   2.535   3.946
 5901WAT     H217946   1.946   2.492   3.865
 5902WAT      O17947   2.029   8.570   3.308
 5902WAT     H117948   1.976   8.498   3.352
 5902WAT     H217949   2.100   8.528   3.250
 5903WAT      O17950   5.102   2.759   9.388
 5903WAT     H117951   5.051   2.779   9.472
 5903WAT     H217952   5.104   2.840   9.330
 5904WAT      O17953   9.363   6.379   8.603
 5904WAT     H117954   9.416   6.440   8.662
 5904WAT     H217955   9.423   6.309   8.564
 5905WAT      O17956   0.954   0.021   8.051
 5905WAT     H117957   0.891   0.097   8.070
 5905WAT     H217958   0.903  -0.055   8.010
 5906WAT      O17959   3.529   4.030   7.505
 5906WAT     H117960   3.460   4.102   7.505
 5906WAT     H217961   3.610   4.061   7.456
 5907WAT      O17962   8.096   6.348   4.008
 5907WAT     H117963   8.033   6.356   3.931
 5907WAT     H217964   8.051   6.301   4.084
 5908WAT      O17965   6.986   7.235   4.204
 5908WAT     H117966   7.006   7.195   4.293
 5908WAT     H217967   7.069   7.237   4.148
 5909WAT      O17968   4.734   1.014   5.170
 5909WAT     H117969   4.778   1.067   5.243
 5909WAT     H217970   4.703   0.926   5.207
 5910WAT      O17971   2.598   6.348   2.596
 5910WAT     H117972   2.682   6.315   2.637
 5910WAT     H217973   2.577   6.440   2.630
 5911WAT      O17974   6.893   0.687   4.821
 5911WAT     H117975   6.991   0.708   4.826
 5911WAT     H217976   6.876   0.630   4.741
 5912WAT      O17977   5.637   5.642   1.562
 5912WAT     H117978   5.613   5.649   1.659
 5912WAT     H217979   5.670   5.550   1.542
 5913WAT      O17980   7.018   2.204   5.964
 5913WAT     H117981   6.932   2.256   5.963
 5913WAT     H217982   7.084   2.249   5.905
 5914WAT      O17983   3.712   5.471   6.766
 5914WAT     H117984   3.776   5.396   6.752
 5914WAT     H217985   3.651   5.479   6.687
 5915WAT      O17986   6.568   8.915   6.204
 5915WAT     H117987   6.629   8.855   6.152
 5915WAT     H217988   6.549   8.873   6.293
 5916WAT      O17989   6.707   3.401   8.694
 5916WAT     H117990   6.782   3.408   8.759
 5916WAT     H217991   6.649   3.483   8.700
 5917WAT      O17992   2.833   6.178   5.393
 5917WAT     H117993   2.802   6.232   5.315
 5917WAT     H217994   2.905   6.115   5.364
 5918WAT      O17995   3.037   2.282   9.014
 5918WAT     H117996   3.114   2.225   8.988
 5918WAT     H217997   2.973   2.230   9.070
 5919WAT      O17998   4.742   2.465   1.250
 5919WAT     H117999   4.747   2.411   1.166
 5919WAT     H218000   4.658   2.517   1.251
 5920WAT      O18001   1.276   3.148   4.976
 5920WAT     H118002   1.238   3.142   4.884
 5920WAT     H218003   1.373   3.172   4.971
 5921WAT      O18004   2.772   0.649   6.176
 5921WAT     H118005   2.765   0.627   6.274
 5921WAT     H218006   2.759   0.565   6.122
 5922WAT      O18007   6.126   8.731   2.331
 5922WAT     H118008   6.191   8.764   2.399
 5922WAT     H218009   6.048   8.793   2.325
 5923WAT      O18010   4.080   3.457   1.586
 5923WAT     H118011   4.117   3.423   1.673
 5923WAT     H218012   4.101   3.392   1.514
 5924WAT      O18013   4.383   4.083   3.721
 5924WAT     H118014   4.458   4.076   3.787
 5924WAT     H218015   4.410   4.147   3.648
 5925WAT      O18016   4.768   6.633   6.881
 5925WAT     H118017   4.704   6.619   6.806
 5925WAT     H218018   4.855   6.666   6.844
 5926WAT      O18019   3.930   0.370   9.373
 5926WAT     H118020   3.865   0.432   9.417
 5926WAT     H218021   3.936   0.285   9.425
 5927WAT      O18022   3.297   4.520   4.324
 5927WAT     H118023   3.265   4.590   4.260
 5927WAT     H218024   3.356   4.455   4.276
 5928WAT      O18025   9.497   5.119   9.091
 5928WAT     H118026   9.513   5.020   9.099
 5928WAT     H218027   9.484   5.143   8.995
 5929WAT      O18028   7.662   3.316   2.946
 5929WAT     H118029   7.680   3.392   3.007
 5929WAT     H218030   7.676   3.229   2.995
 5930WAT      O18031   9.800   2.450   8.842
 5930WAT     H118032   9.806   2.354   8.870
 5930WAT     H218033   9.713   2.488   8.874
 5931WAT      O18034   9.506   3.164   5.046
 5931WAT     H118035   9.452   3.088   5.010
 5931WAT     H218036   9.449   3.222   5.104
 5932WAT      O18037   7.851   7.219   9.520
 5932WAT     H118038   7.916   7.218   9.596
 5932WAT     H218039   7.800   7.133   9.519
 5933WAT      O18040   8.414   7.910   7.798
 5933WAT     H118041   8.368   7.824   7.817
 5933WAT     H218042   8.509   7.905   7.830
 5934WAT      O18043   1.627   7.016   2.213
 5934WAT     H118044   1.636   7.023   2.114
 5934WAT     H218045   1.717   7.024   2.256
 5935WAT      O18046   7.780   9.585   3.575
 5935WAT     H118047   7.872   9.588   3.536
 5935WAT     H218048   7.772   9.507   3.637
 5936WAT      O18049   8.637   7.877   4.435
 5936WAT     H118050   8.670   7.782   4.437
 5936WAT     H218051   8.636   7.914   4.528
 5937WAT      O18052   5.622   1.621   9.724
 5937WAT     H118053   5.626   1.522   9.733
 5937WAT     H218054   5.541   1.647   9.670
 5938WAT      O18055   0.011   5.199   3.355
 5938WAT     H118056   0.063   5.283   3.373
 5938WAT     H218057   0.019   5.176   3.259
 5939WAT      O18058   4.202   9.650   5.873
 5939WAT     H118059   4.133   9.600   5.821
 5939WAT     H218060   4.231   9.596   5.952
 5940WAT      O18061   1.366   8.810   7.857
 5940WAT     H118062   1.318   8.725   7.834
 5940WAT     H218063   1.459   8.805   7.821
 5941WAT      O18064   6.007   9.234   9.591
 5941WAT     H118065   6.009   9.230   9.691
 5941WAT     H218066   5.915   9.259   9.561
 5942WAT      O18067   1.799   6.829   7.084
 5942WAT     H118068   1.737   6.900   7.049
 5942WAT     H218069   1.868   6.809   7.016
 5943WAT      O18070   1.875   7.711   3.014
 5943WAT     H118071   1.805   7.648   2.979
 5943WAT     H218072   1.862   7.801   2.974
 5944WAT      O18073   1.918   6.816   5.486
 5944WAT     H118074   1.921   6.833   5.387
 5944WAT     H218075   1.825   6.829   5.519
 5945WAT      O18076   3.957   5.966   5.178
 5945WAT     H118077   4.025   5.927   5.240
 5945WAT     H218078   3.898   6.029   5.229
 5946WAT      O18079   6.058   2.013   1.120
 5946WAT     H118080   5.959   2.015   1.103
 5946WAT     H218081   6.105   1.982   1.038
 5947WAT      O18082   7.564   6.016   6.492
 5947WAT     H118083   7.529   5.975   6.576
 5947WAT     H218084   7.487   6.043   6.434
 5948WAT      O18085   6.891   3.596   6.288
 5948WAT     H118086   6.851   3.687   6.281
 5948WAT     H218087   6.875   3.560   6.380
 5949WAT      O18088   5.974   6.738   4.768
 5949WAT     H118089   6.066   6.700   4.779
 5949WAT     H218090   5.967   6.825   4.818
 5950WAT      O18091   1.475   4.874   4.165
 5950WAT     H118092   1.493   4.949   4.101
 5950WAT     H218093   1.469   4.788   4.115
 5951WAT      O18094   1.583   2.066   2.670
 5951WAT     H118095   1.494   2.072   2.624
 5951WAT     H218096   1.604   1.970   2.689
 5952WAT      O18097   4.261   1.105   1.054
 5952WAT     H118098   4.304   1.022   1.089
 5952WAT     H218099   4.264   1.105   0.954
 5953WAT      O18100   9.190   2.407   9.280
 5953WAT     H118101   9.211   2.502   9.255
 5953WAT     H218102   9.264   2.348   9.248
 5954WAT      O18103   8.636   3.211   5.451
 5954WAT     H118104   8.675   3.121   5.431
 5954WAT     H218105   8.654   3.234   5.547
 5955WAT      O18106   1.990   6.203   5.239
 5955WAT     H118107   1.960   6.190   5.144
 5955WAT     H218108   2.089   6.216   5.241
 5956WAT      O18109   0.165   2.542   5.320
 5956WAT     H118110   0.154   2.506   5.413
 5956WAT     H218111   0.262   2.560   5.303
 5957WAT      O18112   9.873   5.657   8.149
 5957WAT     H118113   9.780   5.647   8.184
 5957WAT     H218114   9.902   5.570   8.107
 5958WAT      O18115   1.853   3.886   5.790
 5958WAT     H118116   1.858   3.798   5.743
 5958WAT     H218117   1.758   3.917   5.792
 5959WAT      O18118   8.102   1.310   3.272
 5959WAT     H118119   8.147   1.383   3.221
 5959WAT     H218120   8.085   1.233   3.211
 5960WAT      O18121   4.550   7.434   6.385
 5960WAT     H118122   4.536   7.438   6.484
 5960WAT     H218123   4.539   7.526   6.347
 5961WAT      O18124   4.777   8.174   5.130
 5961WAT     H118125   4.818   8.243   5.190
 5961WAT     H218126   4.819   8.086   5.148
 5962WAT      O18127   7.383   5.368   4.967
 5962WAT     H118128   7.290   5.355   4.931
 5962WAT     H218129   7.434   5.282   4.958
 5963WAT      O18130   6.047   3.199   6.306
 5963WAT     H118131   6.059   3.219   6.403
 5963WAT     H218132   5.958   3.156   6.292
 5964WAT      O18133   2.013   7.750   4.702
 5964WAT     H118134   1.971   7.810   4.770
 5964WAT     H218135   1.995   7.786   4.610
 5965WAT      O18136   3.477   4.725   6.809
 5965WAT     H118137   3.468   4.823   6.828
 5965WAT     H218138   3.540   4.711   6.733
 5966WAT      O18139   3.093   4.882   2.335
 5966WAT     H118140   3.001   4.851   2.309
 5966WAT     H218141   3.087   4.953   2.404
 5967WAT      O18142   2.294   3.823   4.424
 5967WAT     H118143   2.221   3.792   4.362
 5967WAT     H218144   2.354   3.887   4.377
 5968WAT      O18145   5.410   7.974   2.704
 5968WAT     H118146   5.356   8.015   2.631
 5968WAT     H218147   5.478   8.041   2.737
 5969WAT      O18148   4.734   0.126   9.433
 5969WAT     H118149   4.665   0.198   9.437
 5969WAT     H218150   4.718   0.068   9.354
 5970WAT      O18151   6.431   0.789   4.781
 5970WAT     H118152   6.393   0.743   4.701
 5970WAT     H218153   6.374   0.770   4.860
 5971WAT      O18154   1.552   9.739   6.305
 5971WAT     H118155   1.563   9.640   6.309
 5971WAT     H218156   1.599   9.781   6.382
 5972WAT      O18157   9.253   2.135   2.629
 5972WAT     H118158   9.197   2.058   2.660
 5972WAT     H218159   9.237   2.214   2.687
 5973WAT      O18160   2.965   7.671   4.914
 5973WAT     H118161   3.038   7.610   4.882
 5973WAT     H218162   2.876   7.630   4.893
 5974WAT      O18163   5.217   1.894   4.263
 5974WAT     H118164   5.261   1.838   4.333
 5974WAT     H218165   5.178   1.835   4.192
 5975WAT      O18166   0.507   8.830   9.229
 5975WAT     H118167   0.569   8.795   9.159
 5975WAT     H218168   0.553   8.826   9.318
 5976WAT      O18169   0.659   0.405   6.211
 5976WAT     H118170   0.608   0.486   6.183
 5976WAT     H218171   0.693   0.357   6.130
 5977WAT      O18172   7.446   5.699   1.390
 5977WAT     H118173   7.509   5.756   1.337
 5977WAT     H218174   7.470   5.603   1.379
 5978WAT      O18175   9.578   6.318   9.012
 5978WAT     H118176   9.603   6.320   9.108
 5978WAT     H218177   9.493   6.266   9.000
 5979WAT      O18178   7.665   8.588   3.113
 5979WAT     H118179   7.639   8.671   3.064
 5979WAT     H218180   7.610   8.579   3.196
 5980WAT      O18181   9.828   5.206   5.772
 5980WAT     H118182   9.891   5.144   5.726
 5980WAT     H218183   9.757   5.235   5.707
 5981WAT      O18184   9.507   1.510   1.094
 5981WAT     H118185   9.515   1.456   1.178
 5981WAT     H218186   9.581   1.486   1.032
 5982WAT      O18187   0.347   4.285   8.440
 5982WAT     H118188   0.301   4.363   8.397
 5982WAT     H218189   0.424   4.318   8.495
 5983WAT      O18190   4.585   1.278   7.369
 5983WAT     H118191   4.643   1.308   7.446
 5983WAT     H218192   4.638   1.283   7.284
 5984WAT      O18193   4.150   8.985   8.645
 5984WAT     H118194   4.159   8.968   8.743
 5984WAT     H218195   4.096   8.912   8.604
 5985WAT      O18196   5.659   9.770   8.515
 5985WAT     H118197   5.687   9.782   8.420
 5985WAT     H218198   5.738   9.786   8.575
 5986WAT      O18199   7.454   2.812   3.471
 5986WAT     H118200   7.500   2.770   3.550
 5986WAT     H218201   7.522   2.837   3.402
 5987WAT      O18202   4.957   9.112   0.518
 5987WAT     H118203   4.927   9.166   0.440
 5987WAT     H218204   4.877   9.075   0.565
 5988WAT      O18205   5.884   2.302   6.089
 5988WAT     H118206   5.973   2.265   6.059
 5988WAT     H218207   5.881   2.400   6.070
 5989WAT      O18208   8.658   3.071   8.256
 5989WAT     H118209   8.679   3.167   8.236
 5989WAT     H218210   8.559   3.061   8.269
 5990WAT      O18211   7.394   4.381   3.849
 5990WAT     H118212   7.422   4.460   3.794
 5990WAT     H218213   7.326   4.328   3.798
 5991WAT      O18214   6.626   6.443   1.244
 5991WAT     H118215   6.682   6.506   1.299
 5991WAT     H218216   6.552   6.406   1.301
 5992WAT      O18217   8.622   4.258   2.327
 5992WAT     H118218   8.609   4.160   2.345
 5992WAT     H218219   8.562   4.286   2.252
 5993WAT      O18220   6.161   2.549   8.677
 5993WAT     H118221   6.186   2.613   8.603
 5993WAT     H218222   6.091   2.486   8.644
 5994WAT      O18223   1.356   7.603   8.571
 5994WAT     H118224   1.286   7.675   8.568
 5994WAT     H218225   1.437   7.633   8.521
 5995WAT      O18226   5.414   2.443   5.239
 5995WAT     H118227   5.376   2.520   5.188
 5995WAT     H218228   5.512   2.457   5.251
 5996WAT      O18229   8.040   1.667   7.170
 5996WAT     H118230   7.981   1.730   7.220
 5996WAT     H218231   8.030   1.681   7.072
 5997WAT      O18232   3.337   3.952   3.259
 5997WAT     H118233   3.246   3.946   3.219
 5997WAT     H218234   3.406   3.936   3.188
 5998WAT      O18235   8.881   7.188   3.360
 5998WAT     H118236   8.882   7.098   3.404
 5998WAT     H218237   8.923   7.181   3.269
 5999WAT      O18238   4.415   5.832   2.942
 5999WAT     H118239   4.332   5.781   2.964
 5999WAT     H218240   4.480   5.822   3.017
 6000WAT      O18241   5.559   8.773   5.681
 6000WAT     H118242   5.537   8.864   5.646
 6000WAT     H218243   5.562   8.775   5.781
 6001WAT      O18244   1.474   0.472   2.781
 6001WAT     H118245   1.387   0.464   2.732
 6001WAT     H218246   1.457   0.476   2.879
 6002WAT      O18247   2.238   9.356   7.381
 6002WAT     H118248   2.188   9.294   7.320
 6002WAT     H218249   2.293   9.303   7.445
 6003WAT      O18250   2.361   1.348   6.139
 6003WAT     H118251   2.430   1.408   6.097
 6003WAT     H218252   2.398   1.309   6.223
 6004WAT      O18253   8.158   5.183   7.072
 6004WAT     H118254   8.185   5.226   7.158
 6004WAT     H218255   8.102   5.247   7.019
 6005WAT      O18256   6.445   0.037   2.579
 6005WAT     H118257   6.398   0.009   2.663
 6005WAT     H218258   6.526  -0.019   2.566
 6006WAT      O18259   6.053   3.012   7.947
 6006WAT     H118260   6.079   3.108   7.950
 6006WAT     H218261   6.119   2.958   8.000
 6007WAT      O18262   9.179   1.213   6.037
 6007WAT     H118263   9.238   1.266   6.098
 6007WAT     H218264   9.085   1.244   6.046
 6008WAT      O18265   9.650   2.713   2.152
 6008WAT     H118266   9.593   2.785   2.113
 6008WAT     H218267   9.746   2.741   2.150
 6009WAT      O18268   0.863   2.701   3.105
 6009WAT     H118269   0.931   2.761   3.063
 6009WAT     H218270   0.776   2.711   3.058
 6010WAT      O18271   8.735   8.523   0.554
 6010WAT     H118272   8.760   8.470   0.473
 6010WAT     H218273   8.800   8.504   0.628
 6011WAT      O18274   4.111   3.764   7.004
 6011WAT     H118275   4.095   3.666   7.017
 6011WAT     H218276   4.190   3.793   7.058
 6012WAT      O18277   5.307   3.237   8.144
 6012WAT     H118278   5.366   3.261   8.067
 6012WAT     H218279   5.338   3.150   8.184
 6013WAT      O18280   6.500   3.463   7.778
 6013WAT     H118281   6.465   3.537   7.835
 6013WAT     H218282   6.594   3.442   7.805
 6014WAT      O18283   7.382   8.642   5.740
 6014WAT     H118284   7.336   8.570   5.688
 6014WAT     H218285   7.315   8.691   5.795
 6015WAT      O18286   7.055   5.725   6.427
 6015WAT     H118287   7.021   5.631   6.425
 6015WAT     H218288   7.095   5.748   6.339
 6016WAT      O18289   2.937   1.348   7.433
 6016WAT     H118290   2.844   1.352   7.396
 6016WAT     H218291   2.996   1.301   7.367
 6017WAT      O18292   8.141   7.226   1.353
 6017WAT     H118293   8.103   7.291   1.287
 6017WAT     H218294   8.133   7.133   1.317
 6018WAT      O18295   3.142   8.106   1.649
 6018WAT     H118296   3.160   8.118   1.551
 6018WAT     H218297   3.194   8.174   1.701
 6019WAT      O18298   2.645   3.821   7.827
 6019WAT     H118299   2.735   3.850   7.859
 6019WAT     H218300   2.575   3.866   7.883
 6020WAT      O18301   6.909   3.814   2.676
 6020WAT     H118302   6.983   3.874   2.643
 6020WAT     H218303   6.922   3.796   2.773
 6021WAT      O18304   0.106   2.902   0.875
 6021WAT     H118305   0.119   2.972   0.945
 6021WAT     H218306   0.177   2.832   0.883
 6022WAT      O18307   6.647   1.336   4.951
 6022WAT     H118308   6.598   1.264   4.902
 6022WAT     H218309   6.642   1.421   4.899
 6023WAT      O18310   9.203   3.108   1.894
 6023WAT     H118311   9.259   3.037   1.851
 6023WAT     H218312   9.119   3.121   1.841
 6024WAT      O18313   4.985   7.499   3.851
 6024WAT     H118314   4.971   7.598   3.842
 6024WAT     H218315   4.921   7.452   3.790
 6025WAT      O18316   3.698   9.463   6.570
 6025WAT     H118317   3.758   9.383   6.570
 6025WAT     H218318   3.747   9.542   6.605
 6026WAT      O18319   3.051   9.113   6.970
 6026WAT     H118320   3.095   9.080   6.886
 6026WAT     H218321   2.959   9.076   6.975
 6027WAT      O18322   5.867   4.813   2.847
 6027WAT     H118323   5.908   4.905   2.847
 6027WAT     H218324   5.938   4.745   2.862
 6028WAT      O18325   6.863   0.793   9.006
 6028WAT     H118326   6.882   0.732   8.929
 6028WAT     H218327   6.784   0.759   9.057
 6029WAT      O18328   1.240   5.100   7.647
 6029WAT     H118329   1.313   5.041   7.614
 6029WAT     H218330   1.168   5.044   7.689
 6030WAT      O18331   7.436   2.250   0.131
 6030WAT     H118332   7.374   2.176   0.106
 6030WAT     H218333   7.432   2.323   0.063
 6031WAT      O18334   8.368   0.871   2.626
 6031WAT     H118335   8.354   0.899   2.531
 6031WAT     H218336   8.319   0.786   2.643
 6032WAT      O18337   3.457   2.729   2.096
 6032WAT     H118338   3.476   2.690   2.006
 6032WAT     H218339   3.544   2.749   2.141
 6033WAT      O18340   9.608   0.491   4.678
 6033WAT     H118341   9.669   0.412   4.685
 6033WAT     H218342   9.529   0.477   4.739
 6034WAT      O18343   2.594   9.089   4.300
 6034WAT     H118344   2.630   9.170   4.253
 6034WAT     H218345   2.497   9.077   4.277
 6035WAT      O18346   7.870   3.298   7.755
 6035WAT     H118347   7.968   3.303   7.736
 6035WAT     H218348   7.855   3.310   7.853
 6036WAT      O18349   2.598   3.855   8.183
 6036WAT     H118350   2.515   3.806   8.212
 6036WAT     H218351   2.572   3.938   8.134
 6037WAT      O18352   3.556   7.230   4.440
 6037WAT     H118353   3.534   7.167   4.514
 6037WAT     H218354   3.511   7.318   4.458
 6038WAT      O18355   4.409   7.145   1.535
 6038WAT     H118356   4.506   7.164   1.520
 6038WAT     H218357   4.389   7.150   1.633
 6039WAT      O18358   5.222   7.823   7.987
 6039WAT     H118359   5.128   7.835   8.021
 6039WAT     H218360   5.227   7.851   7.892
 6040WAT      O18361   2.022   7.135   0.623
 6040WAT     H118362   2.081   7.056   0.636
 6040WAT     H218363   2.074   7.219   0.637
 6041WAT      O18364   9.890   6.749   1.293
 6041WAT     H118365   9.916   6.660   1.256
 6041WAT     H218366   9.802   6.741   1.340
 6042WAT      O18367   7.566   1.805   4.095
 6042WAT     H118368   7.584   1.846   4.184
 6042WAT     H218369   7.576   1.706   4.101
 6043WAT      O18370   4.646   4.059   2.228
 6043WAT     H118371   4.651   4.108   2.142
 6043WAT     H218372   4.606   4.118   2.298
 6044WAT      O18373   5.961   5.596   1.783
 6044WAT     H118374   5.965   5.497   1.771
 6044WAT     H218375   5.871   5.622   1.817
 6045WAT      O18376   5.937   9.288   4.034
 6045WAT     H118377   6.003   9.357   4.065
 6045WAT     H218378   5.923   9.221   4.106
 6046WAT      O18379   7.889   4.192   6.592
 6046WAT     H118380   7.819   4.195   6.664
 6046WAT     H218381   7.980   4.204   6.634
 6047WAT      O18382   3.879   4.478   2.901
 6047WAT     H118383   3.857   4.572   2.878
 6047WAT     H218384   3.940   4.439   2.831
 6048WAT      O18385   5.858   1.857   3.641
 6048WAT     H118386   5.767   1.867   3.602
 6048WAT     H218387   5.918   1.928   3.605
 6049WAT      O18388   6.455   7.204   6.104
 6049WAT     H118389   6.483   7.124   6.156
 6049WAT     H218390   6.364   7.188   6.066
 6050WAT      O18391   6.731   2.750   0.829
 6050WAT     H118392   6.697   2.706   0.912
 6050WAT     H218393   6.757   2.844   0.850
 6051WAT      O18394   5.163   3.343   7.487
 6051WAT     H118395   5.195   3.389   7.404
 6051WAT     H218396   5.240   3.332   7.550
 6052WAT      O18397   7.761   4.959   4.485
 6052WAT     H118398   7.858   4.978   4.500
 6052WAT     H218399   7.708   4.990   4.564
 6053WAT      O18400   8.152   0.283   4.938
 6053WAT     H118401   8.072   0.298   4.881
 6053WAT     H218402   8.194   0.370   4.962
 6054WAT      O18403   9.247   8.760   6.308
 6054WAT     H118404   9.162   8.811   6.291
 6054WAT     H218405   9.262   8.695   6.234
 6055WAT      O18406   6.898   9.562   3.792
 6055WAT     H118407   6.985   9.534   3.753
 6055WAT     H218408   6.875   9.654   3.760
 6056WAT      O18409   3.620   0.734   7.299
 6056WAT     H118410   3.578   0.809   7.350
 6056WAT     H218411   3.720   0.746   7.299
 6057WAT      O18412   5.035   4.954   6.168
 6057WAT     H118413   5.120   4.987   6.128
 6057WAT     H218414   5.056   4.901   6.250
 6058WAT      O18415   4.229   5.365   2.122
 6058WAT     H118416   4.261   5.312   2.200
 6058WAT     H218417   4.289   5.444   2.108
 6059WAT      O18418   2.173   3.193   3.199
 6059WAT     H118419   2.217   3.110   3.166
 6059WAT     H218420   2.196   3.207   3.296
 6060WAT      O18421   2.056   8.478   4.589
 6060WAT     H118422   1.984   8.409   4.582
 6060WAT     H218423   2.125   8.462   4.518
 6061WAT      O18424   8.100   6.395   6.123
 6061WAT     H118425   8.081   6.459   6.049
 6061WAT     H218426   8.152   6.441   6.195
 6062WAT      O18427   0.330   8.929   4.230
 6062WAT     H118428   0.413   8.937   4.284
 6062WAT     H218429   0.344   8.863   4.156
 6063WAT      O18430   5.096   1.420   3.127
 6063WAT     H118431   5.052   1.424   3.216
 6063WAT     H218432   5.121   1.512   3.097
 6064WAT      O18433   1.417   9.345   2.718
 6064WAT     H118434   1.497   9.393   2.683
 6064WAT     H218435   1.375   9.293   2.644
 6065WAT      O18436   7.602   0.607   7.561
 6065WAT     H118437   7.566   0.667   7.490
 6065WAT     H218438   7.700   0.624   7.573
 6066WAT      O18439   4.887   4.321   7.094
 6066WAT     H118440   4.918   4.416   7.093
 6066WAT     H218441   4.849   4.297   7.005
 6067WAT      O18442   6.467   5.616   1.724
 6067WAT     H118443   6.415   5.640   1.806
 6067WAT     H218444   6.488   5.698   1.672
 6068WAT      O18445   7.141   4.369   1.105
 6068WAT     H118446   7.157   4.465   1.129
 6068WAT     H218447   7.194   4.345   1.023
 6069WAT      O18448   8.026   6.153   9.094
 6069WAT     H118449   8.049   6.248   9.071
 6069WAT     H218450   7.960   6.152   9.169
 6070WAT      O18451   3.518   3.431   0.257
 6070WAT     H118452   3.610   3.462   0.235
 6070WAT     H218453   3.518   3.332   0.270
 6071WAT      O18454   9.614   8.779   3.741
 6071WAT     H118455   9.555   8.719   3.796
 6071WAT     H218456   9.586   8.874   3.754
 6072WAT      O18457   7.037   7.049   6.174
 6072WAT     H118458   6.943   7.081   6.160
 6072WAT     H218459   7.069   7.076   6.265
 6073WAT      O18460   8.334   7.971   3.433
 6073WAT     H118461   8.373   7.882   3.459
 6073WAT     H218462   8.291   7.963   3.344
 6074WAT      O18463   0.269   2.896   9.136
 6074WAT     H118464   0.364   2.866   9.140
 6074WAT     H218465   0.260   2.971   9.071
 6075WAT      O18466   9.535   3.220   7.160
 6075WAT     H118467   9.497   3.311   7.175
 6075WAT     H218468   9.618   3.209   7.215
 6076WAT      O18469   2.280   5.322   3.325
 6076WAT     H118470   2.205   5.352   3.384
 6076WAT     H218471   2.360   5.380   3.341
 6077WAT      O18472   8.247   4.545   2.851
 6077WAT     H118473   8.222   4.632   2.894
 6077WAT     H218474   8.165   4.489   2.840
 6078WAT      O18475   4.818   4.749   1.368
 6078WAT     H118476   4.772   4.835   1.387
 6078WAT     H218477   4.757   4.673   1.392
 6079WAT      O18478   2.431   5.457   1.156
 6079WAT     H118479   2.464   5.412   1.239
 6079WAT     H218480   2.450   5.555   1.161
 6080WAT      O18481   0.964   0.797   3.832
 6080WAT     H118482   1.035   0.864   3.850
 6080WAT     H218483   0.902   0.832   3.762
 6081WAT      O18484   4.969   3.522   2.545
 6081WAT     H118485   4.944   3.432   2.581
 6081WAT     H218486   4.900   3.552   2.480
 6082WAT      O18487   6.853   2.742   4.916
 6082WAT     H118488   6.785   2.790   4.860
 6082WAT     H218489   6.865   2.650   4.880
 6083WAT      O18490   6.024   4.097   1.014
 6083WAT     H118491   6.003   4.000   1.024
 6083WAT     H218492   6.120   4.113   1.037
 6084WAT      O18493   3.696   5.795   8.165
 6084WAT     H118494   3.737   5.774   8.254
 6084WAT     H218495   3.722   5.888   8.139
 6085WAT      O18496   7.681   1.326   0.668
 6085WAT     H118497   7.692   1.230   0.694
 6085WAT     H218498   7.674   1.382   0.750
 6086WAT      O18499   0.440   0.306   6.407
 6086WAT     H118500   0.353   0.354   6.402
 6086WAT     H218501   0.476   0.292   6.315
 6087WAT      O18502   0.542   9.672   5.030
 6087WAT     H118503   0.460   9.697   5.082
 6087WAT     H218504   0.574   9.751   4.977
 6088WAT      O18505   3.390   1.776   3.256
 6088WAT     H118506   3.322   1.788   3.329
 6088WAT     H218507   3.347   1.729   3.178
 6089WAT      O18508   3.882   7.479   7.597
 6089WAT     H118509   3.958   7.538   7.571
 6089WAT     H218510   3.798   7.512   7.556
 6090WAT      O18511   0.139   9.230   3.726
 6090WAT     H118512   0.143   9.176   3.642
 6090WAT     H218513   0.229   9.272   3.742
 6091WAT      O18514   6.610   5.946   7.249
 6091WAT     H118515   6.602   5.992   7.160
 6091WAT     H218516   6.538   5.876   7.256
 6092WAT      O18517   0.323   1.516   8.443
 6092WAT     H118518   0.372   1.443   8.394
 6092WAT     H218519   0.310   1.488   8.538
 6093WAT      O18520   6.716   7.008   0.870
 6093WAT     H118521   6.678   6.943   0.804
 6093WAT     H218522   6.708   6.971   0.962
 6094WAT      O18523   3.752   1.644   6.484
 6094WAT     H118524   3.764   1.547   6.506
 6094WAT     H218525   3.659   1.673   6.509
 6095WAT      O18526   5.557   8.711   6.318
 6095WAT     H118527   5.640   8.765   6.331
 6095WAT     H218528   5.496   8.758   6.255
 6096WAT      O18529   7.213   2.838   7.248
 6096WAT     H118530   7.281   2.905   7.273
 6096WAT     H218531   7.256   2.748   7.240
 6097WAT      O18532   0.828   4.455   1.363
 6097WAT     H118533   0.749   4.410   1.321
 6097WAT     H218534   0.799   4.541   1.405
 6098WAT      O18535   8.693   4.285   7.271
 6098WAT     H118536   8.782   4.328   7.254
 6098WAT     H218537   8.705   4.209   7.335
 6099WAT      O18538   5.079   0.079   6.757
 6099WAT     H118539   5.098   0.154   6.694
 6099WAT     H218540   5.165   0.040   6.790
 6100WAT      O18541   9.833   6.245   7.723
 6100WAT     H118542   9.851   6.293   7.809
 6100WAT     H218543   9.907   6.180   7.705
 6101WAT      O18544   1.152   6.290   5.178
 6101WAT     H118545   1.097   6.224   5.230
 6101WAT     H218546   1.139   6.274   5.080
 6102WAT      O18547   0.498   7.223   4.235
 6102WAT     H118548   0.587   7.182   4.220
 6102WAT     H218549   0.509   7.307   4.290
 6103WAT      O18550   3.127   1.322   0.389
 6103WAT     H118551   3.173   1.291   0.306
 6103WAT     H218552   3.049   1.263   0.408
 6104WAT      O18553   1.024   6.351   9.407
 6104WAT     H118554   0.948   6.416   9.399
 6104WAT     H218555   0.997   6.264   9.367
 6105WAT      O18556   9.751   2.398   1.394
 6105WAT     H118557   9.847   2.424   1.401
 6105WAT     H218558   9.734   2.359   1.303
 6106WAT      O18559   2.154   4.050   9.835
 6106WAT     H118560   2.183   4.137   9.794
 6106WAT     H218561   2.227   3.982   9.824
 6107WAT      O18562   2.170   3.168   5.273
 6107WAT     H118563   2.075   3.149   5.248
 6107WAT     H218564   2.219   3.202   5.192
 6108WAT      O18565   6.167   8.658   6.775
 6108WAT     H118566   6.219   8.573   6.763
 6108WAT     H218567   6.230   8.736   6.774
 6109WAT      O18568   6.498   1.744   0.136
 6109WAT     H118569   6.571   1.743   0.068
 6109WAT     H218570   6.449   1.831   0.130
 6110WAT      O18571   3.930   1.865   2.440
 6110WAT     H118572   3.945   1.933   2.369
 6110WAT     H218573   3.845   1.885   2.488
 6111WAT      O18574   6.012   4.102   9.207
 6111WAT     H118575   6.039   4.198   9.212
 6111WAT     H218576   6.007   4.074   9.111
 6112WAT      O18577   3.323   0.205   1.484
 6112WAT     H118578   3.234   0.200   1.439
 6112WAT     H218579   3.378   0.125   1.458
 6113WAT      O18580   5.090   8.767   6.959
 6113WAT     H118581   5.077   8.833   6.884
 6113WAT     H218582   5.001   8.731   6.987
 6114WAT      O18583   2.607   2.659   5.825
 6114WAT     H118584   2.540   2.590   5.852
 6114WAT     H218585   2.677   2.667   5.896
 6115WAT      O18586   7.212   1.473   3.694
 6115WAT     H118587   7.135   1.421   3.657
 6115WAT     H218588   7.288   1.473   3.629
 6116WAT      O18589   8.124   1.552   5.946
 6116WAT     H118590   8.204   1.599   5.909
 6116WAT     H218591   8.043   1.610   5.934
 6117WAT      O18592   2.839   1.420   1.647
 6117WAT     H118593   2.916   1.482   1.629
 6117WAT     H218594   2.866   1.327   1.624
 6118WAT      O18595   3.302   0.872   8.652
 6118WAT     H118596   3.390   0.848   8.695
 6118WAT     H218597   3.311   0.959   8.604
 6119WAT      O18598   6.794   7.573   9.566
 6119WAT     H118599   6.769   7.489   9.613
 6119WAT     H218600   6.878   7.610   9.605
 6120WAT      O18601   4.884   1.639   2.493
 6120WAT     H118602   4.806   1.590   2.455
 6120WAT     H218603   4.964   1.625   2.435
 6121WAT      O18604   8.088   2.437   6.250
 6121WAT     H118605   8.009   2.404   6.302
 6121WAT     H218606   8.087   2.537   6.248
 6122WAT      O18607   3.036   7.575   1.585
 6122WAT     H118608   3.069   7.669   1.592
 6122WAT     H218609   2.950   7.574   1.534
 6123WAT      O18610   7.889   3.628   3.636
 6123WAT     H118611   7.867   3.683   3.555
 6123WAT     H218612   7.806   3.581   3.667
 6124WAT      O18613   1.490   4.568   6.616
 6124WAT     H118614   1.491   4.517   6.702
 6124WAT     H218615   1.460   4.662   6.633
 6125WAT      O18616   8.452   6.384   2.697
 6125WAT     H118617   8.476   6.452   2.766
 6125WAT     H218618   8.520   6.385   2.624
 6126WAT      O18619   3.475   5.295   9.840
 6126WAT     H118620   3.413   5.217   9.832
 6126WAT     H218621   3.450   5.349   9.920
 6127WAT      O18622   4.048   0.921   2.942
 6127WAT     H118623   4.079   0.868   3.021
 6127WAT     H218624   3.992   0.998   2.974
 6128WAT      O18625   7.144   1.762   0.196
 6128WAT     H118626   7.179   1.674   0.227
 6128WAT     H218627   7.057   1.750   0.149
 6129WAT      O18628   7.611   8.031   6.681
 6129WAT     H118629   7.622   7.932   6.685
 6129WAT     H218630   7.566   8.056   6.595
 6130WAT      O18631   3.214   2.798   8.094
 6130WAT     H118632   3.234   2.710   8.052
 6130WAT     H218633   3.172   2.785   8.183
 6131WAT      O18634   7.278   6.150   0.570
 6131WAT     H118635   7.209   6.134   0.641
 6131WAT     H218636   7.309   6.063   0.533
 6132WAT      O18637   4.454   3.222   5.779
 6132WAT     H118638   4.360   3.189   5.772
 6132WAT     H218639   4.514   3.145   5.803
 6133WAT      O18640   3.786   6.911   1.785
 6133WAT     H118641   3.687   6.897   1.784
 6133WAT     H218642   3.807   7.003   1.820
 6134WAT      O18643   1.429   7.583   5.571
 6134WAT     H118644   1.352   7.631   5.530
 6134WAT     H218645   1.401   7.544   5.659
 6135WAT      O18646   8.617   7.682   0.976
 6135WAT     H118647   8.558   7.634   0.911
 6135WAT     H218648   8.573   7.767   1.005
 6136WAT      O18649   5.630   8.828   1.573
 6136WAT     H118650   5.571   8.758   1.613
 6136WAT     H218651   5.677   8.790   1.494
 6137WAT      O18652   4.057   0.661   6.616
 6137WAT     H118653   4.000   0.744   6.612
 6137WAT     H218654   4.150   0.686   6.643
 6138WAT      O18655   5.199   1.347   2.552
 6138WAT     H118656   5.169   1.388   2.638
 6138WAT     H218657   5.130   1.283   2.519
 6139WAT      O18658   9.748   8.115   3.513
 6139WAT     H118659   9.801   8.160   3.585
 6139WAT     H218660   9.809   8.089   3.439
 6140WAT      O18661   4.819   9.065   2.653
 6140WAT     H118662   4.887   9.138   2.663
 6140WAT     H218663   4.827   9.001   2.729
 6141WAT      O18664   5.008   5.092   3.900
 6141WAT     H118665   4.941   5.097   3.826
 6141WAT     H218666   5.083   5.032   3.873
 6142WAT      O18667   9.079   6.992   2.823
 6142WAT     H118668   9.109   6.914   2.877
 6142WAT     H218669   9.033   7.058   2.881
 6143WAT      O18670   2.409   8.309   6.123
 6143WAT     H118671   2.472   8.232   6.120
 6143WAT     H218672   2.391   8.335   6.218
 6144WAT      O18673   7.806   4.684   4.392
 6144WAT     H118674   7.783   4.676   4.295
 6144WAT     H218675   7.826   4.779   4.414
 6145WAT      O18676   9.586   2.374   4.455
 6145WAT     H118677   9.621   2.396   4.546
 6145WAT     H218678   9.506   2.431   4.435
 6146WAT      O18679   7.882   4.693   4.109
 6146WAT     H118680   7.929   4.725   4.027
 6146WAT     H218681   7.888   4.593   4.115
 6147WAT      O18682   6.539   6.613   6.020
 6147WAT     H118683   6.486   6.683   6.068
 6147WAT     H218684   6.489   6.583   5.939
 6148WAT      O18685   0.297   4.957   8.778
 6148WAT     H118686   0.242   4.971   8.860
 6148WAT     H218687   0.239   4.968   8.697
 6149WAT      O18688   3.406   3.370   3.183
 6149WAT     H118689   3.337   3.383   3.255
 6149WAT     H218690   3.440   3.276   3.187
 6150WAT      O18691   1.238   5.037   2.440
 6150WAT     H118692   1.180   5.118   2.427
 6150WAT     H218693   1.334   5.062   2.424
 6151WAT      O18694   5.452   9.791   4.100
 6151WAT     H118695   5.432   9.694   4.108
 6151WAT     H218696   5.536   9.812   4.150
 6152WAT      O18697   1.658   7.978   2.092
 6152WAT     H118698   1.701   7.888   2.086
 6152WAT     H218699   1.562   7.968   2.117
 6153WAT      O18700   3.342   7.093   7.579
 6153WAT     H118701   3.433   7.052   7.580
 6153WAT     H218702   3.326   7.140   7.665
 6154WAT      O18703   9.765   5.909   9.109
 6154WAT     H118704   9.808   5.855   9.037
 6154WAT     H218705   9.668   5.922   9.088
 6155WAT      O18706   0.080   2.133   5.374
 6155WAT     H118707  -0.004   2.080   5.364
 6155WAT     H218708   0.157   2.080   5.337
 6156WAT      O18709   2.707   6.496   5.920
 6156WAT     H118710   2.708   6.595   5.907
 6156WAT     H218711   2.642   6.455   5.856
 6157WAT      O18712   5.483   8.598   1.636
 6157WAT     H118713   5.438   8.584   1.548
 6157WAT     H218714   5.414   8.594   1.709
 6158WAT      O18715   1.026   3.632   4.424
 6158WAT     H118716   1.103   3.687   4.456
 6158WAT     H218717   0.951   3.638   4.490
 6159WAT      O18718   1.351   1.992   4.754
 6159WAT     H118719   1.317   2.040   4.835
 6159WAT     H218720   1.367   2.058   4.681
 6160WAT      O18721   9.050   1.546   3.600
 6160WAT     H118722   9.001   1.460   3.586
 6160WAT     H218723   9.147   1.532   3.583
 6161WAT      O18724   4.522   2.131   3.436
 6161WAT     H118725   4.553   2.089   3.350
 6161WAT     H218726   4.429   2.100   3.456
 6162WAT      O18727   6.987   3.407   1.469
 6162WAT     H118728   6.956   3.458   1.549
 6162WAT     H218729   7.076   3.367   1.487
 6163WAT      O18730   1.113   8.969   2.415
 6163WAT     H118731   1.091   8.892   2.355
 6163WAT     H218732   1.029   9.003   2.458
 6164WAT      O18733   0.934   6.840   1.640
 6164WAT     H118734   0.859   6.791   1.596
 6164WAT     H218735   0.991   6.775   1.691
 6165WAT      O18736   1.686   6.416   2.027
 6165WAT     H118737   1.605   6.472   2.044
 6165WAT     H218738   1.657   6.325   1.996
 6166WAT      O18739   4.855   3.641   0.071
 6166WAT     H118740   4.895   3.665  -0.017
 6166WAT     H218741   4.802   3.718   0.106
 6167WAT      O18742   3.936   8.760   5.861
 6167WAT     H118743   4.031   8.777   5.837
 6167WAT     H218744   3.925   8.663   5.884
 6168WAT      O18745   3.120   8.692   6.546
 6168WAT     H118746   3.199   8.750   6.562
 6168WAT     H218747   3.122   8.614   6.608
 6169WAT      O18748   9.014   6.622   3.769
 6169WAT     H118749   8.922   6.661   3.781
 6169WAT     H218750   9.023   6.585   3.677
 6170WAT      O18751   5.460   4.309   9.554
 6170WAT     H118752   5.419   4.293   9.644
 6170WAT     H218753   5.426   4.241   9.489
 6171WAT      O18754   2.241   7.339   1.509
 6171WAT     H118755   2.228   7.370   1.603
 6171WAT     H218756   2.238   7.239   1.505
 6172WAT      O18757   7.321   3.587   7.955
 6172WAT     H118758   7.350   3.632   7.871
 6172WAT     H218759   7.400   3.548   8.001
 6173WAT      O18760   4.143   4.192   0.177
 6173WAT     H118761   4.178   4.223   0.265
 6173WAT     H218762   4.141   4.269   0.113
 6174WAT      O18763   0.163   8.069   1.226
 6174WAT     H118764   0.183   8.101   1.133
 6174WAT     H218765   0.173   8.144   1.290
 6175WAT      O18766   1.026   6.283   4.911
 6175WAT     H118767   0.967   6.203   4.928
 6175WAT     H218768   0.970   6.358   4.876
 6176WAT      O18769   5.842   0.833   3.196
 6176WAT     H118770   5.764   0.886   3.232
 6176WAT     H218771   5.812   0.779   3.118
 6177WAT      O18772   8.105   6.256   6.747
 6177WAT     H118773   8.019   6.300   6.770
 6177WAT     H218774   8.095   6.205   6.661
 6178WAT      O18775   1.938   8.934   5.029
 6178WAT     H118776   1.946   8.969   4.935
 6178WAT     H218777   1.914   9.009   5.090
 6179WAT      O18778   7.196   8.034   8.344
 6179WAT     H118779   7.187   8.132   8.330
 6179WAT     H218780   7.220   8.016   8.439
 6180WAT      O18781   1.897   9.154   7.034
 6180WAT     H118782   1.851   9.175   6.948
 6180WAT     H218783   1.941   9.064   7.027
 6181WAT      O18784   9.676   6.914   2.130
 6181WAT     H118785   9.746   6.862   2.081
 6181WAT     H218786   9.670   6.881   2.224
 6182WAT      O18787   3.303   1.203   0.860
 6182WAT     H118788   3.403   1.195   0.869
 6182WAT     H218789   3.277   1.300   0.859
 6183WAT      O18790   9.475   4.114   4.930
 6183WAT     H118791   9.397   4.168   4.962
 6183WAT     H218792   9.547   4.175   4.898
 6184WAT      O18793   5.394   8.320   9.636
 6184WAT     H118794   5.341   8.238   9.657
 6184WAT     H218795   5.429   8.359   9.721
 6185WAT      O18796   4.904   5.909   6.443
 6185WAT     H118797   4.869   5.886   6.353
 6185WAT     H218798   4.989   5.961   6.434
 6186WAT      O18799   6.370   1.925   1.837
 6186WAT     H118800   6.396   1.994   1.769
 6186WAT     H218801   6.442   1.856   1.844
 6187WAT      O18802   3.704   4.238   9.597
 6187WAT     H118803   3.799   4.216   9.620
 6187WAT     H218804   3.672   4.174   9.528
 6188WAT      O18805   5.969   9.229   8.054
 6188WAT     H118806   6.030   9.270   8.121
 6188WAT     H218807   5.879   9.215   8.095
 6189WAT      O18808   0.436   2.487   4.521
 6189WAT     H118809   0.427   2.399   4.567
 6189WAT     H218810   0.368   2.493   4.448
 6190WAT      O18811   5.678   3.258   9.854
 6190WAT     H118812   5.605   3.196   9.886
 6190WAT     H218813   5.637   3.343   9.823
 6191WAT      O18814   2.640   5.976   4.610
 6191WAT     H118815   2.650   6.074   4.626
 6191WAT     H218816   2.607   5.931   4.693
 6192WAT      O18817   1.072   5.063   4.933
 6192WAT     H118818   1.123   4.980   4.909
 6192WAT     H218819   1.113   5.142   4.889
 6193WAT      O18820   5.366   5.296   0.152
 6193WAT     H118821   5.334   5.379   0.198
 6193WAT     H218822   5.441   5.256   0.205
 6194WAT      O18823   4.155   2.870   5.880
 6194WAT     H118824   4.096   2.808   5.933
 6194WAT     H218825   4.168   2.833   5.788
 6195WAT      O18826   1.319   7.633   4.486
 6195WAT     H118827   1.413   7.600   4.480
 6195WAT     H218828   1.317   7.731   4.465
 6196WAT      O18829   9.627   6.327   9.344
 6196WAT     H118830   9.596   6.232   9.345
 6196WAT     H218831   9.578   6.379   9.414
 6197WAT      O18832   9.589   7.236   1.575
 6197WAT     H118833   9.561   7.243   1.479
 6197WAT     H218834   9.586   7.141   1.604
 6198WAT      O18835   2.478   3.016   2.483
 6198WAT     H118836   2.426   3.024   2.398
 6198WAT     H218837   2.575   3.032   2.465
 6199WAT      O18838   2.128   1.871   2.042
 6199WAT     H118839   2.188   1.909   1.973
 6199WAT     H218840   2.107   1.775   2.019
 6200WAT      O18841   7.076   4.937   4.203
 6200WAT     H118842   7.120   5.024   4.223
 6200WAT     H218843   7.119   4.864   4.256
 6201WAT      O18844   3.239   7.055   8.400
 6201WAT     H118845   3.176   7.119   8.356
 6201WAT     H218846   3.311   7.105   8.447
 6202WAT      O18847   3.066   7.160   3.608
 6202WAT     H118848   3.022   7.098   3.673
 6202WAT     H218849   3.144   7.205   3.652
 6203WAT      O18850   5.817   2.817   2.963
 6203WAT     H118851   5.765   2.831   3.047
 6203WAT     H218852   5.881   2.894   2.950
 6204WAT      O18853   8.927   0.120   2.609
 6204WAT     H118854   8.977   0.205   2.627
 6204WAT     H218855   8.977   0.066   2.542
 6205WAT      O18856   7.234   2.349   1.471
 6205WAT     H118857   7.158   2.374   1.411
 6205WAT     H218858   7.207   2.275   1.531
 6206WAT      O18859   6.167   1.909   5.095
 6206WAT     H118860   6.094   1.846   5.068
 6206WAT     H218861   6.127   1.988   5.142
 6207WAT      O18862   7.989   4.441   5.510
 6207WAT     H118863   7.991   4.468   5.606
 6207WAT     H218864   8.046   4.503   5.456
 6208WAT      O18865   2.923   6.141   1.536
 6208WAT     H118866   2.928   6.225   1.590
 6208WAT     H218867   3.005   6.087   1.552
 6209WAT      O18868   5.745   1.785   3.909
 6209WAT     H118869   5.769   1.820   3.819
 6209WAT     H218870   5.782   1.845   3.980
 6210WAT      O18871   6.403   2.895   4.524
 6210WAT     H118872   6.344   2.840   4.582
 6210WAT     H218873   6.375   2.991   4.529
 6211WAT      O18874   3.490   8.152   5.561
 6211WAT     H118875   3.426   8.135   5.486
 6211WAT     H218876   3.505   8.250   5.571
 6212WAT      O18877   2.603   8.937   7.693
 6212WAT     H118878   2.515   8.956   7.739
 6212WAT     H218879   2.629   9.017   7.638
 6213WAT      O18880   9.769   1.010   9.560
 6213WAT     H118881   9.736   0.917   9.579
 6213WAT     H218882   9.865   1.017   9.589
 6214WAT      O18883   9.770   6.739   3.864
 6214WAT     H118884   9.785   6.746   3.765
 6214WAT     H218885   9.824   6.663   3.900
 6215WAT      O18886   2.216   7.050   2.513
 6215WAT     H118887   2.149   6.983   2.545
 6215WAT     H218888   2.169   7.122   2.462
 6216WAT      O18889   7.030   4.486   0.247
 6216WAT     H118890   7.027   4.567   0.306
 6216WAT     H218891   6.992   4.408   0.297
 6217WAT      O18892   9.227   5.899   8.960
 6217WAT     H118893   9.171   5.940   8.888
 6217WAT     H218894   9.175   5.829   9.008
 6218WAT      O18895   3.296   2.685   1.199
 6218WAT     H118896   3.221   2.751   1.205
 6218WAT     H218897   3.338   2.672   1.288
 6219WAT      O18898   6.798   2.686   6.389
 6219WAT     H118899   6.789   2.603   6.444
 6219WAT     H218900   6.840   2.758   6.443
 6220WAT      O18901   2.307   2.293   2.285
 6220WAT     H118902   2.294   2.339   2.373
 6220WAT     H218903   2.219   2.258   2.253
 6221WAT      O18904   8.782   5.063   7.926
 6221WAT     H118905   8.752   5.148   7.968
 6221WAT     H218906   8.716   4.990   7.948
 6222WAT      O18907   3.666   7.764   7.251
 6222WAT     H118908   3.755   7.802   7.227
 6222WAT     H218909   3.623   7.725   7.170
 6223WAT      O18910   3.608   6.233   5.499
 6223WAT     H118911   3.582   6.329   5.485
 6223WAT     H218912   3.660   6.225   5.584
 6224WAT      O18913   4.572   3.386   4.989
 6224WAT     H118914   4.589   3.467   5.045
 6224WAT     H218915   4.629   3.310   5.022
 6225WAT      O18916   4.280   6.882   3.083
 6225WAT     H118917   4.219   6.833   3.145
 6225WAT     H218918   4.341   6.817   3.038
 6226WAT      O18919   8.022   9.458   7.311
 6226WAT     H118920   8.104   9.409   7.281
 6226WAT     H218921   7.955   9.392   7.347
 6227WAT      O18922   8.141   7.307   7.508
 6227WAT     H118923   8.149   7.304   7.408
 6227WAT     H218924   8.127   7.214   7.542
 6228WAT      O18925   4.218   3.341   0.696
 6228WAT     H118926   4.295   3.299   0.648
 6228WAT     H218927   4.132   3.306   0.659
 6229WAT      O18928   9.059   8.788   2.242
 6229WAT     H118929   9.115   8.870   2.252
 6229WAT     H218930   8.975   8.799   2.295
 6230WAT      O18931   9.853   6.767   3.621
 6230WAT     H118932   9.917   6.745   3.546
 6230WAT     H218933   9.810   6.855   3.602
 6231WAT      O18934   9.431   8.174   0.890
 6231WAT     H118935   9.484   8.249   0.850
 6231WAT     H218936   9.466   8.153   0.981
 6232WAT      O18937   0.378   1.445   6.673
 6232WAT     H118938   0.414   1.358   6.639
 6232WAT     H218939   0.310   1.428   6.745
 6233WAT      O18940   7.973   4.255   2.277
 6233WAT     H118941   7.996   4.332   2.219
 6233WAT     H218942   7.882   4.268   2.316
 6234WAT      O18943   4.551   4.654   8.530
 6234WAT     H118944   4.577   4.729   8.470
 6234WAT     H218945   4.453   4.636   8.522
 6235WAT      O18946   6.364   7.748   5.800
 6235WAT     H118947   6.421   7.709   5.872
 6235WAT     H218948   6.305   7.676   5.761
 6236WAT      O18949   2.446   1.511   4.565
 6236WAT     H118950   2.371   1.577   4.570
 6236WAT     H218951   2.417   1.431   4.512
 6237WAT      O18952   1.589   3.326   5.905
 6237WAT     H118953   1.523   3.357   5.837
 6237WAT     H218954   1.555   3.244   5.950
 6238WAT      O18955   0.947   9.334   4.304
 6238WAT     H118956   0.928   9.369   4.396
 6238WAT     H218957   1.025   9.383   4.265
 6239WAT      O18958   1.804   7.578   4.789
 6239WAT     H118959   1.793   7.496   4.732
 6239WAT     H218960   1.888   7.625   4.763
 6240WAT      O18961   9.572   3.058   8.740
 6240WAT     H118962   9.510   2.990   8.701
 6240WAT     H218963   9.592   3.128   8.671
 6241WAT      O18964   7.731   5.663   0.813
 6241WAT     H118965   7.819   5.640   0.855
 6241WAT     H218966   7.690   5.580   0.774
 6242WAT      O18967   5.788   3.213   4.396
 6242WAT     H118968   5.774   3.307   4.366
 6242WAT     H218969   5.799   3.153   4.317
 6243WAT      O18970   4.492   0.525   5.655
 6243WAT     H118971   4.577   0.510   5.704
 6243WAT     H218972   4.416   0.526   5.720
 6244WAT      O18973   1.261   3.871   8.292
 6244WAT     H118974   1.272   3.824   8.205
 6244WAT     H218975   1.346   3.918   8.316
 6245WAT      O18976   3.143   0.117   2.172
 6245WAT     H118977   3.154   0.024   2.206
 6245WAT     H218978   3.107   0.115   2.079
 6246WAT      O18979   7.285   0.985   5.096
 6246WAT     H118980   7.316   1.000   5.002
 6246WAT     H218981   7.188   1.009   5.104
 6247WAT      O18982   8.429   7.488   8.972
 6247WAT     H118983   8.454   7.439   9.055
 6247WAT     H218984   8.411   7.583   8.993
 6248WAT      O18985   9.499   3.883   8.106
 6248WAT     H118986   9.417   3.878   8.050
 6248WAT     H218987   9.579   3.893   8.047
 6249WAT      O18988   7.091   8.568   4.462
 6249WAT     H118989   7.066   8.650   4.513
 6249WAT     H218990   7.100   8.491   4.526
 6250WAT      O18991   4.847   7.245   0.414
 6250WAT     H118992   4.852   7.159   0.363
 6250WAT     H218993   4.813   7.227   0.506
 6251WAT      O18994   7.039   2.314   0.531
 6251WAT     H118995   7.045   2.398   0.478
 6251WAT     H218996   7.120   2.305   0.589
 6252WAT      O18997   5.228   6.416   6.364
 6252WAT     H118998   5.186   6.441   6.451
 6252WAT     H218999   5.310   6.470   6.349
 6253WAT      O19000   0.149   9.601   9.331
 6253WAT     H119001   0.137   9.610   9.232
 6253WAT     H219002   0.078   9.654   9.378
 6254WAT      O19003   0.791   0.273   0.162
 6254WAT     H119004   0.866   0.235   0.107
 6254WAT     H219005   0.797   0.237   0.255
 6255WAT      O19006   4.713   5.407   9.815
 6255WAT     H119007   4.781   5.383   9.746
 6255WAT     H219008   4.636   5.343   9.808
 6256WAT      O19009   6.819   8.942   9.732
 6256WAT     H119010   6.782   8.948   9.639
 6256WAT     H219011   6.866   9.027   9.755
 6257WAT      O19012   2.054   6.333   6.400
 6257WAT     H119013   2.070   6.430   6.419
 6257WAT     H219014   2.117   6.303   6.328
 6258WAT      O19015   9.241   8.047   9.244
 6258WAT     H119016   9.226   8.054   9.145
 6258WAT     H219017   9.337   8.066   9.264
 6259WAT      O19018   3.059   1.585   2.255
 6259WAT     H119019   3.016   1.659   2.306
 6259WAT     H219020   3.003   1.502   2.263
 6260WAT      O19021   1.476   6.364   3.873
 6260WAT     H119022   1.483   6.399   3.966
 6260WAT     H219023   1.447   6.268   3.876
 6261WAT      O19024   2.838   9.450   8.252
 6261WAT     H119025   2.836   9.522   8.182
 6261WAT     H219026   2.757   9.458   8.310
 6262WAT      O19027   0.485   5.385   0.802
 6262WAT     H119028   0.499   5.299   0.753
 6262WAT     H219029   0.400   5.428   0.771
 6263WAT      O19030   8.191   7.520   8.747
 6263WAT     H119031   8.252   7.569   8.810
 6263WAT     H219032   8.200   7.560   8.655
 6264WAT      O19033   7.708   5.669   0.326
 6264WAT     H119034   7.763   5.596   0.368
 6264WAT     H219035   7.694   5.742   0.392
 6265WAT      O19036   6.574   7.282   7.244
 6265WAT     H119037   6.488   7.287   7.193
 6265WAT     H219038   6.635   7.355   7.213
 6266WAT      O19039   0.635   7.474   2.391
 6266WAT     H119040   0.619   7.572   2.406
 6266WAT     H219041   0.611   7.423   2.473
 6267WAT      O19042   4.278   7.323   2.055
 6267WAT     H119043   4.288   7.238   2.106
 6267WAT     H219044   4.196   7.319   1.998
 6268WAT      O19045   8.422   3.091   8.364
 6268WAT     H119046   8.399   3.182   8.400
 6268WAT     H219047   8.352   3.063   8.298
 6269WAT      O19048   7.679   4.608   4.605
 6269WAT     H119049   7.722   4.637   4.519
 6269WAT     H219050   7.583   4.587   4.589
 6270WAT      O19051   8.132   6.605   5.369
 6270WAT     H119052   8.137   6.517   5.322
 6270WAT     H219053   8.159   6.678   5.307
 6271WAT      O19054   3.954   6.824   2.290
 6271WAT     H119055   3.887   6.866   2.352
 6271WAT     H219056   3.938   6.856   2.197
 6272WAT      O19057   8.052   0.360   7.013
 6272WAT     H119058   8.138   0.327   6.974
 6272WAT     H219059   7.996   0.282   7.041
 6273WAT      O19060   8.423   8.882   7.948
 6273WAT     H119061   8.400   8.980   7.954
 6273WAT     H219062   8.429   8.844   8.040
 6274WAT      O19063   8.285   7.528   5.264
 6274WAT     H119064   8.269   7.627   5.271
 6274WAT     H219065   8.360   7.511   5.200
 6275WAT      O19066   9.515   6.584   3.980
 6275WAT     H119067   9.590   6.634   3.936
 6275WAT     H219068   9.428   6.627   3.958
 6276WAT      O19069   4.314   4.314   6.765
 6276WAT     H119070   4.371   4.395   6.749
 6276WAT     H219071   4.365   4.232   6.740
 6277WAT      O19072   7.000   9.510   1.585
 6277WAT     H119073   6.975   9.602   1.615
 6277WAT     H219074   6.932   9.477   1.520
 6278WAT      O19075   8.670   5.269   8.050
 6278WAT     H119076   8.757   5.262   8.099
 6278WAT     H219077   8.659   5.361   8.014
 6279WAT      O19078   2.338   5.183   6.494
 6279WAT     H119079   2.256   5.230   6.462
 6279WAT     H219080   2.419   5.235   6.467
 6280WAT      O19081   2.781   3.473   1.079
 6280WAT     H119082   2.877   3.456   1.061
 6280WAT     H219083   2.728   3.462   0.994
 6281WAT      O19084   0.298   4.020   0.562
 6281WAT     H119085   0.383   3.986   0.522
 6281WAT     H219086   0.222   3.961   0.537
 6282WAT      O19087   3.616   3.366   4.744
 6282WAT     H119088   3.665   3.402   4.823
 6282WAT     H219089   3.523   3.341   4.771
 6283WAT      O19090   3.483   9.640   8.304
 6283WAT     H119091   3.430   9.673   8.382
 6283WAT     H219092   3.511   9.546   8.321
 6284WAT      O19093   5.865   0.805   7.978
 6284WAT     H119094   5.950   0.770   7.939
 6284WAT     H219095   5.790   0.744   7.954
 6285WAT      O19096   5.592   1.754   0.997
 6285WAT     H119097   5.513   1.718   1.047
 6285WAT     H219098   5.666   1.772   1.061
 6286WAT      O19099   7.890   2.229   1.930
 6286WAT     H119100   7.908   2.320   1.893
 6286WAT     H219101   7.936   2.161   1.874
 6287WAT      O19102   5.943   6.369   6.587
 6287WAT     H119103   5.978   6.331   6.672
 6287WAT     H219104   5.993   6.329   6.510
 6288WAT      O19105   0.750   0.827   4.105
 6288WAT     H119106   0.818   0.863   4.041
 6288WAT     H219107   0.769   0.863   4.196
 6289WAT      O19108   6.279   8.350   8.863
 6289WAT     H119109   6.283   8.448   8.885
 6289WAT     H219110   6.217   8.337   8.785
 6290WAT      O19111   1.514   5.036   4.616
 6290WAT     H119112   1.555   4.991   4.537
 6290WAT     H219113   1.414   5.040   4.605
 6291WAT      O19114   2.212   5.935   0.229
 6291WAT     H119115   2.250   5.991   0.302
 6291WAT     H219116   2.269   5.941   0.148
 6292WAT      O19117   5.635   2.819   6.278
 6292WAT     H119118   5.598   2.738   6.232
 6292WAT     H219119   5.584   2.835   6.363
 6293WAT      O19120   3.119   2.725   8.364
 6293WAT     H119121   3.145   2.636   8.402
 6293WAT     H219122   3.034   2.757   8.407
 6294WAT      O19123   8.098   0.015   0.902
 6294WAT     H119124   8.170  -0.012   0.965
 6294WAT     H219125   8.093  -0.049   0.826
 6295WAT      O19126   2.267   5.203   6.070
 6295WAT     H119127   2.249   5.289   6.118
 6295WAT     H219128   2.293   5.222   5.976
 6296WAT      O19129   4.636   5.637   4.767
 6296WAT     H119130   4.620   5.690   4.683
 6296WAT     H219131   4.646   5.541   4.743
 6297WAT      O19132   8.554   2.940   6.738
 6297WAT     H119133   8.536   2.862   6.798
 6297WAT     H219134   8.563   3.023   6.793
 6298WAT      O19135   8.900   5.659   8.995
 6298WAT     H119136   8.937   5.678   8.904
 6298WAT     H219137   8.972   5.671   9.064
 6299WAT      O19138   9.611   6.626   5.535
 6299WAT     H119139   9.676   6.572   5.482
 6299WAT     H219140   9.660   6.675   5.607
 6300WAT      O19141   8.916   9.169   9.664
 6300WAT     H119142   8.981   9.094   9.651
 6300WAT     H219143   8.921   9.231   9.587
 6301WAT      O19144   6.831   6.947   7.820
 6301WAT     H119145   6.759   7.015   7.806
 6301WAT     H219146   6.801   6.860   7.780
 6302WAT      O19147   9.551   0.516   4.418
 6302WAT     H119148   9.561   0.500   4.516
 6302WAT     H219149   9.554   0.428   4.369
 6303WAT      O19150   0.421   8.515   8.400
 6303WAT     H119151   0.486   8.536   8.474
 6303WAT     H219152   0.431   8.419   8.374
 6304WAT      O19153   9.631   7.658   9.533
 6304WAT     H119154   9.708   7.605   9.568
 6304WAT     H219155   9.664   7.727   9.469
 6305WAT      O19156   8.601   6.931   0.026
 6305WAT     H119157   8.675   6.998   0.021
 6305WAT     H219158   8.609   6.868  -0.051
 6306WAT      O19159   3.071   0.609   0.038
 6306WAT     H119160   3.132   0.560   0.101
 6306WAT     H219161   3.120   0.686  -0.003
 6307WAT      O19162   2.498   7.274   7.205
 6307WAT     H119163   2.416   7.315   7.164
 6307WAT     H219164   2.520   7.189   7.157
 6308WAT      O19165   8.510   1.912   1.191
 6308WAT     H119166   8.548   1.829   1.149
 6308WAT     H219167   8.410   1.913   1.178
 6309WAT      O19168   7.619   9.292   7.210
 6309WAT     H119169   7.579   9.379   7.239
 6309WAT     H219170   7.614   9.227   7.286
 6310WAT      O19171   7.600   1.697   2.380
 6310WAT     H119172   7.618   1.646   2.464
 6310WAT     H219173   7.667   1.772   2.372
 6311WAT      O19174   1.460   6.999   1.199
 6311WAT     H119175   1.486   6.937   1.273
 6311WAT     H219176   1.385   6.959   1.147
 6312WAT      O19177   5.257   8.741   8.258
 6312WAT     H119178   5.293   8.834   8.259
 6312WAT     H219179   5.333   8.677   8.245
 6313WAT      O19180   1.072   1.983   7.542
 6313WAT     H119181   1.093   1.890   7.574
 6313WAT     H219182   1.043   1.979   7.446
 6314WAT      O19183   2.075   4.010   9.281
 6314WAT     H119184   2.015   4.085   9.254
 6314WAT     H219185   2.026   3.923   9.275
 6315WAT      O19186   2.181   1.937   0.257
 6315WAT     H119187   2.219   2.012   0.311
 6315WAT     H219188   2.140   1.973   0.174
 6316WAT      O19189   0.991   5.837   6.059
 6316WAT     H119190   0.952   5.871   6.145
 6316WAT     H219191   0.918   5.822   5.993
 6317WAT      O19192   0.094   0.334   2.391
 6317WAT     H119193   0.014   0.317   2.334
 6317WAT     H219194   0.094   0.429   2.421
 6318WAT      O19195   2.732   9.299   3.478
 6318WAT     H119196   2.744   9.322   3.574
 6318WAT     H219197   2.794   9.223   3.454
 6319WAT      O19198   9.671   9.646   6.837
 6319WAT     H119199   9.769   9.630   6.839
 6319WAT     H219200   9.636   9.654   6.931
 6320WAT      O19201   4.952   4.378   3.067
 6320WAT     H119202   4.890   4.353   3.141
 6320WAT     H219203   4.998   4.296   3.033
 6321WAT      O19204   4.910   3.065   9.592
 6321WAT     H119205   4.917   3.047   9.690
 6321WAT     H219206   4.906   2.978   9.543
 6322WAT      O19207   7.123   1.185   0.261
 6322WAT     H119208   7.113   1.268   0.315
 6322WAT     H219209   7.072   1.194   0.176
 6323WAT      O19210   3.246   0.132   9.122
 6323WAT     H119211   3.293   0.217   9.143
 6323WAT     H219212   3.186   0.145   9.043
 6324WAT      O19213   0.768  -0.002   7.316
 6324WAT     H119214   0.676   0.023   7.347
 6324WAT     H219215   0.778   0.021   7.219
 6325WAT      O19216   2.523   9.174   0.949
 6325WAT     H119217   2.550   9.269   0.966
 6325WAT     H219218   2.492   9.165   0.854
 6326WAT      O19219   2.344   9.443   4.454
 6326WAT     H119220   2.315   9.383   4.379
 6326WAT     H219221   2.265   9.471   4.507
 6327WAT      O19222   7.958   1.595   7.709
 6327WAT     H119223   7.910   1.524   7.657
 6327WAT     H219224   8.055   1.572   7.715
 6328WAT      O19225   5.840   4.794   2.544
 6328WAT     H119226   5.890   4.792   2.631
 6328WAT     H219227   5.862   4.712   2.491
 6329WAT      O19228   4.313   1.463   9.300
 6329WAT     H119229   4.284   1.367   9.307
 6329WAT     H219230   4.396   1.477   9.354
 6330WAT      O19231   7.059   3.121   6.711
 6330WAT     H119232   7.019   3.066   6.784
 6330WAT     H219233   7.158   3.110   6.711
 6331WAT      O19234   8.063   7.479   4.554
 6331WAT     H119235   8.148   7.427   4.548
 6331WAT     H219236   8.083   7.573   4.581
 6332WAT      O19237   1.394   7.139   6.677
 6332WAT     H119238   1.319   7.179   6.625
 6332WAT     H219239   1.365   7.124   6.771
 6333WAT      O19240   1.030   1.589   8.351
 6333WAT     H119241   0.944   1.640   8.341
 6333WAT     H219242   1.031   1.515   8.284
 6334WAT      O19243   2.665   3.441   7.822
 6334WAT     H119244   2.576   3.446   7.777
 6334WAT     H219245   2.653   3.447   7.921
 6335WAT      O19246   3.411   1.541   2.786
 6335WAT     H119247   3.376   1.588   2.867
 6335WAT     H219248   3.410   1.603   2.708
 6336WAT      O19249   8.274   2.390   0.865
 6336WAT     H119250   8.214   2.367   0.789
 6336WAT     H219251   8.368   2.365   0.842
 6337WAT      O19252   4.720   8.876   4.009
 6337WAT     H119253   4.704   8.794   4.065
 6337WAT     H219254   4.786   8.855   3.937
 6338WAT      O19255   8.651   7.473   7.244
 6338WAT     H119256   8.581   7.533   7.281
 6338WAT     H219257   8.626   7.445   7.151
 6339WAT      O19258   5.712   1.275   2.507
 6339WAT     H119259   5.746   1.181   2.494
 6339WAT     H219260   5.614   1.277   2.492
 6340WAT      O19261   6.555   1.032   7.430
 6340WAT     H119262   6.566   0.937   7.402
 6340WAT     H219263   6.617   1.052   7.506
 6341WAT      O19264   4.370   4.850   7.547
 6341WAT     H119265   4.368   4.853   7.647
 6341WAT     H219266   4.294   4.793   7.514
 6342WAT      O19267   3.775   2.049   9.678
 6342WAT     H119268   3.729   2.018   9.594
 6342WAT     H219269   3.814   2.140   9.664
 6343WAT      O19270   4.929   1.013   4.943
 6343WAT     H119271   4.912   0.956   5.023
 6343WAT     H219272   4.844   1.027   4.894
 6344WAT      O19273   4.813   1.762   4.629
 6344WAT     H119274   4.810   1.860   4.649
 6344WAT     H219275   4.771   1.746   4.539
 6345WAT      O19276   6.442   4.449   0.170
 6345WAT     H119277   6.428   4.535   0.218
 6345WAT     H219278   6.524   4.457   0.112
 6346WAT      O19279   2.033   3.238   9.199
 6346WAT     H119280   2.091   3.220   9.279
 6346WAT     H219281   1.959   3.300   9.224
 6347WAT      O19282   4.342   7.996   5.219
 6347WAT     H119283   4.423   8.013   5.163
 6347WAT     H219284   4.322   7.898   5.220
 6348WAT      O19285   5.876   7.683   8.006
 6348WAT     H119286   5.829   7.771   8.002
 6348WAT     H219287   5.829   7.623   8.070
 6349WAT      O19288   1.612   2.830   4.639
 6349WAT     H119289   1.672   2.762   4.680
 6349WAT     H219290   1.549   2.866   4.708
 6350WAT      O19291   5.560   9.058   3.680
 6350WAT     H119292   5.589   9.041   3.774
 6350WAT     H219293   5.635   9.036   3.618
 6351WAT      O19294   1.158   2.130   1.040
 6351WAT     H119295   1.127   2.224   1.027
 6351WAT     H219296   1.083   2.074   1.075
 6352WAT      O19297   7.322   4.236   2.266
 6352WAT     H119298   7.302   4.332   2.283
 6352WAT     H219299   7.328   4.188   2.354
 6353WAT      O19300   0.644   4.460   9.764
 6353WAT     H119301   0.735   4.425   9.786
 6353WAT     H219302   0.606   4.407   9.688
 6354WAT      O19303   2.466   0.181   7.959
 6354WAT     H119304   2.384   0.141   7.919
 6354WAT     H219305   2.504   0.249   7.896
 6355WAT      O19306   1.574   1.521   3.551
 6355WAT     H119307   1.577   1.527   3.451
 6355WAT     H219308   1.507   1.452   3.578
 6356WAT      O19309   8.492   0.771   2.341
 6356WAT     H119310   8.584   0.804   2.358
 6356WAT     H219311   8.496   0.685   2.290
 6357WAT      O19312   1.751   1.712   5.292
 6357WAT     H119313   1.745   1.612   5.288
 6357WAT     H219314   1.686   1.752   5.228
 6358WAT      O19315   3.545   4.450   3.837
 6358WAT     H119316   3.475   4.511   3.875
 6358WAT     H219317   3.528   4.356   3.867
 6359WAT      O19318   8.425   4.670   8.385
 6359WAT     H119319   8.515   4.712   8.376
 6359WAT     H219320   8.357   4.740   8.405
 6360WAT      O19321   8.725   6.203   0.423
 6360WAT     H119322   8.688   6.127   0.369
 6360WAT     H219323   8.762   6.167   0.509
 6361WAT      O19324   0.067   2.018   6.129
 6361WAT     H119325  -0.013   1.977   6.172
 6361WAT     H219326   0.146   2.009   6.190
 6362WAT      O19327   6.462   1.724   4.382
 6362WAT     H119328   6.422   1.633   4.397
 6362WAT     H219329   6.412   1.771   4.310
 6363WAT      O19330   7.954   6.974   1.551
 6363WAT     H119331   7.983   7.068   1.567
 6363WAT     H219332   8.006   6.936   1.474
 6364WAT      O19333   0.855   8.989   0.757
 6364WAT     H119334   0.799   9.046   0.696
 6364WAT     H219335   0.945   9.032   0.769
 6365WAT      O19336   2.788   3.018   3.500
 6365WAT     H119337   2.727   2.980   3.430
 6365WAT     H219338   2.739   3.025   3.586
 6366WAT      O19339   0.111   4.952   2.779
 6366WAT     H119340   0.130   5.046   2.806
 6366WAT     H219341   0.184   4.892   2.811
 6367WAT      O19342   8.458   3.825   1.973
 6367WAT     H119343   8.533   3.878   2.013
 6367WAT     H219344   8.372   3.848   2.018
 6368WAT      O19345   4.619   1.500   1.795
 6368WAT     H119346   4.717   1.483   1.785
 6368WAT     H219347   4.586   1.460   1.880
 6369WAT      O19348   1.559   8.340   7.799
 6369WAT     H119349   1.586   8.384   7.884
 6369WAT     H219350   1.627   8.359   7.728
 6370WAT      O19351   0.877   3.926   2.092
 6370WAT     H119352   0.887   3.996   2.162
 6370WAT     H219353   0.966   3.909   2.048
 6371WAT      O19354   6.597   2.366   0.633
 6371WAT     H119355   6.577   2.365   0.731
 6371WAT     H219356   6.687   2.327   0.617
 6372WAT      O19357   7.488   2.704   4.156
 6372WAT     H119358   7.513   2.663   4.244
 6372WAT     H219359   7.500   2.636   4.084
 6373WAT      O19360   6.765   7.147   2.323
 6373WAT     H119361   6.779   7.182   2.416
 6373WAT     H219362   6.764   7.047   2.325
 6374WAT      O19363   5.347   5.985   5.133
 6374WAT     H119364   5.439   5.957   5.163
 6374WAT     H219365   5.334   6.082   5.150
 6375WAT      O19366   8.632   2.613   1.319
 6375WAT     H119367   8.606   2.545   1.250
 6375WAT     H219368   8.643   2.702   1.275
 6376WAT      O19369   7.711   9.632   8.055
 6376WAT     H119370   7.732   9.562   8.123
 6376WAT     H219371   7.638   9.600   7.995
 6377WAT      O19372   5.158   6.709   3.736
 6377WAT     H119373   5.147   6.658   3.821
 6377WAT     H219374   5.115   6.799   3.746
 6378WAT      O19375   4.657   3.767   4.584
 6378WAT     H119376   4.566   3.777   4.543
 6378WAT     H219377   4.649   3.719   4.671
 6379WAT      O19378   9.550   1.002   4.595
 6379WAT     H119379   9.625   0.960   4.544
 6379WAT     H219380   9.465   0.953   4.576
 6380WAT      O19381   4.420   6.302   3.995
 6380WAT     H119382   4.461   6.304   4.086
 6380WAT     H219383   4.326   6.337   4.000
 6381WAT      O19384   0.899   9.060   3.282
 6381WAT     H119385   0.831   9.125   3.248
 6381WAT     H219386   0.980   9.111   3.314
 6382WAT      O19387   9.345   2.565   1.666
 6382WAT     H119388   9.329   2.645   1.609
 6382WAT     H219389   9.424   2.514   1.631
 6383WAT      O19390   0.754   3.205   8.742
 6383WAT     H119391   0.847   3.240   8.742
 6383WAT     H219392   0.689   3.281   8.748
 6384WAT      O19393   7.155   0.859   2.788
 6384WAT     H119394   7.218   0.920   2.836
 6384WAT     H219395   7.198   0.825   2.705
 6385WAT      O19396   0.785   8.924   1.051
 6385WAT     H119397   0.850   8.858   1.015
 6385WAT     H219398   0.835   8.997   1.099
 6386WAT      O19399   1.579   7.912   6.822
 6386WAT     H119400   1.575   7.846   6.897
 6386WAT     H219401   1.488   7.949   6.805
 6387WAT      O19402   4.531   4.177   8.757
 6387WAT     H119403   4.499   4.263   8.797
 6387WAT     H219404   4.627   4.185   8.732
 6388WAT      O19405   6.465   6.323   0.184
 6388WAT     H119406   6.459   6.389   0.110
 6388WAT     H219407   6.374   6.286   0.204
 6389WAT      O19408   1.314   4.641   8.505
 6389WAT     H119409   1.327   4.720   8.565
 6389WAT     H219410   1.243   4.661   8.437
 6390WAT      O19411   2.704   6.156   8.878
 6390WAT     H119412   2.755   6.220   8.936
 6390WAT     H219413   2.758   6.073   8.864
 6391WAT      O19414   8.528   9.318   8.577
 6391WAT     H119415   8.500   9.325   8.481
 6391WAT     H219416   8.618   9.274   8.581
 6392WAT      O19417   2.415   5.849   2.143
 6392WAT     H119418   2.469   5.925   2.107
 6392WAT     H219419   2.472   5.768   2.152
 6393WAT      O19420   7.606   7.782   1.969
 6393WAT     H119421   7.579   7.855   1.906
 6393WAT     H219422   7.549   7.787   2.052
 6394WAT      O19423   3.305   2.802   0.838
 6394WAT     H119424   3.316   2.874   0.907
 6394WAT     H219425   3.375   2.732   0.852
 6395WAT      O19426   8.795   7.754   4.766
 6395WAT     H119427   8.811   7.677   4.705
 6395WAT     H219428   8.765   7.721   4.856
 6396WAT      O19429   5.551   2.033   2.197
 6396WAT     H119430   5.637   2.033   2.146
 6396WAT     H219431   5.570   2.029   2.295
 6397WAT      O19432   7.003   9.035   3.502
 6397WAT     H119433   6.939   8.959   3.508
 6397WAT     H219434   7.033   9.045   3.407
 6398WAT      O19435   6.386   0.210   1.176
 6398WAT     H119436   6.384   0.134   1.242
 6398WAT     H219437   6.294   0.250   1.169
 6399WAT      O19438   3.688   3.765   8.469
 6399WAT     H119439   3.606   3.780   8.413
 6399WAT     H219440   3.700   3.843   8.531
 6400WAT      O19441   4.108   8.383   6.424
 6400WAT     H119442   4.131   8.469   6.378
 6400WAT     H219443   4.039   8.334   6.371
 6401WAT      O19444   0.161   9.471   4.433
 6401WAT     H119445   0.245   9.504   4.389
 6401WAT     H219446   0.166   9.489   4.531
 6402WAT      O19447   9.718   1.066   8.363
 6402WAT     H119448   9.741   1.160   8.388
 6402WAT     H219449   9.638   1.065   8.304
 6403WAT      O19450   8.235   8.228   6.618
 6403WAT     H119451   8.283   8.150   6.658
 6403WAT     H219452   8.216   8.296   6.689
 6404WAT      O19453   9.056   5.821   5.764
 6404WAT     H119454   8.961   5.791   5.768
 6404WAT     H219455   9.061   5.921   5.769
 6405WAT      O19456   4.688   0.386   0.534
 6405WAT     H119457   4.610   0.327   0.554
 6405WAT     H219458   4.692   0.461   0.600
 6406WAT      O19459   8.659   3.719   8.904
 6406WAT     H119460   8.707   3.634   8.927
 6406WAT     H219461   8.719   3.797   8.921
 6407WAT      O19462   4.064   7.548   3.448
 6407WAT     H119463   4.110   7.554   3.359
 6407WAT     H219464   4.124   7.584   3.519
 6408WAT      O19465   5.563   4.616   8.406
 6408WAT     H119466   5.497   4.653   8.341
 6408WAT     H219467   5.633   4.565   8.356
 6409WAT      O19468   0.947   1.899   9.699
 6409WAT     H119469   0.918   1.872   9.607
 6409WAT     H219470   0.914   1.831   9.765
 6410WAT      O19471   5.334   1.701   8.542
 6410WAT     H119472   5.329   1.622   8.603
 6410WAT     H219473   5.413   1.757   8.566
 6411WAT      O19474   0.487   1.892   1.729
 6411WAT     H119475   0.489   1.792   1.734
 6411WAT     H219476   0.471   1.930   1.820
 6412WAT      O19477   3.493   0.320   1.740
 6412WAT     H119478   3.562   0.375   1.694
 6412WAT     H219479   3.420   0.298   1.675
 6413WAT      O19480   7.330   7.527   8.745
 6413WAT     H119481   7.408   7.589   8.736
 6413WAT     H219482   7.248   7.578   8.767
 6414WAT      O19483   8.141   8.119   4.314
 6414WAT     H119484   8.147   8.047   4.245
 6414WAT     H219485   8.063   8.102   4.374
 6415WAT      O19486   7.861   6.550   8.358
 6415WAT     H119487   7.921   6.601   8.421
 6415WAT     H219488   7.766   6.570   8.380
 6416WAT      O19489   8.019   2.483   3.172
 6416WAT     H119490   8.057   2.558   3.117
 6416WAT     H219491   8.077   2.402   3.163
 6417WAT      O19492   2.352   3.802   8.367
 6417WAT     H119493   2.261   3.831   8.335
 6417WAT     H219494   2.377   3.717   8.321
 6418WAT      O19495   3.546   5.294   3.396
 6418WAT     H119496   3.489   5.355   3.341
 6418WAT     H219497   3.632   5.275   3.347
 6419WAT      O19498   7.427   5.303   8.077
 6419WAT     H119499   7.477   5.388   8.095
 6419WAT     H219500   7.479   5.246   8.013
 6420WAT      O19501   8.093   7.888   7.901
 6420WAT     H119502   8.143   7.922   7.821
 6420WAT     H219503   8.055   7.797   7.880
 6421WAT      O19504   1.409   6.757   0.891
 6421WAT     H119505   1.445   6.670   0.924
 6421WAT     H219506   1.484   6.823   0.883
 6422WAT      O19507   8.577   8.685   8.990
 6422WAT     H119508   8.577   8.762   9.054
 6422WAT     H219509   8.587   8.600   9.041
 6423WAT      O19510   9.779   0.325   6.631
 6423WAT     H119511   9.808   0.246   6.577
 6423WAT     H219512   9.800   0.308   6.728
 6424WAT      O19513   3.076   1.472   6.017
 6424WAT     H119514   3.149   1.406   6.000
 6424WAT     H219515   2.992   1.442   5.973
 6425WAT      O19516   0.457   9.182   9.419
 6425WAT     H119517   0.404   9.266   9.416
 6425WAT     H219518   0.398   9.106   9.446
 6426WAT      O19519   2.896   0.264   5.189
 6426WAT     H119520   2.903   0.192   5.259
 6426WAT     H219521   2.979   0.320   5.191
 6427WAT      O19522   5.641   7.684   7.550
 6427WAT     H119523   5.694   7.638   7.479
 6427WAT     H219524   5.557   7.632   7.569
 6428WAT      O19525   3.081   4.671   0.572
 6428WAT     H119526   2.988   4.640   0.587
 6428WAT     H219527   3.145   4.597   0.592
 6429WAT      O19528   3.500   3.657   9.323
 6429WAT     H119529   3.454   3.653   9.234
 6429WAT     H219530   3.599   3.665   9.309
 6430WAT      O19531   7.290   7.504   2.443
 6430WAT     H119532   7.191   7.495   2.453
 6430WAT     H219533   7.328   7.544   2.527
 6431WAT      O19534   1.916   3.990   0.707
 6431WAT     H119535   1.901   4.044   0.790
 6431WAT     H219536   1.931   4.052   0.630
 6432WAT      O19537   6.624   8.047   7.970
 6432WAT     H119538   6.700   8.009   7.918
 6432WAT     H219539   6.538   8.028   7.923
 6433WAT      O19540   2.582   8.943   8.992
 6433WAT     H119541   2.510   8.912   8.929
 6433WAT     H219542   2.593   8.876   9.065
 6434WAT      O19543   8.499   2.068   7.595
 6434WAT     H119544   8.411   2.084   7.641
 6434WAT     H219545   8.501   2.120   7.509
 6435WAT      O19546   4.029   5.573   7.832
 6435WAT     H119547   3.935   5.551   7.807
 6435WAT     H219548   4.033   5.664   7.872
 6436WAT      O19549   5.404   5.949   1.946
 6436WAT     H119550   5.435   6.042   1.926
 6436WAT     H219551   5.333   5.922   1.881
 6437WAT      O19552   7.699   0.254   0.520
 6437WAT     H119553   7.665   0.194   0.592
 6437WAT     H219554   7.673   0.348   0.539
 6438WAT      O19555   3.586   2.020   5.086
 6438WAT     H119556   3.572   1.967   5.170
 6438WAT     H219557   3.512   2.001   5.022
 6439WAT      O19558   7.088   4.435   8.975
 6439WAT     H119559   7.042   4.502   8.918
 6439WAT     H219560   7.056   4.442   9.069
 6440WAT      O19561   1.227   3.926   9.471
 6440WAT     H119562   1.288   3.994   9.511
 6440WAT     H219563   1.133   3.960   9.472
 6441WAT      O19564   9.291   9.084   7.947
 6441WAT     H119565   9.356   9.008   7.948
 6441WAT     H219566   9.225   9.069   7.873
 6442WAT      O19567   9.104   3.539   8.733
 6442WAT     H119568   9.019   3.496   8.764
 6442WAT     H219569   9.128   3.503   8.643
 6443WAT      O19570   4.746   1.250   3.731
 6443WAT     H119571   4.821   1.284   3.674
 6443WAT     H219572   4.783   1.190   3.802
 6444WAT      O19573   4.644   8.345   3.297
 6444WAT     H119574   4.630   8.334   3.198
 6444WAT     H219575   4.591   8.423   3.329
 6445WAT      O19576   6.829   9.059   1.293
 6445WAT     H119577   6.755   9.045   1.227
 6445WAT     H219578   6.798   9.125   1.363
 6446WAT      O19579   9.891   6.904   5.298
 6446WAT     H119580   9.792   6.909   5.289
 6446WAT     H219581   9.919   6.953   5.381
 6447WAT      O19582   6.312   1.058   2.115
 6447WAT     H119583   6.324   1.153   2.143
 6447WAT     H219584   6.391   1.004   2.146
 6448WAT      O19585   9.312   8.691   3.051
 6448WAT     H119586   9.261   8.628   3.110
 6448WAT     H219587   9.398   8.649   3.022
 6449WAT      O19588   4.253   6.488   7.930
 6449WAT     H119589   4.181   6.447   7.986
 6449WAT     H219590   4.306   6.552   7.986
 6450WAT      O19591   2.874   4.571   7.523
 6450WAT     H119592   2.956   4.515   7.509
 6450WAT     H219593   2.883   4.620   7.610
 6451WAT      O19594   3.961   3.828   6.784
 6451WAT     H119595   4.040   3.819   6.844
 6451WAT     H219596   3.979   3.780   6.697
 6452WAT      O19597   0.604   4.769   4.364
 6452WAT     H119598   0.620   4.868   4.368
 6452WAT     H219599   0.505   4.751   4.367
 6453WAT      O19600   3.871   2.585   1.258
 6453WAT     H119601   3.952   2.539   1.222
 6453WAT     H219602   3.885   2.606   1.355
 6454WAT      O19603   0.332   3.634   6.988
 6454WAT     H119604   0.348   3.692   6.909
 6454WAT     H219605   0.313   3.691   7.068
 6455WAT      O19606   9.147   1.146   7.012
 6455WAT     H119607   9.052   1.129   6.984
 6455WAT     H219608   9.157   1.127   7.110
 6456WAT      O19609   0.901   4.085   5.249
 6456WAT     H119610   0.842   4.141   5.191
 6456WAT     H219611   0.985   4.063   5.199
 6457WAT      O19612   7.869   7.466   5.075
 6457WAT     H119613   7.773   7.465   5.047
 6457WAT     H219614   7.919   7.532   5.018
 6458WAT      O19615   1.625   3.541   2.888
 6458WAT     H119616   1.614   3.513   2.792
 6458WAT     H219617   1.535   3.547   2.931
 6459WAT      O19618   2.512   4.793   0.797
 6459WAT     H119619   2.504   4.701   0.835
 6459WAT     H219620   2.423   4.838   0.799
 6460WAT      O19621   1.621   2.362   8.429
 6460WAT     H119622   1.720   2.371   8.434
 6460WAT     H219623   1.590   2.293   8.495
 6461WAT      O19624   1.058   4.321   5.809
 6461WAT     H119625   1.084   4.408   5.851
 6461WAT     H219626   1.094   4.245   5.864
 6462WAT      O19627   6.365   0.118   3.907
 6462WAT     H119628   6.355   0.041   3.971
 6462WAT     H219629   6.436   0.097   3.840
 6463WAT      O19630   5.321   3.543   6.885
 6463WAT     H119631   5.225   3.572   6.892
 6463WAT     H219632   5.330   3.469   6.819
 6464WAT      O19633   1.045   7.426   3.477
 6464WAT     H119634   1.127   7.389   3.431
 6464WAT     H219635   0.966   7.415   3.417
 6465WAT      O19636   1.006   7.010   0.004
 6465WAT     H119637   0.959   7.012   0.092
 6465WAT     H219638   1.049   6.921  -0.009
 6466WAT      O19639   2.004   5.892   7.532
 6466WAT     H119640   2.025   5.832   7.609
 6466WAT     H219641   2.075   5.883   7.462
 6467WAT      O19642   2.080   6.846   7.820
 6467WAT     H119643   2.000   6.832   7.761
 6467WAT     H219644   2.054   6.901   7.899
 6468WAT      O19645   3.288   1.012   1.555
 6468WAT     H119646   3.213   1.013   1.621
 6468WAT     H219647   3.369   1.054   1.596
 6469WAT      O19648   1.663   1.362   8.259
 6469WAT     H119649   1.759   1.362   8.288
 6469WAT     H219650   1.656   1.326   8.166
 6470WAT      O19651   8.221   7.421   8.207
 6470WAT     H119652   8.141   7.464   8.248
 6470WAT     H219653   8.195   7.332   8.169
 6471WAT      O19654   7.510   4.208   4.042
 6471WAT     H119655   7.601   4.178   4.013
 6471WAT     H219656   7.466   4.257   3.967
 6472WAT      O19657   8.477   4.534   4.230
 6472WAT     H119658   8.535   4.490   4.162
 6472WAT     H219659   8.387   4.489   4.232
 6473WAT      O19660   0.038   9.183   9.460
 6473WAT     H119661  -0.036   9.119   9.476
 6473WAT     H219662   0.125   9.133   9.455
 6474WAT      O19663   0.759   4.980   5.330
 6474WAT     H119664   0.787   5.039   5.254
 6474WAT     H219665   0.809   4.894   5.325
 6475WAT      O19666   1.537   5.777   2.051
 6475WAT     H119667   1.551   5.709   1.979
 6475WAT     H219668   1.602   5.852   2.039
 6476WAT      O19669   0.523   0.293   0.185
 6476WAT     H119670   0.612   0.323   0.150
 6476WAT     H219671   0.522   0.193   0.193
 6477WAT      O19672   3.258   2.400   3.297
 6477WAT     H119673   3.241   2.319   3.352
 6477WAT     H219674   3.271   2.479   3.356
 6478WAT      O19675   0.806   6.426   9.855
 6478WAT     H119676   0.794   6.334   9.894
 6478WAT     H219677   0.869   6.421   9.778
 6479WAT      O19678   9.732   7.261   5.783
 6479WAT     H119679   9.690   7.351   5.791
 6479WAT     H219680   9.664   7.197   5.746
 6480WAT      O19681   8.069   0.841   4.557
 6480WAT     H119682   8.148   0.806   4.507
 6480WAT     H219683   7.986   0.822   4.505
 6481WAT      O19684   4.947   7.974   7.231
 6481WAT     H119685   4.864   7.931   7.196
 6481WAT     H219686   5.018   7.973   7.160
 6482WAT      O19687   0.122   7.904   3.351
 6482WAT     H119688   0.180   7.840   3.301
 6482WAT     H219689   0.110   7.988   3.297
 6483WAT      O19690   4.007   1.599   2.541
 6483WAT     H119691   4.063   1.572   2.620
 6483WAT     H219692   4.001   1.698   2.537
 6484WAT      O19693   9.835   6.492   7.147
 6484WAT     H119694   9.912   6.431   7.131
 6484WAT     H219695   9.808   6.487   7.243
 6485WAT      O19696   7.266   9.308   1.433
 6485WAT     H119697   7.238   9.386   1.490
 6485WAT     H219698   7.198   9.235   1.441
 6486WAT      O19699   1.818   9.426   9.293
 6486WAT     H119700   1.901   9.371   9.306
 6486WAT     H219701   1.739   9.372   9.322
 6487WAT      O19702   4.622   2.733   2.046
 6487WAT     H119703   4.685   2.728   1.968
 6487WAT     H219704   4.604   2.641   2.080
 6488WAT      O19705   2.005   4.202   0.530
 6488WAT     H119706   2.104   4.215   0.521
 6488WAT     H219707   1.968   4.169   0.443
 6489WAT      O19708   4.707   0.190   8.905
 6489WAT     H119709   4.701   0.116   8.971
 6489WAT     H219710   4.630   0.185   8.842
 6490WAT      O19711   1.662   4.867   5.229
 6490WAT     H119712   1.698   4.784   5.186
 6490WAT     H219713   1.585   4.844   5.288
 6491WAT      O19714   6.945   7.094   2.979
 6491WAT     H119715   6.980   7.057   3.065
 6491WAT     H219716   6.882   7.169   2.998
 6492WAT      O19717   3.774   5.961   4.791
 6492WAT     H119718   3.761   6.026   4.716
 6492WAT     H219719   3.773   5.868   4.756
 6493WAT      O19720   2.845   2.831   2.595
 6493WAT     H119721   2.936   2.870   2.598
 6493WAT     H219722   2.777   2.903   2.605
 6494WAT      O19723   5.251   6.518   1.637
 6494WAT     H119724   5.157   6.507   1.603
 6494WAT     H219725   5.289   6.428   1.658
 6495WAT      O19726   4.327   2.258   6.795
 6495WAT     H119727   4.308   2.336   6.855
 6495WAT     H219728   4.305   2.173   6.843
 6496WAT      O19729   8.687   4.236   8.117
 6496WAT     H119730   8.667   4.327   8.152
 6496WAT     H219731   8.745   4.187   8.183
 6497WAT      O19732   3.271   8.552   1.952
 6497WAT     H119733   3.355   8.606   1.955
 6497WAT     H219734   3.267   8.490   2.030
 6498WAT      O19735   1.666   2.771   1.327
 6498WAT     H119736   1.696   2.827   1.404
 6498WAT     H219737   1.709   2.680   1.334
 6499WAT      O19738   7.691   0.930   8.154
 6499WAT     H119739   7.705   0.894   8.062
 6499WAT     H219740   7.619   1.000   8.152
 6500WAT      O19741   2.276   3.537   9.260
 6500WAT     H119742   2.205   3.560   9.327
 6500WAT     H219743   2.233   3.512   9.173
 6501WAT      O19744   1.639   7.338   7.330
 6501WAT     H119745   1.607   7.244   7.334
 6501WAT     H219746   1.739   7.339   7.331
 6502WAT      O19747   4.152   5.093   8.233
 6502WAT     H119748   4.177   5.117   8.140
 6502WAT     H219749   4.115   5.173   8.280
 6503WAT      O19750   1.882   7.229   1.178
 6503WAT     H119751   1.949   7.252   1.107
 6503WAT     H219752   1.812   7.300   1.182
 6504WAT      O19753   9.516   5.070   3.318
 6504WAT     H119754   9.417   5.060   3.329
 6504WAT     H219755   9.554   4.987   3.278
 6505WAT      O19756   0.403   1.787   2.966
 6505WAT     H119757   0.501   1.802   2.977
 6505WAT     H219758   0.373   1.712   3.025
 6506WAT      O19759   9.010   4.468   6.991
 6506WAT     H119760   9.019   4.526   6.911
 6506WAT     H219761   9.095   4.469   7.043
 6507WAT      O19762   9.204   2.480   4.664
 6507WAT     H119763   9.199   2.383   4.638
 6507WAT     H219764   9.294   2.516   4.641
 6508WAT      O19765   9.869   0.537   6.992
 6508WAT     H119766   9.949   0.576   6.947
 6508WAT     H219767   9.787   0.587   6.964
 6509WAT      O19768   3.112   0.579   1.890
 6509WAT     H119769   3.183   0.645   1.867
 6509WAT     H219770   3.048   0.571   1.814
 6510WAT      O19771   6.869   2.627   3.555
 6510WAT     H119772   6.927   2.697   3.513
 6510WAT     H219773   6.925   2.549   3.584
 6511WAT      O19774   7.504   3.876   0.044
 6511WAT     H119775   7.454   3.923  -0.029
 6511WAT     H219776   7.504   3.777   0.026
 6512WAT      O19777   2.694   6.097   1.765
 6512WAT     H119778   2.664   6.165   1.699
 6512WAT     H219779   2.654   6.118   1.855
 6513WAT      O19780   3.189   5.033   5.409
 6513WAT     H119781   3.188   5.017   5.310
 6513WAT     H219782   3.120   5.102   5.432
 6514WAT      O19783   1.180   5.451   6.536
 6514WAT     H119784   1.166   5.362   6.579
 6514WAT     H219785   1.201   5.439   6.439
 6515WAT      O19786   6.249   7.277   7.855
 6515WAT     H119787   6.236   7.184   7.820
 6515WAT     H219788   6.322   7.322   7.803
 6516WAT      O19789   1.646   6.013   7.933
 6516WAT     H119790   1.582   6.016   8.010
 6516WAT     H219791   1.727   5.959   7.958
 6517WAT      O19792   1.578   5.308   8.465
 6517WAT     H119793   1.496   5.253   8.450
 6517WAT     H219794   1.588   5.327   8.563
 6518WAT      O19795   9.071   2.974   6.959
 6518WAT     H119796   9.159   3.003   6.995
 6518WAT     H219797   9.084   2.931   6.870
 6519WAT      O19798   7.111   9.830   8.576
 6519WAT     H119799   7.077   9.922   8.597
 6519WAT     H219800   7.086   9.807   8.482
 6520WAT      O19801   5.355   9.620   5.636
 6520WAT     H119802   5.260   9.620   5.666
 6520WAT     H219803   5.412   9.574   5.705
 6521WAT      O19804   9.071   4.647   0.367
 6521WAT     H119805   9.007   4.634   0.291
 6521WAT     H219806   9.024   4.694   0.443
 6522WAT      O19807   1.920   9.244   1.330
 6522WAT     H119808   1.888   9.289   1.246
 6522WAT     H219809   1.959   9.155   1.306
 6523WAT      O19810   8.151   3.122   8.698
 6523WAT     H119811   8.077   3.065   8.663
 6523WAT     H219812   8.235   3.067   8.704
 6524WAT      O19813   2.624   2.394   4.439
 6524WAT     H119814   2.710   2.445   4.442
 6524WAT     H219815   2.557   2.440   4.498
 6525WAT      O19816   8.357   3.195   3.320
 6525WAT     H119817   8.324   3.110   3.361
 6525WAT     H219818   8.456   3.189   3.307
 6526WAT      O19819   2.444   3.311   1.896
 6526WAT     H119820   2.457   3.282   1.991
 6526WAT     H219821   2.354   3.353   1.886
 6527WAT      O19822   2.288   1.176   8.914
 6527WAT     H119823   2.307   1.084   8.879
 6527WAT     H219824   2.286   1.174   9.014
 6528WAT      O19825   8.189   0.005   8.873
 6528WAT     H119826   8.165   0.094   8.912
 6528WAT     H219827   8.267   0.015   8.812
 6529WAT      O19828   8.937   9.223   5.927
 6529WAT     H119829   8.855   9.165   5.922
 6529WAT     H219830   8.948   9.271   5.840
 6530WAT      O19831   9.657   4.241   2.514
 6530WAT     H119832   9.658   4.335   2.481
 6530WAT     H219833   9.583   4.230   2.580
 6531WAT      O19834   4.398   0.152   4.783
 6531WAT     H119835   4.298   0.150   4.784
 6531WAT     H219836   4.432   0.079   4.724
 6532WAT      O19837   3.614   3.529   6.687
 6532WAT     H119838   3.686   3.542   6.755
 6532WAT     H219839   3.567   3.615   6.670
 6533WAT      O19840   2.335   0.571   6.763
 6533WAT     H119841   2.291   0.485   6.787
 6533WAT     H219842   2.432   0.555   6.746
 6534WAT      O19843   5.862   2.808   2.471
 6534WAT     H119844   5.910   2.732   2.515
 6534WAT     H219845   5.781   2.773   2.424
 6535WAT      O19846   4.029   2.220   7.148
 6535WAT     H119847   3.966   2.195   7.074
 6535WAT     H219848   3.988   2.292   7.204
 6536WAT      O19849   2.426   7.814   9.380
 6536WAT     H119850   2.337   7.800   9.424
 6536WAT     H219851   2.414   7.868   9.297
 6537WAT      O19852   4.476   2.441   9.155
 6537WAT     H119853   4.400   2.378   9.140
 6537WAT     H219854   4.510   2.432   9.248
 6538WAT      O19855   3.254   6.694   1.077
 6538WAT     H119856   3.219   6.661   0.989
 6538WAT     H219857   3.315   6.626   1.116
 6539WAT      O19858   1.264   7.004   0.353
 6539WAT     H119859   1.325   6.991   0.430
 6539WAT     H219860   1.288   7.088   0.305
 6540WAT      O19861   6.206   3.981   8.484
 6540WAT     H119862   6.161   4.069   8.468
 6540WAT     H219863   6.265   3.987   8.565
 6541WAT      O19864   4.714   5.157   9.525
 6541WAT     H119865   4.779   5.089   9.490
 6541WAT     H219866   4.621   5.124   9.512
 6542WAT      O19867   6.606   8.502   3.307
 6542WAT     H119868   6.607   8.601   3.294
 6542WAT     H219869   6.566   8.481   3.397
 6543WAT      O19870   3.430   1.220   5.074
 6543WAT     H119871   3.383   1.300   5.036
 6543WAT     H219872   3.431   1.226   5.174
 6544WAT      O19873   1.523   4.178   6.676
 6544WAT     H119874   1.620   4.154   6.681
 6544WAT     H219875   1.506   4.261   6.729
 6545WAT      O19876   2.761   2.811   9.653
 6545WAT     H119877   2.689   2.844   9.592
 6545WAT     H219878   2.790   2.720   9.626
 6546WAT      O19879   1.494   7.328   7.873
 6546WAT     H119880   1.458   7.297   7.785
 6546WAT     H219881   1.474   7.425   7.886
 6547WAT      O19882   3.931   0.473   6.758
 6547WAT     H119883   3.855   0.529   6.791
 6547WAT     H219884   3.989   0.527   6.698
 6548WAT      O19885   3.578   3.236   0.635
 6548WAT     H119886   3.479   3.229   0.646
 6548WAT     H219887   3.621   3.155   0.674
 6549WAT      O19888   7.848   3.090   5.730
 6549WAT     H119889   7.801   3.034   5.798
 6549WAT     H219890   7.784   3.116   5.658
 6550WAT      O19891   1.899   4.866   8.022
 6550WAT     H119892   1.913   4.868   8.121
 6550WAT     H219893   1.824   4.927   7.997
 6551WAT      O19894   8.990   9.079   3.752
 6551WAT     H119895   8.949   9.094   3.661
 6551WAT     H219896   8.940   9.006   3.799
 6552WAT      O19897   3.220   6.018   9.037
 6552WAT     H119898   3.213   6.112   9.003
 6552WAT     H219899   3.261   5.960   8.967
 6553WAT      O19900   3.924   7.845   0.604
 6553WAT     H119901   3.983   7.772   0.638
 6553WAT     H219902   3.875   7.885   0.681
 6554WAT      O19903   5.970   7.552   3.894
 6554WAT     H119904   5.886   7.509   3.925
 6554WAT     H219905   6.047   7.518   3.947
 6555WAT      O19906   1.934   7.932   1.857
 6555WAT     H119907   2.022   7.956   1.899
 6555WAT     H219908   1.951   7.887   1.769
 6556WAT      O19909   9.540   9.037   5.444
 6556WAT     H119910   9.617   9.043   5.508
 6556WAT     H219911   9.512   9.130   5.418
 6557WAT      O19912   9.124   1.891   2.207
 6557WAT     H119913   9.172   1.904   2.120
 6557WAT     H219914   9.119   1.979   2.255
 6558WAT      O19915   8.993   7.736   4.484
 6558WAT     H119916   8.973   7.833   4.492
 6558WAT     H219917   9.091   7.721   4.499
 6559WAT      O19918   8.432   8.411   9.894
 6559WAT     H119919   8.466   8.317   9.891
 6559WAT     H219920   8.506   8.475   9.872
 6560WAT      O19921   5.959   7.991   0.021
 6560WAT     H119922   5.963   7.908  -0.035
 6560WAT     H219923   5.865   8.024   0.025
 6561WAT      O19924   2.474   3.166   5.717
 6561WAT     H119925   2.435   3.139   5.629
 6561WAT     H219926   2.569   3.135   5.722
 6562WAT      O19927   4.585   6.715   8.793
 6562WAT     H119928   4.576   6.751   8.885
 6562WAT     H219929   4.502   6.666   8.767
 6563WAT      O19930   8.483   8.783   6.241
 6563WAT     H119931   8.425   8.747   6.314
 6563WAT     H219932   8.515   8.707   6.184
 6564WAT      O19933   5.697   4.366   3.962
 6564WAT     H119934   5.749   4.351   3.878
 6564WAT     H219935   5.648   4.453   3.955
 6565WAT      O19936   8.057   9.191   6.587
 6565WAT     H119937   8.022   9.216   6.677
 6565WAT     H219938   8.005   9.114   6.551
 6566WAT      O19939   5.031   1.334   0.203
 6566WAT     H119940   5.060   1.247   0.241
 6566WAT     H219941   4.931   1.336   0.195
 6567WAT      O19942   8.360   4.249   7.361
 6567WAT     H119943   8.308   4.231   7.445
 6567WAT     H219944   8.377   4.347   7.353
 6568WAT      O19945   9.084   5.260   1.542
 6568WAT     H119946   9.078   5.310   1.455
 6568WAT     H219947   8.992   5.238   1.574
 6569WAT      O19948   3.953   6.070   1.518
 6569WAT     H119949   3.910   6.148   1.473
 6569WAT     H219950   3.890   5.992   1.518
 6570WAT      O19951   8.059   2.019   0.665
 6570WAT     H119952   8.067   2.114   0.634
 6570WAT     H219953   8.149   1.986   0.693
 6571WAT      O19954   1.885   7.851   5.875
 6571WAT     H119955   1.984   7.865   5.876
 6571WAT     H219956   1.865   7.753   5.864
 6572WAT      O19957   3.180   0.239   1.720
 6572WAT     H119958   3.248   0.196   1.661
 6572WAT     H219959   3.145   0.322   1.677
 6573WAT      O19960   8.421   7.107   1.986
 6573WAT     H119961   8.433   7.049   2.066
 6573WAT     H219962   8.503   7.106   1.930
 6574WAT      O19963   0.885   9.001   5.926
 6574WAT     H119964   0.924   9.087   5.893
 6574WAT     H219965   0.932   8.924   5.885
 6575WAT      O19966   4.204   9.296   9.338
 6575WAT     H119967   4.278   9.241   9.377
 6575WAT     H219968   4.231   9.329   9.248
 6576WAT      O19969   9.510   0.296   1.726
 6576WAT     H119970   9.419   0.295   1.766
 6576WAT     H219971   9.506   0.330   1.633
 6577WAT      O19972   4.243   8.207   5.350
 6577WAT     H119973   4.216   8.280   5.288
 6577WAT     H219974   4.282   8.132   5.297
 6578WAT      O19975   3.993   7.004   9.514
 6578WAT     H119976   4.028   7.084   9.465
 6578WAT     H219977   4.014   7.012   9.611
 6579WAT      O19978   5.485   7.439   4.149
 6579WAT     H119979   5.459   7.508   4.216
 6579WAT     H219980   5.416   7.436   4.076
 6580WAT      O19981   1.747   2.687   5.869
 6580WAT     H119982   1.727   2.689   5.967
 6580WAT     H219983   1.738   2.593   5.835
 6581WAT      O19984   6.007   8.919   6.233
 6581WAT     H119985   5.982   8.999   6.288
 6581WAT     H219986   6.093   8.881   6.266
 6582WAT      O19987   4.718   9.473   8.110
 6582WAT     H119988   4.698   9.533   8.033
 6582WAT     H219989   4.633   9.447   8.155
 6583WAT      O19990   8.872   2.847   8.183
 6583WAT     H119991   8.795   2.789   8.207
 6583WAT     H219992   8.897   2.903   8.262
 6584WAT      O19993   0.352   2.995   3.081
 6584WAT     H119994   0.404   2.961   3.159
 6584WAT     H219995   0.290   2.924   3.048
 6585WAT      O19996   1.696   4.829   2.565
 6585WAT     H119997   1.778   4.835   2.507
 6585WAT     H219998   1.649   4.743   2.548
 6586WAT      O19999   9.842   8.516   7.299
 6586WAT     H120000   9.745   8.511   7.278
 6586WAT     H220001   9.883   8.425   7.291
 6587WAT      O20002   5.006   0.268   5.383
 6587WAT     H120003   5.033   0.172   5.384
 6587WAT     H220004   5.082   0.324   5.418
 6588WAT      O20005   7.466   4.726   0.235
 6588WAT     H120006   7.460   4.794   0.308
 6588WAT     H220007   7.374   4.701   0.205
 6589WAT      O20008   3.019   9.094   6.551
 6589WAT     H120009   2.995   9.189   6.574
 6589WAT     H220010   2.949   9.056   6.491
 6590WAT      O20011   4.846   4.983   8.545
 6590WAT     H120012   4.751   4.955   8.530
 6590WAT     H220013   4.869   5.057   8.482
 6591WAT      O20014   2.697   8.483   2.756
 6591WAT     H120015   2.753   8.506   2.836
 6591WAT     H220016   2.699   8.385   2.742
 6592WAT      O20017   8.953   5.914   4.894
 6592WAT     H120018   8.896   5.834   4.916
 6592WAT     H220019   8.909   5.996   4.929
 6593WAT      O20020   5.201   3.340   4.090
 6593WAT     H120021   5.274   3.274   4.110
 6593WAT     H220022   5.113   3.300   4.116
 6594WAT      O20023   2.407   1.256   9.886
 6594WAT     H120024   2.357   1.341   9.903
 6594WAT     H220025   2.499   1.277   9.853
 6595WAT      O20026   9.419   3.714   5.487
 6595WAT     H120027   9.378   3.658   5.416
 6595WAT     H220028   9.465   3.793   5.446
 6596WAT      O20029   6.745   6.604   4.026
 6596WAT     H120030   6.816   6.673   4.038
 6596WAT     H220031   6.787   6.513   4.024
 6597WAT      O20032   0.723   1.100   8.822
 6597WAT     H120033   0.658   1.167   8.786
 6597WAT     H220034   0.813   1.117   8.782
 6598WAT      O20035   7.669   7.869   2.755
 6598WAT     H120036   7.696   7.938   2.823
 6598WAT     H220037   7.752   7.828   2.716
 6599WAT      O20038   6.388   1.151   3.316
 6599WAT     H120039   6.388   1.129   3.218
 6599WAT     H220040   6.330   1.230   3.332
 6600WAT      O20041   7.011   6.343   1.152
 6600WAT     H120042   7.058   6.429   1.171
 6600WAT     H220043   6.916   6.361   1.126
 6601WAT      O20044   9.270   8.971   7.007
 6601WAT     H120045   9.230   9.058   7.036
 6601WAT     H220046   9.242   8.899   7.070
 6602WAT      O20047   4.143   3.599   0.622
 6602WAT     H120048   4.183   3.513   0.654
 6602WAT     H220049   4.091   3.641   0.697
 6603WAT      O20050   5.946   4.440   8.639
 6603WAT     H120051   5.961   4.490   8.554
 6603WAT     H220052   5.871   4.482   8.690
 6604WAT      O20053   5.088   8.027   4.461
 6604WAT     H120054   5.028   8.066   4.392
 6604WAT     H220055   5.174   7.996   4.418
 6605WAT      O20056   8.572   7.146   9.066
 6605WAT     H120057   8.629   7.212   9.017
 6605WAT     H220058   8.588   7.155   9.164
 6606WAT      O20059   4.894   5.222   7.150
 6606WAT     H120060   4.814   5.268   7.188
 6606WAT     H220061   4.973   5.238   7.209
 6607WAT      O20062   9.298   5.016   4.081
 6607WAT     H120063   9.335   5.084   4.017
 6607WAT     H220064   9.361   5.004   4.157
 6608WAT      O20065   9.424   9.009   4.410
 6608WAT     H120066   9.509   8.957   4.419
 6608WAT     H220067   9.443   9.097   4.366
 6609WAT      O20068   8.754   6.402   2.913
 6609WAT     H120069   8.668   6.453   2.909
 6609WAT     H220070   8.830   6.465   2.930
 6610WAT      O20071   8.645   2.023   0.542
 6610WAT     H120072   8.603   2.095   0.487
 6610WAT     H220073   8.711   1.972   0.487
 6611WAT      O20074   9.099   1.255   7.536
 6611WAT     H120075   9.142   1.209   7.614
 6611WAT     H220076   9.168   1.302   7.482
 6612WAT      O20077   5.735   1.733   7.718
 6612WAT     H120078   5.701   1.701   7.630
 6612WAT     H220079   5.792   1.662   7.760
 6613WAT      O20080   1.821   7.746   5.406
 6613WAT     H120081   1.758   7.731   5.330
 6613WAT     H220082   1.769   7.750   5.492
 6614WAT      O20083   4.467   5.293   7.835
 6614WAT     H120084   4.398   5.324   7.900
 6614WAT     H220085   4.425   5.232   7.768
 6615WAT      O20086   6.366   7.691   8.026
 6615WAT     H120087   6.428   7.676   8.103
 6615WAT     H220088   6.281   7.640   8.041
 6616WAT      O20089   1.438   7.920   7.494
 6616WAT     H120090   1.399   7.934   7.403
 6616WAT     H220091   1.426   8.002   7.549
 6617WAT      O20092   6.968   2.984   5.809
 6617WAT     H120093   7.008   2.963   5.898
 6617WAT     H220094   6.868   2.989   5.817
 6618WAT      O20095   4.538   5.386   1.366
 6618WAT     H120096   4.584   5.406   1.452
 6618WAT     H220097   4.572   5.446   1.294
 6619WAT      O20098   3.334   7.188   1.797
 6619WAT     H120099   3.413   7.175   1.737
 6619WAT     H220100   3.297   7.280   1.783
 6620WAT      O20101   5.562   0.790   9.738
 6620WAT     H120102   5.596   0.722   9.803
 6620WAT     H220103   5.463   0.798   9.746
 6621WAT      O20104   4.079   0.846   1.272
 6621WAT     H120105   4.176   0.860   1.251
 6621WAT     H220106   4.043   0.773   1.214
 6622WAT      O20107   4.756   5.255   2.569
 6622WAT     H120108   4.850   5.229   2.591
 6622WAT     H220109   4.694   5.214   2.636
 6623WAT      O20110   1.672   7.942   3.493
 6623WAT     H120111   1.646   7.900   3.580
 6623WAT     H220112   1.642   7.883   3.418
 6624WAT      O20113   9.818   1.823   1.218
 6624WAT     H120114   9.863   1.734   1.209
 6624WAT     H220115   9.761   1.839   1.137
 6625WAT      O20116   5.156   2.503   6.766
 6625WAT     H120117   5.236   2.563   6.759
 6625WAT     H220118   5.110   2.521   6.853
 6626WAT      O20119   3.652   7.076   3.902
 6626WAT     H120120   3.564   7.078   3.949
 6626WAT     H220121   3.678   7.168   3.875
 6627WAT      O20122   6.686   1.216   4.591
 6627WAT     H120123   6.625   1.237   4.667
 6627WAT     H220124   6.702   1.118   4.586
 6628WAT      O20125   6.556   8.001   7.481
 6628WAT     H120126   6.498   8.061   7.427
 6628WAT     H220127   6.577   7.918   7.429
 6629WAT      O20128   0.920   0.551   6.522
 6629WAT     H120129   0.858   0.479   6.553
 6629WAT     H220130   1.012   0.514   6.512
 6630WAT      O20131   3.419   6.775   4.157
 6630WAT     H120132   3.432   6.771   4.058
 6630WAT     H220133   3.463   6.695   4.199
 6631WAT      O20134   6.605   6.291   4.595
 6631WAT     H120135   6.586   6.196   4.569
 6631WAT     H220136   6.617   6.295   4.695
 6632WAT      O20137   6.749   6.843   0.272
 6632WAT     H120138   6.823   6.831   0.205
 6632WAT     H220139   6.735   6.757   0.321
 6633WAT      O20140   7.926   1.702   4.234
 6633WAT     H120141   7.968   1.683   4.145
 6633WAT     H220142   7.993   1.743   4.295
 6634WAT      O20143   9.583   4.854   9.060
 6634WAT     H120144   9.652   4.835   8.991
 6634WAT     H220145   9.549   4.767   9.097
 6635WAT      O20146   0.707   4.045   2.678
 6635WAT     H120147   0.611   4.038   2.651
 6635WAT     H220148   0.757   3.964   2.647
 6636WAT      O20149   9.185   0.208   5.333
 6636WAT     H120150   9.206   0.264   5.253
 6636WAT     H220151   9.143   0.122   5.303
 6637WAT      O20152   8.049   1.298   1.253
 6637WAT     H120153   8.028   1.300   1.351
 6637WAT     H220154   8.013   1.380   1.209
 6638WAT      O20155   6.942   7.825   7.193
 6638WAT     H120156   6.952   7.904   7.254
 6638WAT     H220157   7.027   7.809   7.144
 6639WAT      O20158   4.546   8.592   6.607
 6639WAT     H120159   4.460   8.632   6.575
 6639WAT     H220160   4.607   8.578   6.529
 6640WAT      O20161   5.054   1.352   7.602
 6640WAT     H120162   5.059   1.431   7.663
 6640WAT     H220163   5.128   1.288   7.625
 6641WAT      O20164   6.030   6.414   0.608
 6641WAT     H120165   6.113   6.446   0.563
 6641WAT     H220166   6.038   6.316   0.626
 6642WAT      O20167   7.625   2.972   5.177
 6642WAT     H120168   7.555   2.920   5.129
 6642WAT     H220169   7.595   2.990   5.271
 6643WAT      O20170   9.793   0.917   4.234
 6643WAT     H120171   9.699   0.908   4.202
 6643WAT     H220172   9.794   0.923   4.334
 6644WAT      O20173   8.701   1.810   7.384
 6644WAT     H120174   8.750   1.792   7.470
 6644WAT     H220175   8.604   1.820   7.403
 6645WAT      O20176   6.097   5.938   2.078
 6645WAT     H120177   6.057   6.013   2.131
 6645WAT     H220178   6.029   5.903   2.013
 6646WAT      O20179   0.434   2.985   8.554
 6646WAT     H120180   0.384   3.054   8.502
 6646WAT     H220181   0.386   2.968   8.641
 6647WAT      O20182   9.814   3.428   7.439
 6647WAT     H120183   9.716   3.433   7.421
 6647WAT     H220184   9.848   3.517   7.468
 6648WAT      O20185   8.954   4.818   4.799
 6648WAT     H120186   8.962   4.720   4.821
 6648WAT     H220187   9.045   4.855   4.780
 6649WAT      O20188   3.045   6.042   5.318
 6649WAT     H120189   3.079   6.051   5.412
 6649WAT     H220190   3.111   6.081   5.255
 6650WAT      O20191   7.244   5.803   2.380
 6650WAT     H120192   7.298   5.881   2.411
 6650WAT     H220193   7.262   5.787   2.283
 6651WAT      O20194   4.204   7.349   7.167
 6651WAT     H120195   4.253   7.262   7.166
 6651WAT     H220196   4.266   7.423   7.141
 6652WAT      O20197   7.603   6.180   4.050
 6652WAT     H120198   7.587   6.149   4.144
 6652WAT     H220199   7.521   6.227   4.017
 6653WAT      O20200   1.684   2.863   2.736
 6653WAT     H120201   1.692   2.814   2.650
 6653WAT     H220202   1.694   2.961   2.719
 6654WAT      O20203   6.749   1.711   0.337
 6654WAT     H120204   6.786   1.651   0.408
 6654WAT     H220205   6.790   1.688   0.249
 6655WAT      O20206   8.743   4.317   3.222
 6655WAT     H120207   8.834   4.276   3.217
 6655WAT     H220208   8.751   4.412   3.249
 6656WAT      O20209   9.500   8.637   1.094
 6656WAT     H120210   9.445   8.567   1.139
 6656WAT     H220211   9.592   8.639   1.133
 6657WAT      O20212   5.026   6.889   9.742
 6657WAT     H120213   4.930   6.863   9.735
 6657WAT     H220214   5.055   6.932   9.656
 6658WAT      O20215   6.400   4.573   2.586
 6658WAT     H120216   6.305   4.546   2.569
 6658WAT     H220217   6.444   4.506   2.646
 6659WAT      O20218   7.428   0.495   2.063
 6659WAT     H120219   7.422   0.594   2.049
 6659WAT     H220220   7.409   0.474   2.159
 6660WAT      O20221   1.128   9.726   3.440
 6660WAT     H120222   1.194   9.758   3.372
 6660WAT     H220223   1.084   9.805   3.483
 6661WAT      O20224   5.321   9.636   8.104
 6661WAT     H120225   5.237   9.668   8.059
 6661WAT     H220226   5.314   9.652   8.202
 6662WAT      O20227   3.943   0.548   8.869
 6662WAT     H120228   3.937   0.619   8.939
 6662WAT     H220229   3.997   0.471   8.905
 6663WAT      O20230   1.326   7.746   0.500
 6663WAT     H120231   1.294   7.840   0.489
 6663WAT     H220232   1.271   7.686   0.442
 6664WAT      O20233   7.819   3.686   2.646
 6664WAT     H120234   7.802   3.754   2.717
 6664WAT     H220235   7.763   3.605   2.663
 6665WAT      O20236   5.057   3.903   1.026
 6665WAT     H120237   4.985   3.835   1.021
 6665WAT     H220238   5.035   3.980   0.966
 6666WAT      O20239   5.016   4.663   0.200
 6666WAT     H120240   4.949   4.725   0.161
 6666WAT     H220241   5.030   4.586   0.138
 6667WAT      O20242   4.469   2.313   7.367
 6667WAT     H120243   4.562   2.327   7.334
 6667WAT     H220244   4.448   2.215   7.367
 6668WAT      O20245   0.614   0.681   0.529
 6668WAT     H120246   0.663   0.637   0.453
 6668WAT     H220247   0.584   0.612   0.595
 6669WAT      O20248   3.028   8.796   7.021
 6669WAT     H120249   2.946   8.848   6.995
 6669WAT     H220250   3.049   8.813   7.118
 6670WAT      O20251   9.425   4.959   1.354
 6670WAT     H120252   9.429   4.859   1.364
 6670WAT     H220253   9.416   4.983   1.257
 6671WAT      O20254   7.320   6.478   9.011
 6671WAT     H120255   7.250   6.494   8.941
 6671WAT     H220256   7.407   6.454   8.966
 6672WAT      O20257   0.392   9.771   2.653
 6672WAT     H120258   0.301   9.772   2.612
 6672WAT     H220259   0.445   9.696   2.613
 6673WAT      O20260   4.439   7.123   3.091
 6673WAT     H120261   4.397   7.050   3.037
 6673WAT     H220262   4.420   7.107   3.188
 6674WAT      O20263   2.521   4.034   9.348
 6674WAT     H120264   2.505   4.045   9.446
 6674WAT     H220265   2.618   4.013   9.333
 6675WAT      O20266   5.834   1.198   8.480
 6675WAT     H120267   5.918   1.146   8.466
 6675WAT     H220268   5.813   1.202   8.577
 6676WAT      O20269   3.333   6.688   7.735
 6676WAT     H120270   3.367   6.659   7.825
 6676WAT     H220271   3.330   6.609   7.674
 6677WAT      O20272   4.585   5.068   4.430
 6677WAT     H120273   4.589   5.041   4.526
 6677WAT     H220274   4.506   5.024   4.386
 6678WAT      O20275   0.668   4.129   8.744
 6678WAT     H120276   0.613   4.048   8.766
 6678WAT     H220277   0.753   4.126   8.798
 6679WAT      O20278   2.075   3.556   6.019
 6679WAT     H120279   1.982   3.540   5.987
 6679WAT     H220280   2.122   3.469   6.031
 6680WAT      O20281   2.050   5.719   2.652
 6680WAT     H120282   2.147   5.722   2.678
 6680WAT     H220283   2.031   5.633   2.605
 6681WAT      O20284   9.152   9.423   6.560
 6681WAT     H120285   9.219   9.496   6.567
 6681WAT     H220286   9.183   9.342   6.611
 6682WAT      O20287   9.886   4.682   7.941
 6682WAT     H120288   9.806   4.710   7.887
 6682WAT     H220289   9.951   4.635   7.881
 6683WAT      O20290   8.552   6.672   9.616
 6683WAT     H120291   8.516   6.578   9.622
 6683WAT     H220292   8.641   6.676   9.663
 6684WAT      O20293   7.995   5.927   7.649
 6684WAT     H120294   7.971   5.834   7.621
 6684WAT     H220295   7.962   5.943   7.742
 6685WAT      O20296   6.993   9.204   7.127
 6685WAT     H120297   7.023   9.142   7.055
 6685WAT     H220298   6.936   9.276   7.086
 6686WAT      O20299   4.451   1.488   0.166
 6686WAT     H120300   4.438   1.408   0.224
 6686WAT     H220301   4.463   1.458   0.071
 6687WAT      O20302   7.629   7.176   2.493
 6687WAT     H120303   7.678   7.094   2.460
 6687WAT     H220304   7.690   7.255   2.489
 6688WAT      O20305   3.706   5.635   3.001
 6688WAT     H120306   3.715   5.712   2.938
 6688WAT     H220307   3.609   5.617   3.019
 6689WAT      O20308   1.814   3.367   2.588
 6689WAT     H120309   1.823   3.365   2.488
 6689WAT     H220310   1.747   3.436   2.614
 6690WAT      O20311   7.064   3.895   5.388
 6690WAT     H120312   7.163   3.887   5.403
 6690WAT     H220313   7.045   3.890   5.290
 6691WAT      O20314   7.958   5.127   0.802
 6691WAT     H120315   7.927   5.036   0.830
 6691WAT     H220316   7.906   5.196   0.852
 6692WAT      O20317   0.647   2.848   3.592
 6692WAT     H120318   0.690   2.889   3.512
 6692WAT     H220319   0.586   2.915   3.635
 6693WAT      O20320   4.379   2.432   0.297
 6693WAT     H120321   4.435   2.493   0.241
 6693WAT     H220322   4.428   2.409   0.381
 6694WAT      O20323   5.813   6.819   7.663
 6694WAT     H120324   5.752   6.866   7.727
 6694WAT     H220325   5.771   6.732   7.635
 6695WAT      O20326   1.691   8.160   3.043
 6695WAT     H120327   1.655   8.153   3.136
 6695WAT     H220328   1.630   8.111   2.980
 6696WAT      O20329   8.126   0.359   9.263
 6696WAT     H120330   8.131   0.266   9.300
 6696WAT     H220331   8.030   0.389   9.262
 6697WAT      O20332   6.989   6.363   0.479
 6697WAT     H120333   6.969   6.289   0.542
 6697WAT     H220334   7.066   6.337   0.420
 6698WAT      O20335   6.094   3.099   4.047
 6698WAT     H120336   6.003   3.067   4.075
 6698WAT     H220337   6.163   3.062   4.110
 6699WAT      O20338   7.061   1.640   6.565
 6699WAT     H120339   7.083   1.651   6.468
 6699WAT     H220340   7.106   1.712   6.618
 6700WAT      O20341   3.282   4.656   3.094
 6700WAT     H120342   3.308   4.578   3.152
 6700WAT     H220343   3.261   4.623   3.002
 6701WAT      O20344   5.531   4.227   6.908
 6701WAT     H120345   5.522   4.177   6.822
 6701WAT     H220346   5.561   4.165   6.980
 6702WAT      O20347   8.052   6.330   4.515
 6702WAT     H120348   8.018   6.283   4.597
 6702WAT     H220349   7.997   6.412   4.499
 6703WAT      O20350   3.577   1.846   7.892
 6703WAT     H120351   3.567   1.832   7.990
 6703WAT     H220352   3.486   1.847   7.849
 6704WAT      O20353   4.744   8.764   6.723
 6704WAT     H120354   4.714   8.682   6.674
 6704WAT     H220355   4.800   8.821   6.663
 6705WAT      O20356   9.523   8.406   4.673
 6705WAT     H120357   9.569   8.492   4.650
 6705WAT     H220358   9.437   8.400   4.623
 6706WAT      O20359   4.206   5.367   5.100
 6706WAT     H120360   4.207   5.395   5.004
 6706WAT     H220361   4.185   5.446   5.157
 6707WAT      O20362   6.296   5.345   1.250
 6707WAT     H120363   6.350   5.286   1.310
 6707WAT     H220364   6.317   5.441   1.271
 6708WAT      O20365   5.464   2.608   2.931
 6708WAT     H120366   5.371   2.636   2.957
 6708WAT     H220367   5.494   2.663   2.853
 6709WAT      O20368   6.587   2.025   6.032
 6709WAT     H120369   6.556   2.119   6.049
 6709WAT     H220370   6.641   1.993   6.110
 6710WAT      O20371   0.461   1.817   5.762
 6710WAT     H120372   0.404   1.885   5.808
 6710WAT     H220373   0.428   1.725   5.783
 6711WAT      O20374   3.987   2.021   4.118
 6711WAT     H120375   3.944   2.082   4.184
 6711WAT     H220376   4.042   2.075   4.053
 6712WAT      O20377   7.694   1.019   1.508
 6712WAT     H120378   7.635   1.055   1.436
 6712WAT     H220379   7.677   0.921   1.520
 6713WAT      O20380   5.089   6.365   8.518
 6713WAT     H120381   5.036   6.313   8.586
 6713WAT     H220382   5.038   6.368   8.432
 6714WAT      O20383   1.417   1.554   4.826
 6714WAT     H120384   1.395   1.463   4.791
 6714WAT     H220385   1.361   1.622   4.780
 6715WAT      O20386   1.075   6.522   4.041
 6715WAT     H120387   1.165   6.519   4.084
 6715WAT     H220388   1.072   6.456   3.966
 6716WAT      O20389   1.583   3.809   9.837
 6716WAT     H120390   1.497   3.843   9.798
 6716WAT     H220391   1.657   3.824   9.771
 6717WAT      O20392   9.562   6.666   4.588
 6717WAT     H120393   9.525   6.728   4.657
 6717WAT     H220394   9.572   6.714   4.502
 6718WAT      O20395   0.166   4.174   5.374
 6718WAT     H120396   0.105   4.244   5.412
 6718WAT     H220397   0.257   4.183   5.415
 6719WAT      O20398   7.066   1.181   8.084
 6719WAT     H120399   7.152   1.228   8.067
 6719WAT     H220400   6.991   1.234   8.043
 6720WAT      O20401   4.608   6.246   2.232
 6720WAT     H120402   4.655   6.249   2.320
 6720WAT     H220403   4.554   6.162   2.225
 6721WAT      O20404   4.337   4.183   0.977
 6721WAT     H120405   4.396   4.115   1.021
 6721WAT     H220406   4.242   4.153   0.983
 6722WAT      O20407   4.514   7.505   7.656
 6722WAT     H120408   4.494   7.461   7.568
 6722WAT     H220409   4.521   7.604   7.642
 6723WAT      O20410   7.756   5.549   8.303
 6723WAT     H120411   7.694   5.540   8.225
 6723WAT     H220412   7.845   5.582   8.271
 6724WAT      O20413   4.093   1.822   3.844
 6724WAT     H120414   4.018   1.755   3.850
 6724WAT     H220415   4.057   1.913   3.862
 6725WAT      O20416   9.323   5.879   6.911
 6725WAT     H120417   9.292   5.789   6.945
 6725WAT     H220418   9.328   5.943   6.988
 6726WAT      O20419   0.105   9.660   6.092
 6726WAT     H120420   0.019   9.712   6.087
 6726WAT     H220421   0.180   9.718   6.061
 6727WAT      O20422   1.957   7.267   8.544
 6727WAT     H120423   1.878   7.279   8.604
 6727WAT     H220424   1.927   7.257   8.450
 6728WAT      O20425   3.410   4.566   8.834
 6728WAT     H120426   3.440   4.521   8.918
 6728WAT     H220427   3.362   4.651   8.857
 6729WAT      O20428   1.976   4.458   3.735
 6729WAT     H120429   1.879   4.467   3.713
 6729WAT     H220430   1.998   4.363   3.755
 6730WAT      O20431   8.061   1.576   0.818
 6730WAT     H120432   8.123   1.532   0.752
 6730WAT     H220433   8.043   1.513   0.893
 6731WAT      O20434   2.852   4.603   4.263
 6731WAT     H120435   2.814   4.575   4.352
 6731WAT     H220436   2.789   4.666   4.218
 6732WAT      O20437   6.660   2.882   4.779
 6732WAT     H120438   6.691   2.883   4.684
 6732WAT     H220439   6.631   2.974   4.806
 6733WAT      O20440   6.339   9.527   6.643
 6733WAT     H120441   6.389   9.462   6.700
 6733WAT     H220442   6.287   9.590   6.702
 6734WAT      O20443   1.649   0.755   5.808
 6734WAT     H120444   1.602   0.668   5.793
 6734WAT     H220445   1.593   0.829   5.773
 6735WAT      O20446   5.687   3.552   1.575
 6735WAT     H120447   5.719   3.488   1.506
 6735WAT     H220448   5.643   3.630   1.530
 6736WAT      O20449   9.114   6.152   1.341
 6736WAT     H120450   9.112   6.055   1.318
 6736WAT     H220451   9.082   6.165   1.435
 6737WAT      O20452   8.549   8.305   0.617
 6737WAT     H120453   8.609   8.378   0.584
 6737WAT     H220454   8.455   8.338   0.618
 6738WAT      O20455   0.776   0.176   0.685
 6738WAT     H120456   0.862   0.189   0.735
 6738WAT     H220457   0.750   0.080   0.686
 6739WAT      O20458   5.184   4.577   0.573
 6739WAT     H120459   5.281   4.560   0.587
 6739WAT     H220460   5.171   4.658   0.516
 6740WAT      O20461   1.624   2.744   3.562
 6740WAT     H120462   1.622   2.841   3.587
 6740WAT     H220463   1.716   2.720   3.529
 6741WAT      O20464   6.123   8.188   0.170
 6741WAT     H120465   6.161   8.101   0.136
 6741WAT     H220466   6.095   8.177   0.265
 6742WAT      O20467   5.285   8.964   8.913
 6742WAT     H120468   5.261   8.885   8.969
 6742WAT     H220469   5.352   9.021   8.961
 6743WAT      O20470   3.861   9.097   7.717
 6743WAT     H120471   3.844   9.152   7.799
 6743WAT     H220472   3.952   9.117   7.682
 6744WAT      O20473   2.345   0.469   0.494
 6744WAT     H120474   2.336   0.404   0.569
 6744WAT     H220475   2.329   0.562   0.528
 6745WAT      O20476   5.717   8.200   1.768
 6745WAT     H120477   5.681   8.155   1.687
 6745WAT     H220478   5.641   8.228   1.827
 6746WAT      O20479   6.479   5.691   8.990
 6746WAT     H120480   6.548   5.763   8.984
 6746WAT     H220481   6.429   5.700   9.077
 6747WAT      O20482   0.357   7.448   2.591
 6747WAT     H120483   0.308   7.456   2.504
 6747WAT     H220484   0.425   7.375   2.585
 6748WAT      O20485   2.636   7.657   3.130
 6748WAT     H120486   2.646   7.566   3.091
 6748WAT     H220487   2.708   7.716   3.095
 6749WAT      O20488   4.166   9.252   6.645
 6749WAT     H120489   4.266   9.250   6.640
 6749WAT     H220490   4.128   9.206   6.565
 6750WAT      O20491   9.695   5.935   2.820
 6750WAT     H120492   9.794   5.923   2.811
 6750WAT     H220493   9.649   5.848   2.800
 6751WAT      O20494   8.860   3.802   6.965
 6751WAT     H120495   8.786   3.745   6.930
 6751WAT     H220496   8.919   3.747   7.025
 6752WAT      O20497   8.618   6.082   8.817
 6752WAT     H120498   8.668   6.165   8.842
 6752WAT     H220499   8.626   6.015   8.891
 6753WAT      O20500   7.693   2.599   9.126
 6753WAT     H120501   7.649   2.539   9.193
 6753WAT     H220502   7.623   2.641   9.068
 6754WAT      O20503   1.169   3.408   8.457
 6754WAT     H120504   1.136   3.356   8.535
 6754WAT     H220505   1.265   3.432   8.470
 6755WAT      O20506   5.298   2.128   2.472
 6755WAT     H120507   5.225   2.109   2.406
 6755WAT     H220508   5.288   2.067   2.551
 6756WAT      O20509   2.882   2.512   9.726
 6756WAT     H120510   2.865   2.414   9.740
 6756WAT     H220511   2.900   2.529   9.629
 6757WAT      O20512   5.674   2.463   7.955
 6757WAT     H120513   5.689   2.552   7.998
 6757WAT     H220514   5.646   2.397   8.024
 6758WAT      O20515   3.813   0.794   4.306
 6758WAT     H120516   3.865   0.767   4.225
 6758WAT     H220517   3.870   0.853   4.363
 6759WAT      O20518   6.844   2.536   2.054
 6759WAT     H120519   6.936   2.500   2.038
 6759WAT     H220520   6.851   2.619   2.110
 6760WAT      O20521   9.063   2.955   4.370
 6760WAT     H120522   9.047   2.858   4.387
 6760WAT     H220523   9.044   2.975   4.273
 6761WAT      O20524   0.675   3.956   0.914
 6761WAT     H120525   0.628   4.038   0.880
 6761WAT     H220526   0.702   3.898   0.837
 6762WAT      O20527   4.840   6.236   1.823
 6762WAT     H120528   4.811   6.306   1.888
 6762WAT     H220529   4.923   6.191   1.857
 6763WAT      O20530   4.736   4.108   3.399
 6763WAT     H120531   4.730   4.197   3.354
 6763WAT     H220532   4.822   4.063   3.372
 6764WAT      O20533   7.587   3.982   2.672
 6764WAT     H120534   7.602   3.915   2.745
 6764WAT     H220535   7.659   4.051   2.674
 6765WAT      O20536   1.456   3.786   3.425
 6765WAT     H120537   1.365   3.819   3.450
 6765WAT     H220538   1.497   3.849   3.359
 6766WAT      O20539   5.962   2.269   1.923
 6766WAT     H120540   6.037   2.331   1.900
 6766WAT     H220541   5.879   2.297   1.875
 6767WAT      O20542   1.215   4.735   6.951
 6767WAT     H120543   1.218   4.635   6.950
 6767WAT     H220544   1.157   4.766   7.026
 6768WAT      O20545   8.023   0.869   3.224
 6768WAT     H120546   8.057   0.804   3.292
 6768WAT     H220547   8.078   0.861   3.140
 6769WAT      O20548   7.117   6.796   7.161
 6769WAT     H120549   7.057   6.869   7.126
 6769WAT     H220550   7.070   6.708   7.155
 6770WAT      O20551   0.254   2.045   6.337
 6770WAT     H120552   0.217   2.113   6.399
 6770WAT     H220553   0.338   2.080   6.295
 6771WAT      O20554   4.441   8.831   3.718
 6771WAT     H120555   4.469   8.881   3.800
 6771WAT     H220556   4.341   8.832   3.711
 6772WAT      O20557   6.513   7.208   6.501
 6772WAT     H120558   6.569   7.169   6.574
 6772WAT     H220559   6.449   7.273   6.539
 6773WAT      O20560   3.147   5.511   9.646
 6773WAT     H120561   3.121   5.591   9.592
 6773WAT     H220562   3.184   5.541   9.734
 6774WAT      O20563   2.179   0.553   5.505
 6774WAT     H120564   2.101   0.508   5.549
 6774WAT     H220565   2.153   0.583   5.413
 6775WAT      O20566   9.667   8.211   4.143
 6775WAT     H120567   9.670   8.264   4.227
 6775WAT     H220568   9.642   8.116   4.164
 6776WAT      O20569   9.307   5.897   0.933
 6776WAT     H120570   9.371   5.940   0.869
 6776WAT     H220571   9.343   5.905   1.026
 6777WAT      O20572   5.796   0.496   8.127
 6777WAT     H120573   5.890   0.480   8.155
 6777WAT     H220574   5.769   0.428   8.059
 6778WAT      O20575   1.450   8.383   4.462
 6778WAT     H120576   1.474   8.347   4.552
 6778WAT     H220577   1.388   8.460   4.473
 6779WAT      O20578   9.190   5.755   1.307
 6779WAT     H120579   9.097   5.794   1.307
 6779WAT     H220580   9.199   5.692   1.384
 6780WAT      O20581   5.680   2.806   2.023
 6780WAT     H120582   5.689   2.794   1.924
 6780WAT     H220583   5.755   2.757   2.069
 6781WAT      O20584   4.561   0.299   7.064
 6781WAT     H120585   4.506   0.382   7.078
 6781WAT     H220586   4.647   0.308   7.112
 6782WAT      O20587   0.887   4.785   2.451
 6782WAT     H120588   0.909   4.823   2.541
 6782WAT     H220589   0.810   4.721   2.460
 6783WAT      O20590   4.391   7.857   2.685
 6783WAT     H120591   4.456   7.900   2.749
 6783WAT     H220592   4.356   7.772   2.725
 6784WAT      O20593   4.189   0.512   0.350
 6784WAT     H120594   4.103   0.547   0.312
 6784WAT     H220595   4.265   0.541   0.293
 6785WAT      O20596   5.298   0.417   6.429
 6785WAT     H120597   5.372   0.364   6.388
 6785WAT     H220598   5.304   0.512   6.399
 6786WAT      O20599   9.085   4.332   2.617
 6786WAT     H120600   9.118   4.402   2.682
 6786WAT     H220601   9.161   4.303   2.559
 6787WAT      O20602   5.230   2.091   8.055
 6787WAT     H120603   5.181   2.005   8.042
 6787WAT     H220604   5.320   2.085   8.013
 6788WAT      O20605   2.645   8.087   2.649
 6788WAT     H120606   2.693   8.010   2.690
 6788WAT     H220607   2.583   8.127   2.716
 6789WAT      O20608   3.856   4.986   3.982
 6789WAT     H120609   3.890   5.057   4.044
 6789WAT     H220610   3.766   5.011   3.948
 6790WAT      O20611   2.233   8.573   9.320
 6790WAT     H120612   2.150   8.519   9.307
 6790WAT     H220613   2.234   8.609   9.413
 6791WAT      O20614   0.830   5.141   6.063
 6791WAT     H120615   0.777   5.073   6.113
 6791WAT     H220616   0.923   5.144   6.098
 6792WAT      O20617   4.616   8.912   2.555
 6792WAT     H120618   4.694   8.969   2.578
 6792WAT     H220619   4.591   8.926   2.459
 6793WAT      O20620   5.564   1.478   5.500
 6793WAT     H120621   5.466   1.477   5.519
 6793WAT     H220622   5.595   1.386   5.476
 6794WAT      O20623   8.355   3.348   6.999
 6794WAT     H120624   8.391   3.441   6.990
 6794WAT     H220625   8.321   3.334   7.092
 6795WAT      O20626   8.425   6.434   2.332
 6795WAT     H120627   8.505   6.406   2.385
 6795WAT     H220628   8.350   6.370   2.348
 6796WAT      O20629   7.571   6.553   2.187
 6796WAT     H120630   7.589   6.644   2.148
 6796WAT     H220631   7.648   6.492   2.166
 6797WAT      O20632   9.581   8.469   6.085
 6797WAT     H120633   9.671   8.492   6.121
 6797WAT     H220634   9.591   8.432   5.992
 6798WAT      O20635   3.789   4.109   4.035
 6798WAT     H120636   3.712   4.045   4.033
 6798WAT     H220637   3.849   4.086   4.111
 6799WAT      O20638   4.890   6.929   4.727
 6799WAT     H120639   4.818   6.915   4.659
 6799WAT     H220640   4.954   6.851   4.725
 6800WAT      O20641   9.561   6.255   9.705
 6800WAT     H120642   9.568   6.279   9.802
 6800WAT     H220643   9.526   6.334   9.654
 6801WAT      O20644   5.298   9.450   7.067
 6801WAT     H120645   5.329   9.522   7.005
 6801WAT     H220646   5.215   9.408   7.031
 6802WAT      O20647   4.898   0.549   0.099
 6802WAT     H120648   4.861   0.607   0.026
 6802WAT     H220649   4.925   0.461   0.062
 6803WAT      O20650   7.620   6.325   2.450
 6803WAT     H120651   7.541   6.322   2.511
 6803WAT     H220652   7.655   6.419   2.445
 6804WAT      O20653   7.401   8.099   7.774
 6804WAT     H120654   7.346   8.149   7.707
 6804WAT     H220655   7.445   8.022   7.729
 6805WAT      O20656   2.291   6.571   2.143
 6805WAT     H120657   2.339   6.504   2.199
 6805WAT     H220658   2.304   6.549   2.046
 6806WAT      O20659   9.214   0.225   2.477
 6806WAT     H120660   9.283   0.297   2.490
 6806WAT     H220661   9.140   0.237   2.543
 6807WAT      O20662   7.719   0.594   5.120
 6807WAT     H120663   7.811   0.601   5.158
 6807WAT     H220664   7.709   0.508   5.071
 6808WAT      O20665   6.385   2.307   1.321
 6808WAT     H120666   6.335   2.322   1.236
 6808WAT     H220667   6.351   2.369   1.391
 6809WAT      O20668   3.751   1.173   1.314
 6809WAT     H120669   3.712   1.246   1.259
 6809WAT     H220670   3.844   1.153   1.282
 6810WAT      O20671   2.479   5.595   4.128
 6810WAT     H120672   2.568   5.611   4.169
 6810WAT     H220673   2.421   5.676   4.141
 6811WAT      O20674   7.658   7.724   7.906
 6811WAT     H120675   7.717   7.651   7.941
 6811WAT     H220676   7.648   7.794   7.977
 6812WAT      O20677   5.930   7.822   7.077
 6812WAT     H120678   5.926   7.723   7.088
 6812WAT     H220679   5.906   7.847   6.983
 6813WAT      O20680   9.735   3.451   8.135
 6813WAT     H120681   9.689   3.366   8.109
 6813WAT     H220682   9.778   3.439   8.224
 6814WAT      O20683   9.588   3.965   9.129
 6814WAT     H120684   9.561   3.875   9.162
 6814WAT     H220685   9.508   4.016   9.099
 6815WAT      O20686   9.368   6.983   2.350
 6815WAT     H120687   9.379   6.973   2.251
 6815WAT     H220688   9.292   7.045   2.369
 6816WAT      O20689   0.271   1.828   4.883
 6816WAT     H120690   0.302   1.737   4.912
 6816WAT     H220691   0.257   1.829   4.784
 6817WAT      O20692   9.575   4.418   1.407
 6817WAT     H120693   9.610   4.367   1.485
 6817WAT     H220694   9.525   4.498   1.439
 6818WAT      O20695   7.033   8.103   0.280
 6818WAT     H120696   6.941   8.138   0.293
 6818WAT     H220697   7.046   8.022   0.337
 6819WAT      O20698   4.440   4.419   8.780
 6819WAT     H120699   4.423   4.410   8.879
 6819WAT     H220700   4.352   4.432   8.733
 6820WAT      O20701   8.792   3.032   0.636
 6820WAT     H120702   8.873   3.046   0.692
 6820WAT     H220703   8.812   3.053   0.541
 6821WAT      O20704   6.929   8.171   5.228
 6821WAT     H120705   6.855   8.104   5.241
 6821WAT     H220706   6.891   8.259   5.201
 6822WAT      O20707   9.470   4.007   7.346
 6822WAT     H120708   9.447   3.946   7.271
 6822WAT     H220709   9.402   4.080   7.352
 6823WAT      O20710   9.803   3.783   1.236
 6823WAT     H120711   9.792   3.690   1.270
 6823WAT     H220712   9.752   3.794   1.151
 6824WAT      O20713   8.375   6.895   9.104
 6824WAT     H120714   8.459   6.843   9.120
 6824WAT     H220715   8.374   6.976   9.162
 6825WAT      O20716   3.437   2.369   8.362
 6825WAT     H120717   3.388   2.430   8.424
 6825WAT     H220718   3.485   2.299   8.415
 6826WAT      O20719   0.595   2.995   8.886
 6826WAT     H120720   0.500   2.979   8.912
 6826WAT     H220721   0.600   3.072   8.822
 6827WAT      O20722   4.402   7.078   6.445
 6827WAT     H120723   4.498   7.092   6.418
 6827WAT     H220724   4.364   7.002   6.393
 6828WAT      O20725   0.825   4.853   6.797
 6828WAT     H120726   0.841   4.921   6.868
 6828WAT     H220727   0.781   4.773   6.837
 6829WAT      O20728   1.739   8.437   8.791
 6829WAT     H120729   1.715   8.471   8.700
 6829WAT     H220730   1.839   8.432   8.799
 6830WAT      O20731   0.084   8.258   4.869
 6830WAT     H120732   0.020   8.311   4.925
 6830WAT     H220733   0.169   8.244   4.921
 6831WAT      O20734   0.095   4.001   5.084
 6831WAT     H120735   0.031   4.010   5.160
 6831WAT     H220736   0.122   3.905   5.074
 6832WAT      O20737   6.744   6.566   6.240
 6832WAT     H120738   6.752   6.481   6.291
 6832WAT     H220739   6.694   6.549   6.155
 6833WAT      O20740   6.515   9.350   6.781
 6833WAT     H120741   6.527   9.388   6.873
 6833WAT     H220742   6.499   9.252   6.788
 6834WAT      O20743   0.055   7.938   6.848
 6834WAT     H120744  -0.028   7.991   6.831
 6834WAT     H220745   0.135   7.997   6.842
 6835WAT      O20746   1.924   9.683   4.106
 6835WAT     H120747   1.990   9.697   4.032
 6835WAT     H220748   1.872   9.767   4.120
 6836WAT      O20749   7.290   5.826   3.330
 6836WAT     H120750   7.347   5.907   3.340
 6836WAT     H220751   7.341   5.745   3.359
 6837WAT      O20752   9.415   1.221   4.974
 6837WAT     H120753   9.337   1.256   5.026
 6837WAT     H220754   9.468   1.298   4.938
 6838WAT      O20755   9.037   6.375   1.219
 6838WAT     H120756   9.092   6.319   1.281
 6838WAT     H220757   9.011   6.320   1.139
 6839WAT      O20758   1.126   2.255   3.589
 6839WAT     H120759   1.203   2.247   3.653
 6839WAT     H220760   1.051   2.197   3.621
 6840WAT      O20761   9.594   0.903   2.198
 6840WAT     H120762   9.609   0.883   2.295
 6840WAT     H220763   9.496   0.898   2.179
 6841WAT      O20764   3.007   6.613   4.960
 6841WAT     H120765   2.918   6.571   4.945
 6841WAT     H220766   3.078   6.558   4.915
 6842WAT      O20767   7.852   8.860   0.862
 6842WAT     H120768   7.790   8.936   0.885
 6842WAT     H220769   7.911   8.887   0.786
 6843WAT      O20770   1.214   5.590   6.781
 6843WAT     H120771   1.204   5.546   6.692
 6843WAT     H220772   1.151   5.667   6.788
 6844WAT      O20773   8.594   6.909   0.388
 6844WAT     H120774   8.535   6.881   0.464
 6844WAT     H220775   8.543   6.903   0.302
 6845WAT      O20776   7.106   1.180   3.740
 6845WAT     H120777   7.151   1.241   3.806
 6845WAT     H220778   7.007   1.195   3.742
 6846WAT      O20779   2.239   8.705   6.612
 6846WAT     H120780   2.275   8.673   6.699
 6846WAT     H220781   2.314   8.713   6.546
 6847WAT      O20782   2.805   0.230   2.457
 6847WAT     H120783   2.882   0.293   2.471
 6847WAT     H220784   2.736   0.246   2.528
 6848WAT      O20785   7.213   6.918   8.449
 6848WAT     H120786   7.240   6.861   8.526
 6848WAT     H220787   7.294   6.962   8.410
 6849WAT      O20788   6.768   9.413   0.423
 6849WAT     H120789   6.776   9.512   0.439
 6849WAT     H220790   6.712   9.396   0.341
 6850WAT      O20791   0.627   2.894   3.229
 6850WAT     H120792   0.664   2.978   3.188
 6850WAT     H220793   0.700   2.827   3.240
 6851WAT      O20794   1.483   8.519   1.464
 6851WAT     H120795   1.518   8.593   1.406
 6851WAT     H220796   1.423   8.460   1.410
 6852WAT      O20797   5.882   9.577   8.537
 6852WAT     H120798   5.913   9.519   8.612
 6852WAT     H220799   5.899   9.532   8.450
 6853WAT      O20800   7.477   6.315   7.380
 6853WAT     H120801   7.542   6.298   7.307
 6853WAT     H220802   7.444   6.228   7.417
 6854WAT      O20803   6.851   7.522   1.259
 6854WAT     H120804   6.787   7.537   1.335
 6854WAT     H220805   6.883   7.428   1.262
 6855WAT      O20806   7.005   4.138   0.829
 6855WAT     H120807   7.091   4.180   0.858
 6855WAT     H220808   6.986   4.058   0.886
 6856WAT      O20809   6.191   1.697   9.615
 6856WAT     H120810   6.114   1.761   9.619
 6856WAT     H220811   6.269   1.736   9.663
 6857WAT      O20812   3.052   1.147   6.112
 6857WAT     H120813   2.972   1.127   6.055
 6857WAT     H220814   3.025   1.202   6.191
 6858WAT      O20815   7.851   6.293   5.361
 6858WAT     H120816   7.928   6.323   5.417
 6858WAT     H220817   7.850   6.193   5.357
 6859WAT      O20818   5.946   1.598   3.651
 6859WAT     H120819   5.882   1.521   3.647
 6859WAT     H220820   5.895   1.684   3.652
 6860WAT      O20821   7.638   5.936   1.736
 6860WAT     H120822   7.599   6.014   1.785
 6860WAT     H220823   7.612   5.940   1.640
 6861WAT      O20824   6.788   6.414   9.778
 6861WAT     H120825   6.736   6.332   9.799
 6861WAT     H220826   6.726   6.490   9.757
 6862WAT      O20827   4.081   7.619   0.635
 6862WAT     H120828   4.084   7.575   0.546
 6862WAT     H220829   4.088   7.550   0.707
 6863WAT      O20830   5.581   1.068   4.033
 6863WAT     H120831   5.603   1.165   4.036
 6863WAT     H220832   5.485   1.055   4.010
 6864WAT      O20833   2.948   2.563   3.259
 6864WAT     H120834   3.004   2.643   3.237
 6864WAT     H220835   2.874   2.590   3.321
 6865WAT      O20836   1.338   5.397   1.136
 6865WAT     H120837   1.272   5.376   1.064
 6865WAT     H220838   1.419   5.339   1.125
 6866WAT      O20839   8.960   6.299   8.009
 6866WAT     H120840   8.872   6.342   8.032
 6866WAT     H220841   9.004   6.268   8.093
 6867WAT      O20842   7.588   2.263   4.700
 6867WAT     H120843   7.582   2.334   4.630
 6867WAT     H220844   7.672   2.210   4.686
 6868WAT      O20845   6.068   9.784   4.537
 6868WAT     H120846   6.155   9.756   4.580
 6868WAT     H220847   5.992   9.757   4.597
 6869WAT      O20848   6.563   2.924   7.983
 6869WAT     H120849   6.557   3.018   8.016
 6869WAT     H220850   6.612   2.868   8.050
 6870WAT      O20851   2.460   9.240   3.414
 6870WAT     H120852   2.411   9.324   3.389
 6870WAT     H220853   2.555   9.264   3.438
 6871WAT      O20854   0.885   0.736   2.756
 6871WAT     H120855   0.843   0.779   2.676
 6871WAT     H220856   0.813   0.711   2.821
 6872WAT      O20857   5.188   5.727   9.190
 6872WAT     H120858   5.158   5.752   9.281
 6872WAT     H220859   5.216   5.631   9.190
 6873WAT      O20860   4.505   5.699   0.259
 6873WAT     H120861   4.529   5.679   0.163
 6873WAT     H220862   4.432   5.767   0.261
 6874WAT      O20863   2.285   0.194   6.745
 6874WAT     H120864   2.345   0.220   6.669
 6874WAT     H220865   2.215   0.264   6.758
 6875WAT      O20866   4.288   4.836   0.750
 6875WAT     H120867   4.221   4.896   0.706
 6875WAT     H220868   4.375   4.884   0.757
 6876WAT      O20869   8.231   9.277   7.322
 6876WAT     H120870   8.303   9.242   7.262
 6876WAT     H220871   8.142   9.241   7.293
 6877WAT      O20872   8.854   8.995   6.298
 6877WAT     H120873   8.801   9.036   6.372
 6877WAT     H220874   8.928   9.058   6.271
 6878WAT      O20875   6.614   7.888   9.041
 6878WAT     H120876   6.607   7.986   9.020
 6878WAT     H220877   6.615   7.836   8.956
 6879WAT      O20878   2.526   4.380   4.301
 6879WAT     H120879   2.586   4.376   4.221
 6879WAT     H220880   2.521   4.474   4.334
 6880WAT      O20881   7.414   3.026   4.864
 6880WAT     H120882   7.397   2.949   4.927
 6880WAT     H220883   7.412   3.112   4.916
 6881WAT      O20884   4.988   6.606   9.405
 6881WAT     H120885   4.939   6.664   9.339
 6881WAT     H220886   4.922   6.561   9.465
 6882WAT      O20887   3.825   4.864   6.008
 6882WAT     H120888   3.797   4.807   5.931
 6882WAT     H220889   3.748   4.874   6.072
 6883WAT      O20890   2.855   8.158   8.843
 6883WAT     H120891   2.855   8.227   8.915
 6883WAT     H220892   2.944   8.112   8.840
 6884WAT      O20893   0.096   7.154   8.919
 6884WAT     H120894   0.166   7.210   8.874
 6884WAT     H220895   0.006   7.180   8.886
 6885WAT      O20896   9.398   9.285   5.857
 6885WAT     H120897   9.475   9.342   5.883
 6885WAT     H220898   9.320   9.343   5.832
 6886WAT      O20899   1.450   8.713   8.592
 6886WAT     H120900   1.400   8.663   8.521
 6886WAT     H220901   1.394   8.787   8.627
 6887WAT      O20902   6.944   4.793   3.649
 6887WAT     H120903   7.036   4.777   3.683
 6887WAT     H220904   6.878   4.740   3.703
 6888WAT      O20905   0.132   6.473   6.321
 6888WAT     H120906   0.140   6.526   6.237
 6888WAT     H220907   0.144   6.376   6.301
 6889WAT      O20908   2.917   7.502   3.420
 6889WAT     H120909   2.829   7.547   3.438
 6889WAT     H220910   2.973   7.502   3.502
 6890WAT      O20911   0.819   5.779   1.144
 6890WAT     H120912   0.887   5.707   1.127
 6890WAT     H220913   0.728   5.744   1.122
 6891WAT      O20914   3.513   2.508   2.851
 6891WAT     H120915   3.448   2.551   2.915
 6891WAT     H220916   3.531   2.414   2.879
 6892WAT      O20917   6.629   2.778   9.574
 6892WAT     H120918   6.628   2.848   9.646
 6892WAT     H220919   6.544   2.784   9.521
 6893WAT      O20920   2.494   9.245   9.354
 6893WAT     H120921   2.543   9.209   9.275
 6893WAT     H220922   2.397   9.254   9.331
 6894WAT      O20923   0.444   5.594   6.255
 6894WAT     H120924   0.541   5.604   6.278
 6894WAT     H220925   0.389   5.616   6.336
 6895WAT      O20926   7.875   5.674   4.720
 6895WAT     H120927   7.801   5.677   4.652
 6895WAT     H220928   7.844   5.623   4.800
 6896WAT      O20929   5.116   9.063   4.901
 6896WAT     H120930   5.031   9.011   4.897
 6896WAT     H220931   5.187   9.007   4.944
 6897WAT      O20932   0.093   8.602   4.883
 6897WAT     H120933   0.078   8.532   4.953
 6897WAT     H220934   0.079   8.562   4.792
 6898WAT      O20935   1.013   4.306   4.443
 6898WAT     H120936   1.059   4.389   4.411
 6898WAT     H220937   1.080   4.244   4.484
 6899WAT      O20938   5.158   2.688   1.866
 6899WAT     H120939   5.219   2.699   1.944
 6899WAT     H220940   5.191   2.614   1.807
 6900WAT      O20941   1.886   3.138   7.652
 6900WAT     H120942   1.799   3.187   7.656
 6900WAT     H220943   1.961   3.204   7.660
 6901WAT      O20944   9.660   4.207   6.266
 6901WAT     H120945   9.758   4.197   6.282
 6901WAT     H220946   9.612   4.212   6.353
 6902WAT      O20947   1.861   9.402   1.117
 6902WAT     H120948   1.861   9.392   1.017
 6902WAT     H220949   1.915   9.482   1.142
 6903WAT      O20950   7.966   7.460   9.510
 6903WAT     H120951   7.922   7.370   9.514
 6903WAT     H220952   8.025   7.471   9.590
 6904WAT      O20953   6.520   3.449   4.107
 6904WAT     H120954   6.446   3.500   4.063
 6904WAT     H220955   6.494   3.353   4.115
 6905WAT      O20956   8.557   0.055   2.156
 6905WAT     H120957   8.652   0.032   2.135
 6905WAT     H220958   8.497  -0.018   2.123
 6906WAT      O20959   8.586   7.624   2.642
 6906WAT     H120960   8.633   7.626   2.553
 6906WAT     H220961   8.633   7.563   2.704
 6907WAT      O20962   9.692   2.210   3.814
 6907WAT     H120963   9.745   2.213   3.898
 6907WAT     H220964   9.712   2.292   3.759
 6908WAT      O20965   8.114   8.096   6.079
 6908WAT     H120966   8.175   8.159   6.128
 6908WAT     H220967   8.068   8.036   6.145
 6909WAT      O20968   4.725   6.924   3.396
 6909WAT     H120969   4.781   6.896   3.474
 6909WAT     H220970   4.723   7.023   3.390
 6910WAT      O20971   1.598   6.409   3.449
 6910WAT     H120972   1.607   6.508   3.462
 6910WAT     H220973   1.502   6.387   3.432
 6911WAT      O20974   7.955   5.983   7.942
 6911WAT     H120975   7.895   6.063   7.942
 6911WAT     H220976   8.023   5.992   8.015
 6912WAT      O20977   0.687   1.302   1.057
 6912WAT     H120978   0.760   1.338   1.115
 6912WAT     H220979   0.599   1.330   1.094
 6913WAT      O20980   8.352   1.563   6.871
 6913WAT     H120981   8.395   1.649   6.844
 6913WAT     H220982   8.362   1.549   6.969
 6914WAT      O20983   6.084   4.045   2.825
 6914WAT     H120984   6.151   4.073   2.756
 6914WAT     H220985   6.003   4.104   2.819
 6915WAT      O20986   1.783   0.086   4.086
 6915WAT     H120987   1.689   0.108   4.062
 6915WAT     H220988   1.845   0.123   4.017
 6916WAT      O20989   6.369   3.913   8.025
 6916WAT     H120990   6.322   3.987   7.978
 6916WAT     H220991   6.458   3.944   8.057
 6917WAT      O20992   6.109   1.842   2.669
 6917WAT     H120993   6.050   1.773   2.628
 6917WAT     H220994   6.079   1.933   2.641
 6918WAT      O20995   7.352   8.375   4.530
 6918WAT     H120996   7.393   8.412   4.447
 6918WAT     H220997   7.357   8.442   4.604
 6919WAT      O20998   2.987   6.312   5.580
 6919WAT     H120999   3.046   6.248   5.629
 6919WAT     H221000   2.954   6.270   5.497
 6920WAT      O21001   9.029   1.564   3.925
 6920WAT     H121002   9.119   1.526   3.905
 6920WAT     H221003   8.967   1.544   3.850
 6921WAT      O21004   3.526   6.065   9.144
 6921WAT     H121005   3.564   5.996   9.082
 6921WAT     H221006   3.511   6.023   9.234
 6922WAT      O21007   9.724   0.568   6.481
 6922WAT     H121008   9.728   0.598   6.386
 6922WAT     H221009   9.776   0.483   6.491
 6923WAT      O21010   7.573   5.907   1.256
 6923WAT     H121011   7.502   5.900   1.186
 6923WAT     H221012   7.656   5.945   1.215
 6924WAT      O21013   4.203   3.238   7.599
 6924WAT     H121014   4.201   3.236   7.699
 6924WAT     H221015   4.295   3.213   7.568
 6925WAT      O21016   0.289   7.699   1.051
 6925WAT     H121017   0.252   7.737   1.136
 6925WAT     H221018   0.375   7.745   1.029
 6926WAT      O21019   4.913   4.647   2.421
 6926WAT     H121020   4.879   4.624   2.512
 6926WAT     H221021   4.836   4.661   2.358
 6927WAT      O21022   8.007   3.266   5.036
 6927WAT     H121023   8.057   3.339   5.084
 6927WAT     H221024   8.043   3.177   5.065
 6928WAT      O21025   1.894   0.072   6.411
 6928WAT     H121026   1.871   0.024   6.326
 6928WAT     H221027   1.986   0.046   6.440
 6929WAT      O21028   3.364   5.746   9.412
 6929WAT     H121029   3.404   5.817   9.471
 6929WAT     H221030   3.435   5.678   9.390
 6930WAT      O21031   7.973   4.578   6.210
 6930WAT     H121032   7.999   4.675   6.206
 6930WAT     H221033   8.005   4.539   6.296
 6931WAT      O21034   1.097   4.819   7.156
 6931WAT     H121035   1.104   4.919   7.162
 6931WAT     H221036   1.156   4.778   7.225
 6932WAT      O21037   0.830   9.807   6.823
 6932WAT     H121038   0.782   9.852   6.898
 6932WAT     H221039   0.769   9.742   6.778
 6933WAT      O21040   1.789   6.286   7.919
 6933WAT     H121041   1.700   6.241   7.925
 6933WAT     H221042   1.814   6.297   7.823
 6934WAT      O21043   7.835   1.705   4.954
 6934WAT     H121044   7.824   1.688   4.856
 6934WAT     H221045   7.822   1.802   4.972
 6935WAT      O21046   0.972   8.843   6.229
 6935WAT     H121047   1.056   8.794   6.208
 6935WAT     H221048   0.894   8.782   6.218
 6936WAT      O21049   7.197   2.234   8.536
 6936WAT     H121050   7.145   2.183   8.468
 6936WAT     H221051   7.186   2.332   8.520
 6937WAT      O21052   0.720   6.404   4.433
 6937WAT     H121053   0.684   6.374   4.521
 6937WAT     H221054   0.658   6.376   4.360
 6938WAT      O21055   7.179   1.667   4.721
 6938WAT     H121056   7.106   1.724   4.684
 6938WAT     H221057   7.183   1.581   4.671
 6939WAT      O21058   8.314   6.223   6.135
 6939WAT     H121059   8.328   6.222   6.036
 6939WAT     H221060   8.223   6.259   6.156
 6940WAT      O21061   2.487   7.660   7.763
 6940WAT     H121062   2.495   7.589   7.693
 6940WAT     H221063   2.480   7.618   7.853
 6941WAT      O21064   4.023   0.349   0.898
 6941WAT     H121065   3.940   0.349   0.955
 6941WAT     H221066   4.006   0.296   0.815
 6942WAT      O21067   5.315   2.001   3.105
 6942WAT     H121068   5.294   1.905   3.088
 6942WAT     H221069   5.410   2.010   3.136
 6943WAT      O21070   8.979   1.971   0.653
 6943WAT     H121071   8.969   1.965   0.753
 6943WAT     H221072   8.986   1.880   0.614
 6944WAT      O21073   6.227   1.008   6.215
 6944WAT     H121074   6.187   0.975   6.300
 6944WAT     H221075   6.324   1.027   6.229
 6945WAT      O21076   1.856   5.155   9.702
 6945WAT     H121077   1.802   5.184   9.781
 6945WAT     H221078   1.948   5.131   9.731
 6946WAT      O21079   5.183   7.072   6.720
 6946WAT     H121080   5.187   7.103   6.625
 6946WAT     H221081   5.207   7.148   6.781
 6947WAT      O21082   0.775   8.159   2.555
 6947WAT     H121083   0.831   8.207   2.488
 6947WAT     H221084   0.833   8.103   2.614
 6948WAT      O21085   1.452   8.968   4.229
 6948WAT     H121086   1.418   8.971   4.323
 6948WAT     H221087   1.531   8.907   4.223
 6949WAT      O21088   9.753   6.966   4.766
 6949WAT     H121089   9.709   6.932   4.849
 6949WAT     H221090   9.799   7.052   4.785
 6950WAT      O21091   8.714   1.075   8.529
 6950WAT     H121092   8.642   1.012   8.499
 6950WAT     H221093   8.719   1.074   8.628
 6951WAT      O21094   6.130   1.286   2.691
 6951WAT     H121095   6.221   1.265   2.654
 6951WAT     H221096   6.063   1.282   2.617
 6952WAT      O21097   4.745   8.656   4.474
 6952WAT     H121098   4.682   8.728   4.503
 6952WAT     H221099   4.713   8.568   4.509
 6953WAT      O21100   3.666   1.699   5.399
 6953WAT     H121101   3.725   1.649   5.335
 6953WAT     H221102   3.722   1.735   5.474
 6954WAT      O21103   3.278   5.449   9.430
 6954WAT     H121104   3.367   5.494   9.427
 6954WAT     H221105   3.245   5.445   9.524
 6955WAT      O21106   7.739   4.177   5.683
 6955WAT     H121107   7.827   4.195   5.638
 6955WAT     H221108   7.708   4.260   5.729
 6956WAT      O21109   1.949   9.832   2.557
 6956WAT     H121110   2.018   9.810   2.487
 6956WAT     H221111   1.861   9.847   2.512
 6957WAT      O21112   8.532   9.044   0.002
 6957WAT     H121113   8.487   9.016   0.087
 6957WAT     H221114   8.526   9.143  -0.007
 6958WAT      O21115   4.555   1.487   3.526
 6958WAT     H121116   4.585   1.462   3.618
 6958WAT     H221117   4.455   1.492   3.523
 6959WAT      O21118   2.036   1.972   1.088
 6959WAT     H121119   2.053   1.922   1.174
 6959WAT     H221120   2.073   1.918   1.012
 6960WAT      O21121   9.056   7.708   5.497
 6960WAT     H121122   9.123   7.770   5.538
 6960WAT     H221123   9.011   7.655   5.569
 6961WAT      O21124   0.736   2.010   7.982
 6961WAT     H121125   0.816   1.996   7.924
 6961WAT     H221126   0.699   2.102   7.966
 6962WAT      O21127   1.525   2.418   1.472
 6962WAT     H121128   1.461   2.341   1.469
 6962WAT     H221129   1.492   2.484   1.539
 6963WAT      O21130   7.315   3.031   8.005
 6963WAT     H121131   7.215   3.042   8.003
 6963WAT     H221132   7.356   3.093   7.938
 6964WAT      O21133   4.644   1.874   2.861
 6964WAT     H121134   4.679   1.957   2.904
 6964WAT     H221135   4.571   1.898   2.797
 6965WAT      O21136   4.089   4.349   1.397
 6965WAT     H121137   4.178   4.306   1.412
 6965WAT     H221138   4.100   4.430   1.340
 6966WAT      O21139   4.051   0.331   2.321
 6966WAT     H121140   4.145   0.299   2.330
 6966WAT     H221141   4.028   0.343   2.225
 6967WAT      O21142   7.304   8.982   1.284
 6967WAT     H121143   7.245   9.057   1.313
 6967WAT     H221144   7.299   8.908   1.351
 6968WAT      O21145   4.031   6.307   1.903
 6968WAT     H121146   3.958   6.243   1.926
 6968WAT     H221147   4.029   6.326   1.804
 6969WAT      O21148   8.698   2.577   5.081
 6969WAT     H121149   8.761   2.503   5.060
 6969WAT     H221150   8.610   2.560   5.038
 6970WAT      O21151   5.224   7.625   1.183
 6970WAT     H121152   5.310   7.591   1.145
 6970WAT     H221153   5.154   7.627   1.111
 6971WAT      O21154   6.639   0.976   3.706
 6971WAT     H121155   6.565   0.972   3.639
 6971WAT     H221156   6.705   0.903   3.688
 6972WAT      O21157   0.980   0.374   7.963
 6972WAT     H121158   1.076   0.378   7.936
 6972WAT     H221159   0.959   0.451   8.023
 6973WAT      O21160   1.590   4.473   4.795
 6973WAT     H121161   1.539   4.482   4.880
 6973WAT     H221162   1.611   4.563   4.758
 6974WAT      O21163   4.111   1.725   6.843
 6974WAT     H121164   4.160   1.777   6.773
 6974WAT     H221165   4.098   1.781   6.924
 6975WAT      O21166   5.388   3.409   5.281
 6975WAT     H121167   5.371   3.392   5.184
 6975WAT     H221168   5.465   3.354   5.312
 6976WAT      O21169   9.007   4.937   8.007
 6976WAT     H121170   9.095   4.972   7.974
 6976WAT     H221171   8.935   5.005   7.989
 6977WAT      O21172   1.854   5.702   8.745
 6977WAT     H121173   1.765   5.748   8.752
 6977WAT     H221174   1.925   5.762   8.781
 6978WAT      O21175   1.650   6.734   2.569
 6978WAT     H121176   1.700   6.661   2.523
 6978WAT     H221177   1.714   6.791   2.620
 6979WAT      O21178   6.464   3.511   9.633
 6979WAT     H121179   6.423   3.510   9.542
 6979WAT     H221180   6.548   3.564   9.631
 6980WAT      O21181   0.116   7.367   7.639
 6980WAT     H121182   0.019   7.390   7.633
 6980WAT     H221183   0.137   7.333   7.731
 6981WAT      O21184   6.874   8.411   6.859
 6981WAT     H121185   6.799   8.433   6.797
 6981WAT     H221186   6.925   8.332   6.824
 6982WAT      O21187   4.232   4.116   6.947
 6982WAT     H121188   4.261   4.171   6.868
 6982WAT     H221189   4.309   4.061   6.979
 6983WAT      O21190   8.931   4.776   4.151
 6983WAT     H121191   8.977   4.825   4.078
 6983WAT     H221192   8.851   4.827   4.181
 6984WAT      O21193   1.438   6.191   6.845
 6984WAT     H121194   1.403   6.099   6.825
 6984WAT     H221195   1.526   6.183   6.891
 6985WAT      O21196   8.268   2.691   6.841
 6985WAT     H121197   8.310   2.684   6.750
 6985WAT     H221198   8.315   2.631   6.905
 6986WAT      O21199   6.665   7.961   8.236
 6986WAT     H121200   6.644   7.999   8.147
 6986WAT     H221201   6.714   8.029   8.291
 6987WAT      O21202   3.623   4.702   1.442
 6987WAT     H121203   3.529   4.715   1.474
 6987WAT     H221204   3.685   4.713   1.519
 6988WAT      O21205   6.475   4.781   5.377
 6988WAT     H121206   6.526   4.695   5.385
 6988WAT     H221207   6.495   4.823   5.288
 6989WAT      O21208   6.803   8.836   0.258
 6989WAT     H121209   6.847   8.926   0.259
 6989WAT     H221210   6.775   8.814   0.165
 6990WAT      O21211   1.930   2.627   1.116
 6990WAT     H121212   1.833   2.649   1.128
 6990WAT     H221213   1.939   2.534   1.081
 6991WAT      O21214   7.023   5.134   6.923
 6991WAT     H121215   7.069   5.048   6.900
 6991WAT     H221216   6.928   5.131   6.893
 6992WAT      O21217   6.274   0.004   1.326
 6992WAT     H121218   6.205   0.072   1.304
 6992WAT     H221219   6.314   0.024   1.415
 6993WAT      O21220   0.257   4.462   4.970
 6993WAT     H121221   0.290   4.377   5.011
 6993WAT     H221222   0.168   4.445   4.927
 6994WAT      O21223   6.040   6.836   1.965
 6994WAT     H121224   5.965   6.858   2.027
 6994WAT     H221225   6.060   6.916   1.908
 6995WAT      O21226   9.586   1.526   7.013
 6995WAT     H121227   9.498   1.522   7.061
 6995WAT     H221228   9.638   1.605   7.043
 6996WAT      O21229   7.460   2.571   5.092
 6996WAT     H121230   7.518   2.605   5.167
 6996WAT     H221231   7.371   2.545   5.129
 6997WAT      O21232   9.830   5.706   3.909
 6997WAT     H121233   9.856   5.755   3.826
 6997WAT     H221234   9.754   5.644   3.890
 6998WAT      O21235   3.484   7.559   4.231
 6998WAT     H121236   3.551   7.485   4.232
 6998WAT     H221237   3.489   7.609   4.144
 6999WAT      O21238   6.589   0.051   6.473
 6999WAT     H121239   6.595  -0.039   6.515
 6999WAT     H221240   6.680   0.092   6.468
 7000WAT      O21241   1.336   6.434   2.781
 7000WAT     H121242   1.400   6.404   2.711
 7000WAT     H221243   1.378   6.423   2.871
 7001WAT      O21244   3.918   4.757   6.669
 7001WAT     H121245   3.938   4.660   6.679
 7001WAT     H221246   3.962   4.809   6.743
 7002WAT      O21247   8.729   4.287   1.231
 7002WAT     H121248   8.773   4.221   1.292
 7002WAT     H221249   8.638   4.254   1.206
 7003WAT      O21250   7.571   6.961   3.590
 7003WAT     H121251   7.640   6.928   3.525
 7003WAT     H221252   7.513   6.885   3.617
 7004WAT      O21253   0.546   3.064   0.099
 7004WAT     H121254   0.457   3.101   0.072
 7004WAT     H221255   0.551   2.967   0.075
 7005WAT      O21256   6.951   2.103   7.451
 7005WAT     H121257   6.912   2.103   7.359
 7005WAT     H221258   6.992   2.014   7.471
 7006WAT      O21259   2.889   3.153   0.621
 7006WAT     H121260   2.879   3.131   0.524
 7006WAT     H221261   2.969   3.104   0.657
 7007WAT      O21262   0.754   7.075   7.420
 7007WAT     H121263   0.838   7.101   7.371
 7007WAT     H221264   0.749   6.975   7.426
 7008WAT      O21265   7.237   6.008   7.176
 7008WAT     H121266   7.293   6.035   7.097
 7008WAT     H221267   7.149   6.055   7.172
 7009WAT      O21268   1.584   9.370   7.796
 7009WAT     H121269   1.645   9.425   7.739
 7009WAT     H221270   1.514   9.428   7.836
 7010WAT      O21271   4.975   9.571   8.971
 7010WAT     H121272   4.973   9.481   8.927
 7010WAT     H221273   5.007   9.561   9.065
 7011WAT      O21274   9.066   7.032   5.116
 7011WAT     H121275   9.151   6.998   5.074
 7011WAT     H221276   9.027   6.961   5.173
 7012WAT      O21277   4.288   8.373   8.819
 7012WAT     H121278   4.220   8.318   8.770
 7012WAT     H221279   4.260   8.469   8.816
 7013WAT      O21280   2.989   3.148   7.363
 7013WAT     H121281   2.895   3.118   7.374
 7013WAT     H221282   3.031   3.161   7.453
 7014WAT      O21283   2.450   1.106   9.276
 7014WAT     H121284   2.498   1.105   9.189
 7014WAT     H221285   2.511   1.073   9.348
 7015WAT      O21286   4.051   5.005   8.738
 7015WAT     H121287   3.993   5.021   8.818
 7015WAT     H221288   4.000   4.954   8.669
 7016WAT      O21289   4.758   9.833   4.188
 7016WAT     H121290   4.828   9.892   4.229
 7016WAT     H221291   4.769   9.832   4.089
 7017WAT      O21292   4.127   8.094   1.283
 7017WAT     H121293   4.126   8.179   1.336
 7017WAT     H221294   4.153   8.114   1.189
 7018WAT      O21295   4.749   8.386   8.863
 7018WAT     H121296   4.839   8.411   8.825
 7018WAT     H221297   4.700   8.329   8.797
 7019WAT      O21298   4.792   8.895   2.858
 7019WAT     H121299   4.763   8.800   2.873
 7019WAT     H221300   4.736   8.956   2.914
 7020WAT      O21301   8.650   1.140   5.948
 7020WAT     H121302   8.577   1.108   6.009
 7020WAT     H221303   8.611   1.192   5.872
 7021WAT      O21304   6.719   2.623   7.659
 7021WAT     H121305   6.641   2.563   7.640
 7021WAT     H221306   6.770   2.639   7.575
 7022WAT      O21307   2.315   0.579   4.497
 7022WAT     H121308   2.286   0.674   4.508
 7022WAT     H221309   2.403   0.566   4.541
 7023WAT      O21310   5.694   8.130   3.260
 7023WAT     H121311   5.668   8.040   3.226
 7023WAT     H221312   5.754   8.120   3.340
 7024WAT      O21313   4.386   7.034   1.097
 7024WAT     H121314   4.286   7.030   1.106
 7024WAT     H221315   4.418   7.127   1.118
 7025WAT      O21316   1.256   8.171   8.767
 7025WAT     H121317   1.194   8.124   8.705
 7025WAT     H221318   1.277   8.112   8.845
 7026WAT      O21319   3.726   2.514   7.557
 7026WAT     H121320   3.734   2.414   7.551
 7026WAT     H221321   3.635   2.541   7.526
 7027WAT      O21322   6.469   0.791   1.079
 7027WAT     H121323   6.454   0.747   0.990
 7027WAT     H221324   6.510   0.881   1.065
 7028WAT      O21325   4.549   5.998   4.283
 7028WAT     H121326   4.628   5.951   4.322
 7028WAT     H221327   4.498   5.934   4.226
 7029WAT      O21328   7.552   1.979   8.207
 7029WAT     H121329   7.476   2.015   8.152
 7029WAT     H221330   7.567   2.039   8.286
 7030WAT      O21331   0.410   8.571   0.679
 7030WAT     H121332   0.353   8.511   0.736
 7030WAT     H221333   0.382   8.562   0.584
 7031WAT      O21334   8.101   9.840   1.412
 7031WAT     H121335   8.121   9.749   1.375
 7031WAT     H221336   8.106   9.907   1.338
 7032WAT      O21337   7.663   7.124   6.340
 7032WAT     H121338   7.622   7.146   6.251
 7032WAT     H221339   7.591   7.113   6.408
 7033WAT      O21340   1.965   3.994   2.146
 7033WAT     H121341   1.971   3.906   2.193
 7033WAT     H221342   1.976   4.068   2.213
 7034WAT      O21343   4.912   2.525   4.160
 7034WAT     H121344   4.836   2.571   4.115
 7034WAT     H221345   4.975   2.592   4.198
 7035WAT      O21346   0.052   4.677   3.718
 7035WAT     H121347   0.101   4.738   3.656
 7035WAT     H221348   0.111   4.654   3.796
 7036WAT      O21349   2.375   5.410   5.299
 7036WAT     H121350   2.430   5.344   5.250
 7036WAT     H221351   2.392   5.402   5.397
 7037WAT      O21352   0.114   6.159   1.497
 7037WAT     H121353   0.054   6.080   1.504
 7037WAT     H221354   0.074   6.237   1.546
 7038WAT      O21355   8.338   5.485   2.100
 7038WAT     H121356   8.363   5.549   2.173
 7038WAT     H221357   8.421   5.448   2.058
 7039WAT      O21358   7.823   0.615   9.014
 7039WAT     H121359   7.893   0.686   9.022
 7039WAT     H221360   7.807   0.574   9.104
 7040WAT      O21361   2.230   2.686   0.127
 7040WAT     H121362   2.281   2.666   0.211
 7040WAT     H221363   2.294   2.707   0.053
 7041WAT      O21364   2.087   2.363   5.855
 7041WAT     H121365   2.075   2.435   5.787
 7041WAT     H221366   2.071   2.400   5.947
 7042WAT      O21367   5.934   3.388   5.119
 7042WAT     H121368   5.912   3.356   5.027
 7042WAT     H221369   6.018   3.442   5.116
 7043WAT      O21370   0.721   8.701   7.353
 7043WAT     H121371   0.744   8.605   7.336
 7043WAT     H221372   0.803   8.757   7.344
 7044WAT      O21373   2.192   1.760   2.909
 7044WAT     H121374   2.167   1.807   2.994
 7044WAT     H221375   2.125   1.690   2.888
 7045WAT      O21376   0.708   3.365   1.191
 7045WAT     H121377   0.652   3.416   1.257
 7045WAT     H221378   0.759   3.293   1.240
 7046WAT      O21379   0.104   5.894   1.212
 7046WAT     H121380   0.086   5.826   1.141
 7046WAT     H221381   0.060   5.866   1.297
 7047WAT      O21382   9.357   4.545   1.677
 7047WAT     H121383   9.360   4.590   1.766
 7047WAT     H221384   9.423   4.470   1.676
 7048WAT      O21385   9.655   8.866   0.171
 7048WAT     H121386   9.571   8.914   0.195
 7048WAT     H221387   9.717   8.930   0.123
 7049WAT      O21388   6.889   1.064   8.261
 7049WAT     H121389   6.941   1.074   8.176
 7049WAT     H221390   6.833   1.145   8.276
 7050WAT      O21391   3.402   1.563   2.059
 7050WAT     H121392   3.468   1.557   1.985
 7050WAT     H221393   3.315   1.598   2.024
 7051WAT      O21394   0.200   7.549   8.661
 7051WAT     H121395   0.212   7.493   8.579
 7051WAT     H221396   0.164   7.639   8.636
 7052WAT      O21397   0.978   0.139   6.177
 7052WAT     H121398   1.010   0.045   6.187
 7052WAT     H221399   1.047   0.202   6.214
 7053WAT      O21400   0.546   5.812   5.201
 7053WAT     H121401   0.504   5.721   5.192
 7053WAT     H221402   0.549   5.855   5.111
 7054WAT      O21403   2.930   5.316   8.125
 7054WAT     H121404   3.002   5.317   8.055
 7054WAT     H221405   2.949   5.244   8.192
 7055WAT      O21406   8.958   9.019   7.160
 7055WAT     H121407   9.005   8.983   7.240
 7055WAT     H221408   8.864   9.042   7.183
 7056WAT      O21409   7.149   7.931   0.442
 7056WAT     H121410   7.206   7.856   0.408
 7056WAT     H221411   7.208   8.004   0.476
 7057WAT      O21412   8.401   2.564   5.692
 7057WAT     H121413   8.439   2.648   5.653
 7057WAT     H221414   8.363   2.584   5.782
 7058WAT      O21415   9.710   3.435   9.765
 7058WAT     H121416   9.738   3.465   9.674
 7058WAT     H221417   9.612   3.416   9.764
 7059WAT      O21418   7.736   6.371   2.778
 7059WAT     H121419   7.741   6.457   2.726
 7059WAT     H221420   7.774   6.385   2.870
 7060WAT      O21421   9.022   9.182   6.178
 7060WAT     H121422   8.993   9.211   6.086
 7060WAT     H221423   9.089   9.247   6.214
 7061WAT      O21424   7.724   2.419   0.378
 7061WAT     H121425   7.628   2.398   0.357
 7061WAT     H221426   7.765   2.342   0.427
 7062WAT      O21427   1.239   3.317   0.761
 7062WAT     H121428   1.275   3.408   0.742
 7062WAT     H221429   1.290   3.276   0.837
 7063WAT      O21430   6.169   1.815   7.048
 7063WAT     H121431   6.231   1.739   7.029
 7063WAT     H221432   6.182   1.886   6.979
 7064WAT      O21433   0.008   3.754   0.916
 7064WAT     H121434  -0.078   3.754   0.967
 7064WAT     H221435   0.081   3.716   0.974
 7065WAT      O21436   2.399   3.705   9.540
 7065WAT     H121437   2.361   3.780   9.486
 7065WAT     H221438   2.479   3.667   9.493
 7066WAT      O21439   1.932   7.913   7.391
 7066WAT     H121440   2.020   7.865   7.398
 7066WAT     H221441   1.931   7.991   7.453
 7067WAT      O21442   4.418   1.950   6.278
 7067WAT     H121443   4.342   1.955   6.344
 7067WAT     H221444   4.469   1.865   6.294
 7068WAT      O21445   8.766   6.440   0.083
 7068WAT     H121446   8.844   6.496   0.110
 7068WAT     H221447   8.782   6.400  -0.007
 7069WAT      O21448   3.060   4.893   9.552
 7069WAT     H121449   2.965   4.864   9.567
 7069WAT     H221450   3.071   4.923   9.457
 7070WAT      O21451   7.039   1.863   9.539
 7070WAT     H121452   7.132   1.896   9.524
 7070WAT     H221453   7.033   1.768   9.509
 7071WAT      O21454   4.232   5.895   1.143
 7071WAT     H121455   4.139   5.866   1.119
 7071WAT     H221456   4.236   5.913   1.241
 7072WAT      O21457   4.435   5.755   8.995
 7072WAT     H121458   4.436   5.836   8.936
 7072WAT     H221459   4.458   5.782   9.089
 7073WAT      O21460   6.697   2.084   1.975
 7073WAT     H121461   6.657   2.136   2.050
 7073WAT     H221462   6.788   2.120   1.954
 7074WAT      O21463   7.061   0.686   1.357
 7074WAT     H121464   7.002   0.643   1.289
 7074WAT     H221465   7.014   0.688   1.445
 7075WAT      O21466   5.599   5.090   5.249
 7075WAT     H121467   5.631   5.157   5.316
 7075WAT     H221468   5.524   5.037   5.288
 7076WAT      O21469   6.133   4.694   2.872
 7076WAT     H121470   6.143   4.684   2.773
 7076WAT     H221471   6.209   4.749   2.908
 7077WAT      O21472   7.975   8.908   1.968
 7077WAT     H121473   7.991   8.905   2.067
 7077WAT     H221474   7.996   8.818   1.928
 7078WAT      O21475   3.530   8.321   4.276
 7078WAT     H121476   3.589   8.299   4.199
 7078WAT     H221477   3.437   8.339   4.243
 7079WAT      O21478   0.790   4.058   9.183
 7079WAT     H121479   0.739   3.977   9.155
 7079WAT     H221480   0.830   4.102   9.103
 7080WAT      O21481   9.041   2.345   6.668
 7080WAT     H121482   8.973   2.403   6.712
 7080WAT     H221483   9.096   2.400   6.605
 7081WAT      O21484   6.735   0.946   4.650
 7081WAT     H121485   6.695   0.883   4.583
 7081WAT     H221486   6.719   0.912   4.742
 7082WAT      O21487   2.990   5.199   9.227
 7082WAT     H121488   2.904   5.214   9.277
 7082WAT     H221489   3.066   5.195   9.292
 7083WAT      O21490   0.112   1.496   2.968
 7083WAT     H121491   0.120   1.400   2.996
 7083WAT     H221492   0.190   1.548   3.003
 7084WAT      O21493   0.357   1.095   0.648
 7084WAT     H121494   0.376   1.048   0.735
 7084WAT     H221495   0.430   1.160   0.629
 7085WAT      O21496   5.815   8.350   5.060
 7085WAT     H121497   5.757   8.361   5.141
 7085WAT     H221498   5.823   8.438   5.013
 7086WAT      O21499   7.838   6.611   2.687
 7086WAT     H121500   7.891   6.688   2.722
 7086WAT     H221501   7.843   6.610   2.587
 7087WAT      O21502   9.067   7.813   8.465
 7087WAT     H121503   9.068   7.720   8.426
 7087WAT     H221504   9.145   7.824   8.526
 7088WAT      O21505   8.526   2.722   2.294
 7088WAT     H121506   8.579   2.804   2.316
 7088WAT     H221507   8.544   2.651   2.362
 7089WAT      O21508   4.465   2.157   2.294
 7089WAT     H121509   4.430   2.094   2.226
 7089WAT     H221510   4.521   2.228   2.250
 7090WAT      O21511   3.589   3.837   3.725
 7090WAT     H121512   3.669   3.779   3.711
 7090WAT     H221513   3.595   3.918   3.666
 7091WAT      O21514   1.494   4.530   2.068
 7091WAT     H121515   1.476   4.617   2.024
 7091WAT     H221516   1.437   4.522   2.150
 7092WAT      O21517   4.061   7.021   9.184
 7092WAT     H121518   4.035   7.096   9.124
 7092WAT     H221519   3.987   6.953   9.188
 7093WAT      O21520   6.016   5.980   5.108
 7093WAT     H121521   5.940   5.950   5.165
 7093WAT     H221522   6.007   5.941   5.016
 7094WAT      O21523   8.233   3.230   6.612
 7094WAT     H121524   8.243   3.142   6.659
 7094WAT     H221525   8.201   3.215   6.519
 7095WAT      O21526   4.267   2.989   6.106
 7095WAT     H121527   4.239   2.945   6.021
 7095WAT     H221528   4.292   3.084   6.088
 7096WAT      O21529   2.961   6.932   1.736
 7096WAT     H121530   2.976   6.925   1.835
 7096WAT     H221531   2.988   7.023   1.704
 7097WAT      O21532   0.838   1.769   7.742
 7097WAT     H121533   0.870   1.859   7.772
 7097WAT     H221534   0.742   1.774   7.717
 7098WAT      O21535   9.770   1.142   9.334
 7098WAT     H121536   9.775   1.073   9.405
 7098WAT     H221537   9.687   1.127   9.279
 7099WAT      O21538   7.298   6.676   3.010
 7099WAT     H121539   7.379   6.679   3.069
 7099WAT     H221540   7.220   6.717   3.058
 7100WAT      O21541   1.794   1.545   1.442
 7100WAT     H121542   1.774   1.484   1.519
 7100WAT     H221543   1.889   1.530   1.412
 7101WAT      O21544   5.951   0.055   6.656
 7101WAT     H121545   5.903   0.039   6.570
 7101WAT     H221546   5.887   0.048   6.732
 7102WAT      O21547   1.197   0.647   2.241
 7102WAT     H121548   1.182   0.703   2.323
 7102WAT     H221549   1.234   0.704   2.168
 7103WAT      O21550   2.384   0.192   9.121
 7103WAT     H121551   2.304   0.186   9.062
 7103WAT     H221552   2.465   0.215   9.067
 7104WAT      O21553   6.271   2.708   1.305
 7104WAT     H121554   6.188   2.738   1.352
 7104WAT     H221555   6.250   2.693   1.208
 7105WAT      O21556   3.992   0.924   4.696
 7105WAT     H121557   3.966   0.939   4.792
 7105WAT     H221558   4.079   0.875   4.693
 7106WAT      O21559   2.519   6.925   4.490
 7106WAT     H121560   2.468   6.959   4.411
 7106WAT     H221561   2.520   6.996   4.561
 7107WAT      O21562   8.961   8.915   4.362
 7107WAT     H121563   8.865   8.913   4.336
 7107WAT     H221564   8.977   8.848   4.435
 7108WAT      O21565   0.236   6.435   4.139
 7108WAT     H121566   0.278   6.493   4.070
 7108WAT     H221567   0.307   6.401   4.201
 7109WAT      O21568   4.649   2.461   7.816
 7109WAT     H121569   4.629   2.515   7.734
 7109WAT     H221570   4.730   2.405   7.799
 7110WAT      O21571   6.984   3.993   6.075
 7110WAT     H121572   7.051   3.935   6.121
 7110WAT     H221573   6.955   4.067   6.136
 7111WAT      O21574   3.193   5.951   4.641
 7111WAT     H121575   3.131   5.943   4.563
 7111WAT     H221576   3.277   5.900   4.622
 7112WAT      O21577   2.750   6.456   9.706
 7112WAT     H121578   2.772   6.358   9.697
 7112WAT     H221579   2.657   6.472   9.673
 7113WAT      O21580   4.465   8.661   1.841
 7113WAT     H121581   4.481   8.569   1.876
 7113WAT     H221582   4.383   8.661   1.783
 7114WAT      O21583   9.540   0.448   9.299
 7114WAT     H121584   9.596   0.408   9.226
 7114WAT     H221585   9.596   0.511   9.353
 7115WAT      O21586   5.038   3.711   2.715
 7115WAT     H121587   4.978   3.790   2.730
 7115WAT     H221588   5.008   3.662   2.633
 7116WAT      O21589   5.122   8.054   1.274
 7116WAT     H121590   5.052   8.049   1.203
 7116WAT     H221591   5.117   7.972   1.331
 7117WAT      O21592   4.745   4.413   8.951
 7117WAT     H121593   4.830   4.364   8.930
 7117WAT     H221594   4.707   4.452   8.868
 7118WAT      O21595   4.514   9.006   3.906
 7118WAT     H121596   4.591   8.963   3.952
 7118WAT     H221597   4.546   9.084   3.853
 7119WAT      O21598   4.234   9.051   2.617
 7119WAT     H121599   4.300   8.986   2.654
 7119WAT     H221600   4.279   9.140   2.602
 7120WAT      O21601   3.482   0.334   6.439
 7120WAT     H121602   3.416   0.317   6.365
 7120WAT     H221603   3.484   0.256   6.501
 7121WAT      O21604   3.093   2.904   7.881
 7121WAT     H121605   3.126   2.886   7.974
 7121WAT     H221606   3.061   2.999   7.875
 7122WAT      O21607   7.982   8.226   0.266
 7122WAT     H121608   8.055   8.275   0.218
 7122WAT     H221609   7.982   8.130   0.236
 7123WAT      O21610   0.465   3.425   3.220
 7123WAT     H121611   0.516   3.379   3.147
 7123WAT     H221612   0.508   3.407   3.308
 7124WAT      O21613   8.571   0.433   5.099
 7124WAT     H121614   8.574   0.523   5.054
 7124WAT     H221615   8.560   0.446   5.197
 7125WAT      O21616   8.918   7.995   6.531
 7125WAT     H121617   9.008   7.954   6.526
 7125WAT     H221618   8.856   7.949   6.468
 7126WAT      O21619   6.092   3.390   7.480
 7126WAT     H121620   6.138   3.469   7.439
 7126WAT     H221621   6.086   3.402   7.579
 7127WAT      O21622   3.695   4.449   4.096
 7127WAT     H121623   3.699   4.458   3.996
 7127WAT     H221624   3.601   4.432   4.125
 7128WAT      O21625   8.655   3.265   0.197
 7128WAT     H121626   8.702   3.353   0.208
 7128WAT     H221627   8.663   3.234   0.102
 7129WAT      O21628   4.765   6.793   9.699
 7129WAT     H121629   4.737   6.708   9.745
 7129WAT     H221630   4.707   6.868   9.731
 7130WAT      O21631   2.984   0.200   0.073
 7130WAT     H121632   2.890   0.170   0.089
 7130WAT     H221633   3.030   0.212   0.160
 7131WAT      O21634   1.283   2.306   2.075
 7131WAT     H121635   1.187   2.314   2.046
 7131WAT     H221636   1.286   2.286   2.173
 7132WAT      O21637   1.285   1.678   1.118
 7132WAT     H121638   1.217   1.705   1.050
 7132WAT     H221639   1.321   1.760   1.163
 7133WAT      O21640   0.832   8.520   3.951
 7133WAT     H121641   0.830   8.462   4.032
 7133WAT     H221642   0.923   8.561   3.942
 7134WAT      O21643   2.418   5.762   0.506
 7134WAT     H121644   2.324   5.796   0.507
 7134WAT     H221645   2.418   5.663   0.493
 7135WAT      O21646   6.995   0.920   0.861
 7135WAT     H121647   6.907   0.951   0.895
 7135WAT     H221648   7.012   0.826   0.892
 7136WAT      O21649   1.847   8.623   0.621
 7136WAT     H121650   1.879   8.679   0.697
 7136WAT     H221651   1.864   8.526   0.640
 7137WAT      O21652   9.372   8.616   1.660
 7137WAT     H121653   9.379   8.574   1.751
 7137WAT     H221654   9.291   8.675   1.657
 7138WAT      O21655   1.291   6.578   6.331
 7138WAT     H121656   1.291   6.486   6.370
 7138WAT     H221657   1.199   6.616   6.337
 7139WAT      O21658   1.408   7.226   0.900
 7139WAT     H121659   1.496   7.179   0.890
 7139WAT     H221660   1.366   7.235   0.810
 7140WAT      O21661   6.098   8.547   4.132
 7140WAT     H121662   6.006   8.530   4.168
 7140WAT     H221663   6.165   8.537   4.206
 7141WAT      O21664   1.969   6.310   4.218
 7141WAT     H121665   1.975   6.226   4.164
 7141WAT     H221666   2.025   6.381   4.175
 7142WAT      O21667   1.503   7.135   9.595
 7142WAT     H121668   1.598   7.139   9.624
 7142WAT     H221669   1.499   7.111   9.498
 7143WAT      O21670   3.410   9.061   8.664
 7143WAT     H121671   3.485   9.080   8.600
 7143WAT     H221672   3.438   9.084   8.757
 7144WAT      O21673   9.166   6.384   8.948
 7144WAT     H121674   9.073   6.417   8.965
 7144WAT     H221675   9.221   6.458   8.908
 7145WAT      O21676   6.665   8.311   2.871
 7145WAT     H121677   6.709   8.348   2.789
 7145WAT     H221678   6.567   8.327   2.867
 7146WAT      O21679   8.516   0.316   7.785
 7146WAT     H121680   8.615   0.324   7.772
 7146WAT     H221681   8.490   0.220   7.786
 7147WAT      O21682   5.379   6.585   0.114
 7147WAT     H121683   5.350   6.503   0.162
 7147WAT     H221684   5.316   6.604   0.039
 7148WAT      O21685   3.193   8.923   5.954
 7148WAT     H121686   3.276   8.977   5.942
 7148WAT     H221687   3.169   8.921   6.051
 7149WAT      O21688   0.623   6.291   7.429
 7149WAT     H121689   0.574   6.224   7.486
 7149WAT     H221690   0.631   6.377   7.478
 7150WAT      O21691   4.475   5.756   2.682
 7150WAT     H121692   4.460   5.788   2.775
 7150WAT     H221693   4.507   5.662   2.683
 7151WAT      O21694   2.234   6.513   4.662
 7151WAT     H121695   2.265   6.428   4.619
 7151WAT     H221696   2.282   6.591   4.621
 7152WAT      O21697   1.007   5.329   5.608
 7152WAT     H121698   1.022   5.250   5.548
 7152WAT     H221699   0.911   5.333   5.635
 7153WAT      O21700   5.319   6.366   2.994
 7153WAT     H121701   5.326   6.291   2.928
 7153WAT     H221702   5.332   6.330   3.086
 7154WAT      O21703   3.740   9.841   2.882
 7154WAT     H121704   3.774   9.753   2.849
 7154WAT     H221705   3.804   9.914   2.855
 7155WAT      O21706   4.862   6.444   7.776
 7155WAT     H121707   4.806   6.372   7.817
 7155WAT     H221708   4.915   6.490   7.848
 7156WAT      O21709   1.902   9.016   8.131
 7156WAT     H121710   1.979   9.034   8.191
 7156WAT     H221711   1.898   9.085   8.059
 7157WAT      O21712   0.854   3.408   0.589
 7157WAT     H121713   0.796   3.459   0.652
 7157WAT     H221714   0.819   3.315   0.577
 7158WAT      O21715   9.531   3.657   6.489
 7158WAT     H121716   9.500   3.563   6.475
 7158WAT     H221717   9.624   3.656   6.526
 7159WAT      O21718   7.035   5.964   1.676
 7159WAT     H121719   7.099   5.900   1.717
 7159WAT     H221720   6.950   5.916   1.652
 7160WAT      O21721   4.488   1.978   8.056
 7160WAT     H121722   4.543   1.917   7.999
 7160WAT     H221723   4.432   2.037   7.997
 7161WAT      O21724   1.145   3.830   9.800
 7161WAT     H121725   1.211   3.755   9.795
 7161WAT     H221726   1.056   3.800   9.765
 7162WAT      O21727   9.179   0.718   9.278
 7162WAT     H121728   9.131   0.785   9.335
 7162WAT     H221729   9.188   0.754   9.185
 7163WAT      O21730   5.094   2.982   0.270
 7163WAT     H121731   5.073   3.045   0.195
 7163WAT     H221732   5.010   2.956   0.316
 7164WAT      O21733   4.955   3.364   1.783
 7164WAT     H121734   4.889   3.289   1.789
 7164WAT     H221735   4.909   3.446   1.748
 7165WAT      O21736   3.079   2.498   5.187
 7165WAT     H121737   3.019   2.418   5.186
 7165WAT     H221738   3.158   2.480   5.246
 7166WAT      O21739   0.308   1.149   7.144
 7166WAT     H121740   0.319   1.115   7.237
 7166WAT     H221741   0.312   1.073   7.079
 7167WAT      O21742   6.962   2.995   9.562
 7167WAT     H121743   6.989   3.011   9.468
 7167WAT     H221744   7.009   3.059   9.623
 7168WAT      O21745   8.747   8.923   5.581
 7168WAT     H121746   8.764   9.006   5.634
 7168WAT     H221747   8.740   8.845   5.643
 7169WAT      O21748   2.652   8.904   9.498
 7169WAT     H121749   2.597   8.987   9.506
 7169WAT     H221750   2.732   8.922   9.440
 7170WAT      O21751   3.675   1.992   5.706
 7170WAT     H121752   3.609   1.997   5.781
 7170WAT     H221753   3.703   2.085   5.680
 7171WAT      O21754   3.778   3.819   5.057
 7171WAT     H121755   3.756   3.736   5.005
 7171WAT     H221756   3.852   3.869   5.010
 7172WAT      O21757   4.164   8.200   2.189
 7172WAT     H121758   4.258   8.211   2.223
 7172WAT     H221759   4.108   8.276   2.220
 7173WAT      O21760   7.460   7.167   9.343
 7173WAT     H121761   7.424   7.128   9.427
 7173WAT     H221762   7.385   7.188   9.280
 7174WAT      O21763   9.257   4.996   3.318
 7174WAT     H121764   9.277   4.918   3.378
 7174WAT     H221765   9.168   5.035   3.344
 7175WAT      O21766   0.060   8.905   5.148
 7175WAT     H121767   0.113   8.957   5.215
 7175WAT     H221768   0.074   8.943   5.057
 7176WAT      O21769   3.738   5.544   3.327
 7176WAT     H121770   3.733   5.593   3.240
 7176WAT     H221771   3.735   5.610   3.402
 7177WAT      O21772   7.081   6.055   2.939
 7177WAT     H121773   7.035   6.014   3.018
 7177WAT     H221774   7.059   6.152   2.935
 7178WAT      O21775   0.502   4.412   4.325
 7178WAT     H121776   0.493   4.437   4.229
 7178WAT     H221777   0.592   4.371   4.340
 7179WAT      O21778   7.586   5.532   8.106
 7179WAT     H121779   7.589   5.566   8.012
 7179WAT     H221780   7.530   5.592   8.162
 7180WAT      O21781   2.390   2.196   8.035
 7180WAT     H121782   2.292   2.209   8.016
 7180WAT     H221783   2.408   2.099   8.051
 7181WAT      O21784   2.283   8.104   5.774
 7181WAT     H121785   2.265   8.020   5.826
 7181WAT     H221786   2.219   8.111   5.698
 7182WAT      O21787   3.502   8.808   5.176
 7182WAT     H121788   3.469   8.722   5.138
 7182WAT     H221789   3.476   8.883   5.116
 7183WAT      O21790   3.578   3.703   8.775
 7183WAT     H121791   3.499   3.684   8.832
 7183WAT     H221792   3.657   3.726   8.832
 7184WAT      O21793   8.748   9.779   6.653
 7184WAT     H121794   8.762   9.878   6.664
 7184WAT     H221795   8.749   9.757   6.555
 7185WAT      O21796   1.273   4.672   8.044
 7185WAT     H121797   1.362   4.652   8.085
 7185WAT     H221798   1.273   4.764   8.007
 7186WAT      O21799   4.708   5.706   0.424
 7186WAT     H121800   4.665   5.701   0.514
 7186WAT     H221801   4.639   5.691   0.353
 7187WAT      O21802   9.202   6.334   2.333
 7187WAT     H121803   9.198   6.415   2.275
 7187WAT     H221804   9.227   6.255   2.277
 7188WAT      O21805   4.887   6.583   1.337
 7188WAT     H121806   4.920   6.515   1.402
 7188WAT     H221807   4.955   6.656   1.327
 7189WAT      O21808   8.971   6.701   4.268
 7189WAT     H121809   9.066   6.671   4.266
 7189WAT     H221810   8.956   6.770   4.197
 7190WAT      O21811   5.600   7.957   5.173
 7190WAT     H121812   5.668   7.944   5.245
 7190WAT     H221813   5.535   7.881   5.174
 7191WAT      O21814   6.242   4.074   5.752
 7191WAT     H121815   6.291   4.137   5.692
 7191WAT     H221816   6.158   4.116   5.784
 7192WAT      O21817   1.484   8.173   2.296
 7192WAT     H121818   1.398   8.209   2.262
 7192WAT     H221819   1.554   8.179   2.225
 7193WAT      O21820   5.110   8.038   1.780
 7193WAT     H121821   5.114   8.057   1.682
 7193WAT     H221822   5.026   8.077   1.818
 7194WAT      O21823   7.691   1.071   7.091
 7194WAT     H121824   7.639   0.986   7.086
 7194WAT     H221825   7.651   1.131   7.160
 7195WAT      O21826   6.132   2.396   9.575
 7195WAT     H121827   6.194   2.393   9.653
 7195WAT     H221828   6.103   2.304   9.551
 7196WAT      O21829   2.645   6.257   7.759
 7196WAT     H121830   2.732   6.294   7.793
 7196WAT     H221831   2.637   6.161   7.786
 7197WAT      O21832   9.077   4.282   4.424
 7197WAT     H121833   8.990   4.290   4.376
 7197WAT     H221834   9.080   4.348   4.500
 7198WAT      O21835   9.094   6.678   9.349
 7198WAT     H121836   9.114   6.776   9.356
 7198WAT     H221837   9.166   6.633   9.296
 7199WAT      O21838   7.810   5.526   9.383
 7199WAT     H121839   7.749   5.580   9.442
 7199WAT     H221840   7.869   5.588   9.331
 7200WAT      O21841   4.119   8.185   2.869
 7200WAT     H121842   4.124   8.215   2.774
 7200WAT     H221843   4.028   8.147   2.887
 7201WAT      O21844   4.110   2.225   6.299
 7201WAT     H121845   4.028   2.277   6.275
 7201WAT     H221846   4.116   2.215   6.398
 7202WAT      O21847   6.263   9.057   3.424
 7202WAT     H121848   6.261   8.960   3.446
 7202WAT     H221849   6.356   9.084   3.401
 7203WAT      O21850   1.478   9.476   9.798
 7203WAT     H121851   1.504   9.522   9.714
 7203WAT     H221852   1.441   9.542   9.863
 7204WAT      O21853   2.405   7.499   3.732
 7204WAT     H121854   2.408   7.589   3.687
 7204WAT     H221855   2.481   7.443   3.699
 7205WAT      O21856   0.384   4.575   0.275
 7205WAT     H121857   0.345   4.494   0.319
 7205WAT     H221858   0.479   4.586   0.305
 7206WAT      O21859   0.356   4.647   4.358
 7206WAT     H121860   0.417   4.568   4.353
 7206WAT     H221861   0.265   4.621   4.325
 7207WAT      O21862   7.361   9.237   5.685
 7207WAT     H121863   7.263   9.245   5.670
 7207WAT     H221864   7.378   9.183   5.767
 7208WAT      O21865   4.960   0.320   6.873
 7208WAT     H121866   4.904   0.360   6.800
 7208WAT     H221867   5.033   0.265   6.833
 7209WAT      O21868   8.165   0.545   9.631
 7209WAT     H121869   8.109   0.479   9.681
 7209WAT     H221870   8.123   0.636   9.640
 7210WAT      O21871   2.591   5.017   6.124
 7210WAT     H121872   2.642   5.098   6.152
 7210WAT     H221873   2.498   5.022   6.161
 7211WAT      O21874   3.216   9.011   1.924
 7211WAT     H121875   3.159   8.929   1.934
 7211WAT     H221876   3.215   9.040   1.828
 7212WAT      O21877   5.864   9.323   2.286
 7212WAT     H121878   5.788   9.376   2.247
 7212WAT     H221879   5.859   9.229   2.252
 7213WAT      O21880   9.360   1.852   0.200
 7213WAT     H121881   9.426   1.781   0.226
 7213WAT     H221882   9.388   1.894   0.113
 7214WAT      O21883   3.290   1.944   2.156
 7214WAT     H121884   3.236   1.963   2.238
 7214WAT     H221885   3.375   1.997   2.159
 7215WAT      O21886   8.955   5.883   7.415
 7215WAT     H121887   9.022   5.881   7.489
 7215WAT     H221888   8.969   5.803   7.356
 7216WAT      O21889   8.224   4.413   4.266
 7216WAT     H121890   8.195   4.475   4.338
 7216WAT     H221891   8.188   4.321   4.284
 7217WAT      O21892   9.150   2.970   6.080
 7217WAT     H121893   9.147   3.056   6.130
 7217WAT     H221894   9.105   2.982   5.991
 7218WAT      O21895   2.469   9.192   1.641
 7218WAT     H121896   2.503   9.099   1.652
 7218WAT     H221897   2.405   9.195   1.564
 7219WAT      O21898   5.227   0.442   1.236
 7219WAT     H121899   5.311   0.429   1.183
 7219WAT     H221900   5.220   0.372   1.307
 7220WAT      O21901   4.898   8.468   0.735
 7220WAT     H121902   4.919   8.373   0.710
 7220WAT     H221903   4.804   8.489   0.709
 7221WAT      O21904   4.752   0.963   3.077
 7221WAT     H121905   4.717   0.973   3.170
 7221WAT     H221906   4.687   0.912   3.021
 7222WAT      O21907   6.393   7.135   5.336
 7222WAT     H121908   6.409   7.113   5.240
 7222WAT     H221909   6.431   7.225   5.357
 7223WAT      O21910   8.118   3.438   2.034
 7223WAT     H121911   8.158   3.496   2.106
 7223WAT     H221912   8.039   3.484   1.995
 7224WAT      O21913   7.829   5.041   7.952
 7224WAT     H121914   7.731   5.032   7.970
 7224WAT     H221915   7.877   4.963   7.992
 7225WAT      O21916   0.153   8.571   8.421
 7225WAT     H121917   0.090   8.496   8.402
 7225WAT     H221918   0.246   8.535   8.427
 7226WAT      O21919   4.321   7.734   0.595
 7226WAT     H121920   4.350   7.738   0.499
 7226WAT     H221921   4.224   7.711   0.599
 7227WAT      O21922   5.881   7.952   0.433
 7227WAT     H121923   5.910   7.915   0.521
 7227WAT     H221924   5.781   7.947   0.426
 7228WAT      O21925   0.638   0.623   9.124
 7228WAT     H121926   0.663   0.556   9.055
 7228WAT     H221927   0.607   0.708   9.080
 7229WAT      O21928   4.696   3.459   6.763
 7229WAT     H121929   4.692   3.443   6.665
 7229WAT     H221930   4.617   3.416   6.807
 7230WAT      O21931   3.081   7.883   9.325
 7230WAT     H121932   3.148   7.957   9.334
 7230WAT     H221933   3.054   7.875   9.229
 7231WAT      O21934   0.591   0.517   6.519
 7231WAT     H121935   0.612   0.489   6.612
 7231WAT     H221936   0.537   0.445   6.474
 7232WAT      O21937   3.197   3.950   7.795
 7232WAT     H121938   3.262   3.912   7.860
 7232WAT     H221939   3.105   3.919   7.818
 7233WAT      O21940   0.948   0.551   6.862
 7233WAT     H121941   0.900   0.587   6.782
 7233WAT     H221942   0.881   0.530   6.934
 7234WAT      O21943   3.254   1.544   1.715
 7234WAT     H121944   3.325   1.607   1.748
 7234WAT     H221945   3.253   1.544   1.615
 7235WAT      O21946   4.121   4.790   7.197
 7235WAT     H121947   4.187   4.860   7.167
 7235WAT     H221948   4.039   4.795   7.141
 7236WAT      O21949   8.942   6.653   6.669
 7236WAT     H121950   8.893   6.621   6.588
 7236WAT     H221951   9.035   6.680   6.644
 7237WAT      O21952   7.660   9.692   1.502
 7237WAT     H121953   7.695   9.607   1.462
 7237WAT     H221954   7.595   9.734   1.439
 7238WAT      O21955   4.264   6.028   2.803
 7238WAT     H121956   4.347   5.993   2.847
 7238WAT     H221957   4.278   6.034   2.704
 7239WAT      O21958   6.112   7.243   9.865
 7239WAT     H121959   6.194   7.252   9.922
 7239WAT     H221960   6.051   7.320   9.881
 7240WAT      O21961   4.667   0.413   7.702
 7240WAT     H121962   4.600   0.354   7.748
 7240WAT     H221963   4.749   0.360   7.680
 7241WAT      O21964   8.718   7.155   8.234
 7241WAT     H121965   8.724   7.243   8.281
 7241WAT     H221966   8.727   7.081   8.301
 7242WAT      O21967   2.777   2.770   2.909
 7242WAT     H121968   2.805   2.768   2.813
 7242WAT     H221969   2.813   2.689   2.956
 7243WAT      O21970   8.756   4.394   6.671
 7243WAT     H121971   8.843   4.372   6.627
 7243WAT     H221972   8.748   4.493   6.682
 7244WAT      O21973   4.791   8.203   1.380
 7244WAT     H121974   4.828   8.186   1.289
 7244WAT     H221975   4.746   8.292   1.382
 7245WAT      O21976   9.700   8.956   3.146
 7245WAT     H121977   9.664   9.034   3.095
 7245WAT     H221978   9.630   8.920   3.207
 7246WAT      O21979   2.167   9.511   9.704
 7246WAT     H121980   2.080   9.556   9.688
 7246WAT     H221981   2.151   9.418   9.738
 7247WAT      O21982   9.651   7.372   6.073
 7247WAT     H121983   9.739   7.329   6.094
 7247WAT     H221984   9.629   7.358   5.977
 7248WAT      O21985   9.160   9.801   2.779
 7248WAT     H121986   9.254   9.826   2.801
 7248WAT     H221987   9.124   9.863   2.709
 7249WAT      O21988   5.394   7.081   0.737
 7249WAT     H121989   5.373   7.036   0.824
 7249WAT     H221990   5.309   7.098   0.687
 7250WAT      O21991   9.525   0.921   2.987
 7250WAT     H121992   9.519   0.934   2.888
 7250WAT     H221993   9.508   0.825   3.009
 7251WAT      O21994   0.066   2.324   8.093
 7251WAT     H121995   0.048   2.228   8.115
 7251WAT     H221996   0.163   2.344   8.109
 7252WAT      O21997   6.953   3.040   7.363
 7252WAT     H121998   6.961   2.986   7.447
 7252WAT     H221999   7.013   3.120   7.368
 7253WAT      O22000   6.153   8.059   1.311
 7253WAT     H122001   6.204   7.973   1.319
 7253WAT     H222002   6.211   8.135   1.339
 7254WAT      O22003   8.533   8.437   6.754
 7254WAT     H122004   8.463   8.508   6.760
 7254WAT     H222005   8.624   8.479   6.748
 7255WAT      O22006   4.979   0.588   2.998
 7255WAT     H122007   4.996   0.683   3.023
 7255WAT     H222008   4.885   0.578   2.966
 7256WAT      O22009   2.354   5.971   6.367
 7256WAT     H122010   2.279   5.913   6.399
 7256WAT     H222011   2.403   5.925   6.294
 7257WAT      O22012   7.096   8.969   9.432
 7257WAT     H122013   7.089   8.889   9.491
 7257WAT     H222014   7.111   9.051   9.489
 7258WAT      O22015   6.941   1.942   2.187
 7258WAT     H122016   6.928   2.007   2.112
 7258WAT     H222017   7.023   1.967   2.238
 7259WAT      O22018   6.263   0.865   0.146
 7259WAT     H122019   6.165   0.861   0.166
 7259WAT     H222020   6.312   0.906   0.223
 7260WAT      O22021   2.434   4.886   1.118
 7260WAT     H122022   2.533   4.901   1.112
 7260WAT     H222023   2.389   4.971   1.143
 7261WAT      O22024   7.338   2.748   2.475
 7261WAT     H122025   7.394   2.686   2.530
 7261WAT     H222026   7.274   2.797   2.535
 7262WAT      O22027   8.833   5.739   7.001
 7262WAT     H122028   8.894   5.706   6.929
 7262WAT     H222029   8.875   5.725   7.090
 7263WAT      O22030   0.430   4.538   8.939
 7263WAT     H122031   0.529   4.525   8.947
 7263WAT     H222032   0.393   4.568   9.027
 7264WAT      O22033   8.055   3.436   5.227
 7264WAT     H122034   8.110   3.355   5.249
 7264WAT     H222035   7.992   3.455   5.302
 7265WAT      O22036   8.012   7.635   7.852
 7265WAT     H122037   7.993   7.552   7.800
 7265WAT     H222038   7.943   7.647   7.924
 7266WAT      O22039   6.890   8.564   4.991
 7266WAT     H122040   6.967   8.557   4.927
 7266WAT     H222041   6.874   8.660   5.013
 7267WAT      O22042   2.067   8.521   7.404
 7267WAT     H122043   2.112   8.496   7.489
 7267WAT     H222044   1.991   8.459   7.387
 7268WAT      O22045   4.431   7.300   9.237
 7268WAT     H122046   4.465   7.248   9.158
 7268WAT     H222047   4.406   7.392   9.208
 7269WAT      O22048   9.093   2.240   1.072
 7269WAT     H122049   9.112   2.222   0.975
 7269WAT     H222050   9.041   2.326   1.079
 7270WAT      O22051   2.941   6.646   2.021
 7270WAT     H122052   2.982   6.555   2.010
 7270WAT     H222053   2.887   6.648   2.105
 7271WAT      O22054   1.385   0.883   0.991
 7271WAT     H122055   1.434   0.958   0.945
 7271WAT     H222056   1.411   0.881   1.088
 7272WAT      O22057   1.162   1.856   5.248
 7272WAT     H122058   1.173   1.942   5.198
 7272WAT     H222059   1.245   1.838   5.301
 7273WAT      O22060   2.315   4.366   7.240
 7273WAT     H122061   2.400   4.418   7.242
 7273WAT     H222062   2.241   4.422   7.278
 7274WAT      O22063   4.071   0.496   3.226
 7274WAT     H122064   4.143   0.443   3.180
 7274WAT     H222065   3.982   0.463   3.196
 7275WAT      O22066   8.969   2.534   6.455
 7275WAT     H122067   8.988   2.491   6.367
 7275WAT     H222068   8.883   2.499   6.492
 7276WAT      O22069   7.623   4.173   6.772
 7276WAT     H122070   7.644   4.269   6.789
 7276WAT     H222071   7.539   4.166   6.719
 7277WAT      O22072   3.225   6.664   2.930
 7277WAT     H122073   3.273   6.626   2.851
 7277WAT     H222074   3.196   6.590   2.990
 7278WAT      O22075   7.820   2.101   4.657
 7278WAT     H122076   7.838   2.073   4.563
 7278WAT     H222077   7.864   2.037   4.720
 7279WAT      O22078   5.266   4.213   0.986
 7279WAT     H122079   5.328   4.278   1.029
 7279WAT     H222080   5.175   4.220   1.028
 7280WAT      O22081   3.117   7.291   9.513
 7280WAT     H122082   3.129   7.219   9.444
 7280WAT     H222083   3.117   7.249   9.604
 7281WAT      O22084   8.726   5.615   8.236
 7281WAT     H122085   8.655   5.614   8.165
 7281WAT     H222086   8.733   5.524   8.276
 7282WAT      O22087   7.125   2.360   0.948
 7282WAT     H122088   7.037   2.338   0.908
 7282WAT     H222089   7.144   2.458   0.935
 7283WAT      O22090   0.541   2.207   0.236
 7283WAT     H122091   0.446   2.217   0.268
 7283WAT     H222092   0.558   2.112   0.213
 7284WAT      O22093   1.866   3.134   4.632
 7284WAT     H122094   1.964   3.153   4.628
 7284WAT     H222095   1.851   3.036   4.622
 7285WAT      O22096   8.943   3.852   6.286
 7285WAT     H122097   9.028   3.856   6.340
 7285WAT     H222098   8.895   3.766   6.306
 7286WAT      O22099   3.077   7.138   1.965
 7286WAT     H122100   3.086   7.041   1.989
 7286WAT     H222101   3.155   7.166   1.909
 7287WAT      O22102   6.471   1.540   1.730
 7287WAT     H122103   6.405   1.607   1.696
 7287WAT     H222104   6.535   1.584   1.793
 7288WAT      O22105   0.679   3.342   2.063
 7288WAT     H122106   0.715   3.415   2.004
 7288WAT     H222107   0.655   3.380   2.152
 7289WAT      O22108   6.363   8.253   6.483
 7289WAT     H122109   6.322   8.171   6.522
 7289WAT     H222110   6.436   8.226   6.420
 7290WAT      O22111   2.228   0.097   0.143
 7290WAT     H122112   2.228   0.112   0.242
 7290WAT     H222113   2.136   0.115   0.107
 7291WAT      O22114   7.636   8.028   3.242
 7291WAT     H122115   7.711   8.077   3.287
 7291WAT     H222116   7.619   8.070   3.152
 7292WAT      O22117   6.331   1.724   7.437
 7292WAT     H122118   6.407   1.665   7.409
 7292WAT     H222119   6.289   1.687   7.519
 7293WAT      O22120   9.852   2.564   0.130
 7293WAT     H122121   9.929   2.501   0.118
 7293WAT     H222122   9.835   2.579   0.228
 7294WAT      O22123   3.849   4.712   4.699
 7294WAT     H122124   3.791   4.651   4.645
 7294WAT     H222125   3.792   4.768   4.759
 7295WAT      O22126   7.748   4.223   6.367
 7295WAT     H122127   7.766   4.165   6.287
 7295WAT     H222128   7.802   4.191   6.445
 7296WAT      O22129   3.832   4.727   1.615
 7296WAT     H122130   3.863   4.789   1.543
 7296WAT     H222131   3.897   4.651   1.623
 7297WAT      O22132   7.765   1.622   4.660
 7297WAT     H122133   7.675   1.617   4.703
 7297WAT     H222134   7.755   1.643   4.563
 7298WAT      O22135   2.755   4.226   6.385
 7298WAT     H122136   2.665   4.257   6.355
 7298WAT     H222137   2.823   4.297   6.365
 7299WAT      O22138   1.300   9.751   3.657
 7299WAT     H122139   1.332   9.661   3.688
 7299WAT     H222140   1.253   9.740   3.569
 7300WAT      O22141   6.971   3.762   4.777
 7300WAT     H122142   6.877   3.785   4.750
 7300WAT     H222143   7.026   3.750   4.694
 7301WAT      O22144   5.488   6.917   9.592
 7301WAT     H122145   5.551   6.967   9.651
 7301WAT     H222146   5.407   6.890   9.645
 7302WAT      O22147   6.839   6.322   0.225
 7302WAT     H122148   6.749   6.330   0.182
 7302WAT     H222149   6.831   6.274   0.312
 7303WAT      O22150   6.655   3.985   6.544
 7303WAT     H122151   6.714   4.062   6.567
 7303WAT     H222152   6.559   4.010   6.559
 7304WAT      O22153   7.063   8.638   7.431
 7304WAT     H122154   6.975   8.624   7.476
 7304WAT     H222155   7.049   8.684   7.343
 7305WAT      O22156   4.222   1.232   0.153
 7305WAT     H122157   4.313   1.223   0.193
 7305WAT     H222158   4.175   1.310   0.195
 7306WAT      O22159   1.202   3.392   1.322
 7306WAT     H122160   1.275   3.417   1.258
 7306WAT     H222161   1.161   3.474   1.360
 7307WAT      O22162   8.006   6.184   5.062
 7307WAT     H122163   8.016   6.089   5.092
 7307WAT     H222164   7.909   6.207   5.056
 7308WAT      O22165   2.890   9.753   6.868
 7308WAT     H122166   2.938   9.732   6.783
 7308WAT     H222167   2.955   9.757   6.944
 7309WAT      O22168   0.935   1.747   6.958
 7309WAT     H122169   0.865   1.779   6.895
 7309WAT     H222170   0.918   1.652   6.982
 7310WAT      O22171   9.371   2.583   7.705
 7310WAT     H122172   9.293   2.600   7.765
 7310WAT     H222173   9.338   2.565   7.612
 7311WAT      O22174   3.750   6.456   0.545
 7311WAT     H122175   3.761   6.538   0.602
 7311WAT     H222176   3.768   6.375   0.600
 7312WAT      O22177   2.357   1.472   1.224
 7312WAT     H122178   2.454   1.493   1.211
 7312WAT     H222179   2.322   1.527   1.301
 7313WAT      O22180   5.693   3.350   8.697
 7313WAT     H122181   5.715   3.426   8.759
 7313WAT     H222182   5.629   3.288   8.742
 7314WAT      O22183   9.063   1.922   6.379
 7314WAT     H122184   9.159   1.902   6.401
 7314WAT     H222185   9.025   1.981   6.450
 7315WAT      O22186   1.506   8.214   4.684
 7315WAT     H122187   1.485   8.264   4.768
 7315WAT     H222188   1.544   8.124   4.708
 7316WAT      O22189   8.336   1.685   5.831
 7316WAT     H122190   8.433   1.660   5.837
 7316WAT     H222191   8.319   1.734   5.746
 7317WAT      O22192   2.019   5.088   3.141
 7317WAT     H122193   2.009   5.006   3.084
 7317WAT     H222194   2.091   5.073   3.208
 7318WAT      O22195   2.483   4.898   2.068
 7318WAT     H122196   2.392   4.896   2.027
 7318WAT     H222197   2.550   4.864   2.002
 7319WAT      O22198   6.248   8.702   7.296
 7319WAT     H122199   6.290   8.634   7.235
 7319WAT     H222200   6.271   8.794   7.264
 7320WAT      O22201   8.571   5.183   0.499
 7320WAT     H122202   8.538   5.098   0.459
 7320WAT     H222203   8.552   5.185   0.597
 7321WAT      O22204   6.015   1.261   7.183
 7321WAT     H122205   5.967   1.178   7.213
 7321WAT     H222206   6.013   1.328   7.257
 7322WAT      O22207   8.799   2.999   0.986
 7322WAT     H122208   8.832   2.908   0.961
 7322WAT     H222209   8.841   3.068   0.926
 7323WAT      O22210   1.961   2.820   8.888
 7323WAT     H122211   1.988   2.827   8.984
 7323WAT     H222212   1.970   2.910   8.844
 7324WAT      O22213   3.105   7.379   1.738
 7324WAT     H122214   3.084   7.467   1.696
 7324WAT     H222215   3.075   7.379   1.834
 7325WAT      O22216   8.129   5.046   3.117
 7325WAT     H122217   8.096   5.093   3.199
 7325WAT     H222218   8.157   5.113   3.049
 7326WAT      O22219   5.922   6.010   7.125
 7326WAT     H122220   6.015   6.039   7.146
 7326WAT     H222221   5.884   5.958   7.202
 7327WAT      O22222   0.544   0.366   9.449
 7327WAT     H122223   0.634   0.329   9.424
 7327WAT     H222224   0.499   0.401   9.367
 7328WAT      O22225   2.258   9.073   1.956
 7328WAT     H122226   2.227   9.154   1.907
 7328WAT     H222227   2.242   8.992   1.900
 7329WAT      O22228   3.810   3.045   4.186
 7329WAT     H122229   3.855   3.052   4.097
 7329WAT     H222230   3.832   3.126   4.240
 7330WAT      O22231   5.700   9.014   5.769
 7330WAT     H122232   5.665   9.024   5.675
 7330WAT     H222233   5.640   9.062   5.832
 7331WAT      O22234   4.311   0.871   7.519
 7331WAT     H122235   4.365   0.821   7.587
 7331WAT     H222236   4.240   0.924   7.565
 7332WAT      O22237   9.667   2.911   7.429
 7332WAT     H122238   9.744   2.945   7.376
 7332WAT     H222239   9.676   2.944   7.524
 7333WAT      O22240   4.426   8.338   8.423
 7333WAT     H122241   4.502   8.306   8.367
 7333WAT     H222242   4.390   8.423   8.385
 7334WAT      O22243   7.509   6.597   1.316
 7334WAT     H122244   7.550   6.598   1.225
 7334WAT     H222245   7.434   6.531   1.318
 7335WAT      O22246   1.720   1.252   8.010
 7335WAT     H122247   1.722   1.287   7.917
 7335WAT     H222248   1.807   1.206   8.031
 7336WAT      O22249   2.017   0.546   2.790
 7336WAT     H122250   2.049   0.478   2.724
 7336WAT     H222251   1.946   0.603   2.749
 7337WAT      O22252   6.723   2.399   7.351
 7337WAT     H122253   6.710   2.349   7.437
 7337WAT     H222254   6.677   2.488   7.357
 7338WAT      O22255   6.566   0.220   3.351
 7338WAT     H122256   6.559   0.172   3.263
 7338WAT     H222257   6.511   0.303   3.348
 7339WAT      O22258   0.929   3.320   6.175
 7339WAT     H122259   1.023   3.315   6.208
 7339WAT     H222260   0.884   3.401   6.214
 7340WAT      O22261   1.368   3.933   5.111
 7340WAT     H122262   1.407   3.928   5.019
 7340WAT     H222263   1.272   3.959   5.105
 7341WAT      O22264   8.707   9.489   3.728
 7341WAT     H122265   8.743   9.443   3.647
 7341WAT     H222266   8.618   9.529   3.707
 7342WAT      O22267   6.978   8.303   3.507
 7342WAT     H122268   7.061   8.250   3.526
 7342WAT     H222269   6.901   8.240   3.492
 7343WAT      O22270   1.863   5.820   0.031
 7343WAT     H122271   1.830   5.766   0.108
 7343WAT     H222272   1.907   5.903   0.065
 7344WAT      O22273   2.314   2.286   2.584
 7344WAT     H122274   2.407   2.260   2.559
 7344WAT     H222275   2.258   2.204   2.598
 7345WAT      O22276   1.128   8.717   7.304
 7345WAT     H122277   1.111   8.653   7.379
 7345WAT     H222278   1.074   8.800   7.317
 7346WAT      O22279   2.053   7.607   8.405
 7346WAT     H122280   1.976   7.570   8.456
 7346WAT     H222281   2.126   7.539   8.399
 7347WAT      O22282   5.192   0.316   2.808
 7347WAT     H122283   5.235   0.232   2.776
 7347WAT     H222284   5.254   0.364   2.871
 7348WAT      O22285   6.291   2.489   1.542
 7348WAT     H122286   6.198   2.486   1.506
 7348WAT     H222287   6.337   2.572   1.511
 7349WAT      O22288   5.445   9.367   6.679
 7349WAT     H122289   5.410   9.282   6.640
 7349WAT     H222290   5.369   9.427   6.702
 7350WAT      O22291   3.302   0.173   5.194
 7350WAT     H122292   3.402   0.177   5.196
 7350WAT     H222293   3.272   0.086   5.153
 7351WAT      O22294   6.334   9.444   3.528
 7351WAT     H122295   6.379   9.379   3.588
 7351WAT     H222296   6.237   9.420   3.519
 7352WAT      O22297   6.233   4.504   7.609
 7352WAT     H122298   6.287   4.580   7.645
 7352WAT     H222299   6.249   4.496   7.511
 7353WAT      O22300   0.296   7.358   8.823
 7353WAT     H122301   0.350   7.394   8.899
 7353WAT     H222302   0.252   7.434   8.774
 7354WAT      O22303   3.095   4.301   2.630
 7354WAT     H122304   3.144   4.281   2.545
 7354WAT     H222305   3.048   4.389   2.621
 7355WAT      O22306   8.958   2.604   4.622
 7355WAT     H122307   9.047   2.557   4.625
 7355WAT     H222308   8.887   2.541   4.653
 7356WAT      O22309   7.467   2.249   0.402
 7356WAT     H122310   7.482   2.224   0.307
 7356WAT     H222311   7.444   2.168   0.455
 7357WAT      O22312   9.475   4.179   1.718
 7357WAT     H122313   9.537   4.107   1.685
 7357WAT     H222314   9.385   4.167   1.676
 7358WAT      O22315   5.605   3.811   3.167
 7358WAT     H122316   5.623   3.899   3.124
 7358WAT     H222317   5.531   3.765   3.119
 7359WAT      O22318   6.504   3.439   0.024
 7359WAT     H122319   6.413   3.421   0.063
 7359WAT     H222320   6.494   3.477  -0.068
 7360WAT      O22321   0.364   2.069   3.057
 7360WAT     H122322   0.364   1.978   3.015
 7360WAT     H222323   0.313   2.066   3.143
 7361WAT      O22324   1.053   0.777   1.257
 7361WAT     H122325   1.056   0.678   1.272
 7361WAT     H222326   0.970   0.815   1.297
 7362WAT      O22327   5.122   7.146   0.609
 7362WAT     H122328   5.087   7.163   0.701
 7362WAT     H222329   5.134   7.048   0.595
 7363WAT      O22330   7.660   4.592   0.773
 7363WAT     H122331   7.719   4.553   0.702
 7363WAT     H222332   7.564   4.571   0.752
 7364WAT      O22333   8.672   9.082   0.795
 7364WAT     H122334   8.732   9.151   0.754
 7364WAT     H222335   8.717   9.041   0.874
 7365WAT      O22336   4.365   4.498   7.290
 7365WAT     H122337   4.319   4.498   7.379
 7365WAT     H222338   4.296   4.504   7.217
 7366WAT      O22339   5.610   0.291   7.587
 7366WAT     H122340   5.660   0.205   7.595
 7366WAT     H222341   5.514   0.272   7.566
 7367WAT      O22342   8.374   2.313   4.123
 7367WAT     H122343   8.335   2.283   4.210
 7367WAT     H222344   8.465   2.272   4.112
 7368WAT      O22345   8.245   5.522   8.251
 7368WAT     H122346   8.261   5.529   8.152
 7368WAT     H222347   8.259   5.427   8.280
 7369WAT      O22348   6.781   8.142   0.255
 7369WAT     H122349   6.728   8.073   0.304
 7369WAT     H222350   6.720   8.207   0.212
 7370WAT      O22351   0.525   9.535   9.595
 7370WAT     H122352   0.453   9.563   9.658
 7370WAT     H222353   0.501   9.563   9.502
 7371WAT      O22354   0.363   5.347   2.252
 7371WAT     H122355   0.338   5.444   2.249
 7371WAT     H222356   0.323   5.300   2.174
 7372WAT      O22357   3.527   4.955   8.303
 7372WAT     H122358   3.592   5.031   8.314
 7372WAT     H222359   3.490   4.956   8.210
 7373WAT      O22360   6.922   3.776   3.286
 7373WAT     H122361   6.933   3.812   3.193
 7373WAT     H222362   6.859   3.698   3.284
 7374WAT      O22363   1.727   5.977   3.517
 7374WAT     H122364   1.703   6.070   3.546
 7374WAT     H222365   1.769   5.928   3.594
 7375WAT      O22366   0.966   6.851   6.107
 7375WAT     H122367   1.057   6.817   6.133
 7375WAT     H222368   0.954   6.844   6.008
 7376WAT      O22369   4.431   0.002   8.052
 7376WAT     H122370   4.382   0.075   8.003
 7376WAT     H222371   4.492   0.042   8.119
 7377WAT      O22372   0.449   3.574   0.855
 7377WAT     H122373   0.431   3.594   0.759
 7377WAT     H222374   0.426   3.479   0.874
 7378WAT      O22375   9.806   2.981   0.703
 7378WAT     H122376   9.846   3.014   0.618
 7378WAT     H222377   9.879   2.959   0.768
 7379WAT      O22378   8.324   3.779   1.026
 7379WAT     H122379   8.282   3.845   0.964
 7379WAT     H222380   8.273   3.778   1.112
 7380WAT      O22381   1.284   7.793   9.110
 7380WAT     H122382   1.247   7.878   9.147
 7380WAT     H222383   1.328   7.812   9.022
 7381WAT      O22384   0.215   8.289   6.039
 7381WAT     H122385   0.131   8.242   6.013
 7381WAT     H222386   0.248   8.252   6.126
 7382WAT      O22387   5.296   6.702   3.260
 7382WAT     H122388   5.340   6.646   3.330
 7382WAT     H222389   5.284   6.649   3.176
 7383WAT      O22390   6.604   3.955   8.145
 7383WAT     H122391   6.670   4.026   8.169
 7383WAT     H222392   6.539   3.942   8.221
 7384WAT      O22393   1.375   4.612   0.247
 7384WAT     H122394   1.460   4.562   0.266
 7384WAT     H222395   1.397   4.699   0.204
 7385WAT      O22396   6.915   9.084   5.950
 7385WAT     H122397   7.007   9.089   5.988
 7385WAT     H222398   6.873   9.175   5.953
 7386WAT      O22399   1.637   5.057   0.283
 7386WAT     H122400   1.568   5.097   0.344
 7386WAT     H222401   1.727   5.065   0.324
 7387WAT      O22402   1.458   7.829   9.726
 7387WAT     H122403   1.435   7.876   9.811
 7387WAT     H222404   1.379   7.775   9.695
 7388WAT      O22405   6.364   6.326   3.954
 7388WAT     H122406   6.413   6.308   4.039
 7388WAT     H222407   6.296   6.254   3.939
 7389WAT      O22408   1.973   0.569   8.702
 7389WAT     H122409   1.969   0.663   8.667
 7389WAT     H222410   1.923   0.564   8.789
 7390WAT      O22411   9.263   4.701   5.107
 7390WAT     H122412   9.218   4.768   5.166
 7390WAT     H222413   9.315   4.636   5.163
 7391WAT      O22414   1.403   1.413   4.187
 7391WAT     H122415   1.309   1.382   4.174
 7391WAT     H222416   1.464   1.361   4.127
 7392WAT      O22417   7.812   9.462   3.858
 7392WAT     H122418   7.898   9.491   3.901
 7392WAT     H222419   7.738   9.465   3.925
 7393WAT      O22420   2.535   5.624   1.436
 7393WAT     H122421   2.529   5.708   1.489
 7393WAT     H222422   2.546   5.646   1.339
 7394WAT      O22423   5.224   2.281   2.001
 7394WAT     H122424   5.232   2.335   2.085
 7394WAT     H222425   5.128   2.273   1.975
 7395WAT      O22426   2.298   8.799   2.281
 7395WAT     H122427   2.259   8.873   2.337
 7395WAT     H222428   2.231   8.772   2.211
 7396WAT      O22429   6.818   0.157   1.218
 7396WAT     H122430   6.765   0.238   1.193
 7396WAT     H222431   6.911   0.183   1.241
 7397WAT      O22432   6.306   8.058   0.462
 7397WAT     H122433   6.255   8.121   0.403
 7397WAT     H222434   6.243   7.993   0.504
 7398WAT      O22435   5.839   6.897   2.664
 7398WAT     H122436   5.827   6.809   2.618
 7398WAT     H222437   5.758   6.916   2.720
 7399WAT      O22438   3.558   3.140   4.208
 7399WAT     H122439   3.561   3.193   4.292
 7399WAT     H222440   3.649   3.102   4.190
 7400WAT      O22441   3.495   6.682   0.471
 7400WAT     H122442   3.577   6.677   0.414
 7400WAT     H222443   3.466   6.778   0.479
 7401WAT      O22444   6.897   0.724   1.572
 7401WAT     H122445   6.823   0.657   1.564
 7401WAT     H222446   6.863   0.805   1.620
 7402WAT      O22447   9.367   5.432   0.711
 7402WAT     H122448   9.344   5.529   0.702
 7402WAT     H222449   9.297   5.386   0.765
 7403WAT      O22450   2.051   3.776   5.214
 7403WAT     H122451   2.115   3.840   5.258
 7403WAT     H222452   2.099   3.690   5.196
 7404WAT      O22453   0.229   7.663   9.475
 7404WAT     H122454   0.160   7.710   9.420
 7404WAT     H222455   0.291   7.730   9.515
 7405WAT      O22456   2.251   9.604   8.633
 7405WAT     H122457   2.155   9.624   8.652
 7405WAT     H222458   2.269   9.508   8.652
 7406WAT      O22459   4.423   8.270   0.688
 7406WAT     H122460   4.487   8.216   0.742
 7406WAT     H222461   4.350   8.304   0.748
 7407WAT      O22462   1.746   3.909   3.271
 7407WAT     H122463   1.836   3.899   3.313
 7407WAT     H222464   1.741   3.851   3.190
 7408WAT      O22465   7.107   1.573   3.304
 7408WAT     H122466   7.090   1.577   3.206
 7408WAT     H222467   7.141   1.662   3.335
 7409WAT      O22468   5.938   1.804   0.097
 7409WAT     H122469   5.878   1.732   0.131
 7409WAT     H222470   5.917   1.823   0.001
 7410WAT      O22471   9.503   1.064   9.786
 7410WAT     H122472   9.586   1.010   9.800
 7410WAT     H222473   9.504   1.104   9.694
 7411WAT      O22474   7.012   1.131   4.311
 7411WAT     H122475   7.088   1.186   4.347
 7411WAT     H222476   6.993   1.157   4.217
 7412WAT      O22477   2.749   5.799   3.961
 7412WAT     H122478   2.675   5.807   3.894
 7412WAT     H222479   2.754   5.705   3.995
 7413WAT      O22480   8.402   6.102   9.046
 7413WAT     H122481   8.362   6.041   9.115
 7413WAT     H222482   8.368   6.077   8.956
 7414WAT      O22483   3.731   5.149   3.093
 7414WAT     H122484   3.757   5.189   3.005
 7414WAT     H222485   3.713   5.051   3.081
 7415WAT      O22486   5.171   8.388   0.153
 7415WAT     H122487   5.174   8.372   0.252
 7415WAT     H222488   5.077   8.388   0.122
 7416WAT      O22489   7.705   7.560   0.575
 7416WAT     H122490   7.800   7.564   0.606
 7416WAT     H222491   7.660   7.648   0.591
 7417WAT      O22492   3.042   2.202   1.613
 7417WAT     H122493   2.949   2.235   1.600
 7417WAT     H222494   3.107   2.270   1.579
 7418WAT      O22495   2.274   6.291   4.525
 7418WAT     H122496   2.306   6.209   4.479
 7418WAT     H222497   2.336   6.367   4.506
 7419WAT      O22498   9.157   9.682   4.750
 7419WAT     H122499   9.192   9.605   4.696
 7419WAT     H222500   9.110   9.746   4.689
 7420WAT      O22501   1.109   9.252   3.389
 7420WAT     H122502   1.092   9.326   3.454
 7420WAT     H222503   1.153   9.289   3.307
 7421WAT      O22504   4.029   5.890   7.845
 7421WAT     H122505   4.066   5.979   7.870
 7421WAT     H222506   4.013   5.886   7.747
 7422WAT      O22507   1.811   5.646   0.914
 7422WAT     H122508   1.741   5.713   0.939
 7422WAT     H222509   1.775   5.554   0.929
 7423WAT      O22510   7.263   4.724   2.961
 7423WAT     H122511   7.222   4.799   3.013
 7423WAT     H222512   7.290   4.756   2.871
 7424WAT      O22513   7.717   5.245   5.252
 7424WAT     H122514   7.693   5.212   5.343
 7424WAT     H222515   7.684   5.339   5.241
 7425WAT      O22516   2.150   4.487   9.357
 7425WAT     H122517   2.165   4.388   9.356
 7425WAT     H222518   2.173   4.524   9.267
 7426WAT      O22519   8.809   3.316   7.066
 7426WAT     H122520   8.858   3.317   6.978
 7426WAT     H222521   8.816   3.224   7.106
 7427WAT      O22522   4.572   7.577   8.398
 7427WAT     H122523   4.590   7.631   8.316
 7427WAT     H222524   4.550   7.639   8.474
 7428WAT      O22525   5.868   1.248   1.175
 7428WAT     H122526   5.873   1.240   1.275
 7428WAT     H222527   5.911   1.168   1.133
 7429WAT      O22528   8.053   3.832   1.620
 7429WAT     H122529   8.142   3.801   1.652
 7429WAT     H222530   8.059   3.859   1.524
 7430WAT      O22531   9.004   4.755   5.515
 7430WAT     H122532   8.942   4.751   5.593
 7430WAT     H222533   9.052   4.668   5.505
 7431WAT      O22534   6.880   2.310   0.863
 7431WAT     H122535   6.912   2.216   0.852
 7431WAT     H222536   6.841   2.321   0.955
 7432WAT      O22537   7.778   8.123   2.850
 7432WAT     H122538   7.691   8.147   2.807
 7432WAT     H222539   7.852   8.140   2.786
 7433WAT      O22540   5.762   1.484   2.661
 7433WAT     H122541   5.755   1.571   2.613
 7433WAT     H222542   5.748   1.409   2.597
 7434WAT      O22543   4.434   8.929   2.762
 7434WAT     H122544   4.471   8.904   2.852
 7434WAT     H222545   4.494   8.894   2.690
 7435WAT      O22546   5.106   8.477   2.355
 7435WAT     H122547   5.174   8.406   2.374
 7435WAT     H222548   5.129   8.560   2.406
 7436WAT      O22549   3.713   3.164   6.396
 7436WAT     H122550   3.771   3.141   6.474
 7436WAT     H222551   3.692   3.261   6.397
 7437WAT      O22552   1.888   6.708   1.247
 7437WAT     H122553   1.966   6.664   1.203
 7437WAT     H222554   1.808   6.701   1.187
 7438WAT      O22555   7.190   6.979   2.272
 7438WAT     H122556   7.204   6.908   2.202
 7438WAT     H222557   7.195   6.937   2.362
 7439WAT      O22558   2.926   1.829   8.961
 7439WAT     H122559   2.883   1.918   8.980
 7439WAT     H222560   2.910   1.768   9.039
 7440WAT      O22561   1.132   7.968   3.021
 7440WAT     H122562   1.123   8.060   3.059
 7440WAT     H222563   1.091   7.965   2.930
 7441WAT      O22564   2.487   4.105   1.393
 7441WAT     H122565   2.500   4.202   1.373
 7441WAT     H222566   2.456   4.058   1.310
 7442WAT      O22567   8.464   1.100   1.781
 7442WAT     H122568   8.418   1.112   1.693
 7442WAT     H222569   8.421   1.024   1.830
 7443WAT      O22570   1.913   6.513   9.275
 7443WAT     H122571   1.940   6.530   9.370
 7443WAT     H222572   1.994   6.501   9.218
 7444WAT      O22573   4.548   5.203   2.772
 7444WAT     H122574   4.480   5.228   2.841
 7444WAT     H222575   4.599   5.123   2.803
 7445WAT      O22576   1.538   8.871   0.053
 7445WAT     H122577   1.450   8.897   0.014
 7445WAT     H222578   1.556   8.774   0.033
 7446WAT      O22579   4.373   2.042   9.243
 7446WAT     H122580   4.414   1.968   9.297
 7446WAT     H222581   4.380   2.019   9.145
 7447WAT      O22582   5.441   6.292   4.010
 7447WAT     H122583   5.442   6.369   4.074
 7447WAT     H222584   5.389   6.318   3.929
 7448WAT      O22585   3.999   1.590   4.264
 7448WAT     H122586   3.988   1.533   4.345
 7448WAT     H222587   4.095   1.590   4.236
 7449WAT      O22588   6.250   9.187   3.665
 7449WAT     H122589   6.243   9.130   3.583
 7449WAT     H222590   6.347   9.204   3.684
 7450WAT      O22591   6.279   5.799   4.748
 7450WAT     H122592   6.249   5.888   4.715
 7450WAT     H222593   6.353   5.765   4.690
 7451WAT      O22594   6.260   7.200   9.405
 7451WAT     H122595   6.311   7.254   9.338
 7451WAT     H222596   6.209   7.261   9.466
 7452WAT      O22597   0.365   5.560   3.626
 7452WAT     H122598   0.361   5.638   3.688
 7452WAT     H222599   0.386   5.477   3.677
 7453WAT      O22600   6.334   8.376   3.220
 7453WAT     H122601   6.420   8.390   3.269
 7453WAT     H222602   6.300   8.283   3.236
 7454WAT      O22603   1.423   2.519   3.078
 7454WAT     H122604   1.406   2.557   3.169
 7454WAT     H222605   1.506   2.559   3.040
 7455WAT      O22606   8.485   5.479   4.052
 7455WAT     H122607   8.523   5.447   4.139
 7455WAT     H222608   8.464   5.401   3.993
 7456WAT      O22609   2.802   4.377   8.881
 7456WAT     H122610   2.842   4.285   8.885
 7456WAT     H222611   2.711   4.373   8.841
 7457WAT      O22612   5.539   8.697   7.529
 7457WAT     H122613   5.549   8.611   7.478
 7457WAT     H222614   5.541   8.678   7.627
 7458WAT      O22615   6.875   3.319   9.834
 7458WAT     H122616   6.972   3.297   9.820
 7458WAT     H222617   6.856   3.409   9.795
 7459WAT      O22618   2.028   8.393   5.299
 7459WAT     H122619   2.034   8.407   5.201
 7459WAT     H222620   2.120   8.376   5.335
 7460WAT      O22621   6.353   9.426   2.172
 7460WAT     H122622   6.430   9.416   2.109
 7460WAT     H222623   6.271   9.386   2.130
 7461WAT      O22624   8.006   9.370   8.246
 7461WAT     H122625   7.972   9.458   8.278
 7461WAT     H222626   7.944   9.333   8.177
 7462WAT      O22627   8.051   9.398   0.157
 7462WAT     H122628   8.054   9.321   0.094
 7462WAT     H222629   8.014   9.369   0.245
 7463WAT      O22630   0.462   3.514   3.912
 7463WAT     H122631   0.369   3.491   3.883
 7463WAT     H222632   0.463   3.603   3.958
 7464WAT      O22633   0.483   3.143   2.070
 7464WAT     H122634   0.557   3.206   2.048
 7464WAT     H222635   0.520   3.052   2.089
 7465WAT      O22636   4.458   4.009   3.436
 7465WAT     H122637   4.558   4.007   3.441
 7465WAT     H222638   4.426   4.100   3.462
 7466WAT      O22639   4.318   7.630   1.332
 7466WAT     H122640   4.376   7.617   1.412
 7466WAT     H222641   4.313   7.544   1.280
 7467WAT      O22642   5.127   1.212   6.142
 7467WAT     H122643   5.054   1.150   6.171
 7467WAT     H222644   5.104   1.305   6.168
 7468WAT      O22645   0.230   8.889   9.839
 7468WAT     H122646   0.248   8.816   9.904
 7468WAT     H222647   0.248   8.857   9.746
 7469WAT      O22648   5.153   6.985   6.101
 7469WAT     H122649   5.159   7.031   6.190
 7469WAT     H222650   5.218   7.027   6.038
 7470WAT      O22651   2.809   7.056   2.740
 7470WAT     H122652   2.743   6.989   2.774
 7470WAT     H222653   2.779   7.148   2.766
 7471WAT      O22654   5.886   9.109   2.697
 7471WAT     H122655   5.969   9.128   2.749
 7471WAT     H222656   5.868   9.186   2.635
 7472WAT      O22657   5.767   5.102   3.367
 7472WAT     H122658   5.719   5.123   3.452
 7472WAT     H222659   5.756   5.005   3.345
 7473WAT      O22660   7.654   8.450   6.570
 7473WAT     H122661   7.628   8.436   6.475
 7473WAT     H222662   7.749   8.483   6.574
 7474WAT      O22663   0.161   7.834   0.014
 7474WAT     H122664   0.131   7.751  -0.032
 7474WAT     H222665   0.183   7.904  -0.053
 7475WAT      O22666   6.056   8.980   5.837
 7475WAT     H122667   6.129   9.047   5.848
 7475WAT     H222668   5.994   8.984   5.915
 7476WAT      O22669   5.331   3.736   3.801
 7476WAT     H122670   5.256   3.802   3.803
 7476WAT     H222671   5.294   3.643   3.795
 7477WAT      O22672   2.176   9.115   0.521
 7477WAT     H122673   2.236   9.188   0.488
 7477WAT     H222674   2.110   9.092   0.449
 7478WAT      O22675   3.640   5.882   4.252
 7478WAT     H122676   3.728   5.894   4.205
 7478WAT     H222677   3.565   5.899   4.187
 7479WAT      O22678   1.147   4.452   6.938
 7479WAT     H122679   1.115   4.424   6.847
 7479WAT     H222680   1.210   4.383   6.974
 7480WAT      O22681   1.974   3.307   3.658
 7480WAT     H122682   2.053   3.318   3.598
 7480WAT     H222683   1.936   3.215   3.647
 7481WAT      O22684   7.882   5.737   6.675
 7481WAT     H122685   7.961   5.732   6.614
 7481WAT     H222686   7.840   5.647   6.683
 7482WAT      O22687   6.857   9.478   3.441
 7482WAT     H122688   6.861   9.568   3.485
 7482WAT     H222689   6.814   9.412   3.503
 7483WAT      O22690   1.213   5.692   7.566
 7483WAT     H122691   1.267   5.736   7.638
 7483WAT     H222692   1.167   5.762   7.511
 7484WAT      O22693   6.290   5.977   8.984
 7484WAT     H122694   6.255   5.981   8.890
 7484WAT     H222695   6.370   6.036   8.991
 7485WAT      O22696   6.604   3.244   5.305
 7485WAT     H122697   6.647   3.200   5.384
 7485WAT     H222698   6.618   3.343   5.311
 7486WAT      O22699   7.729   1.592   5.686
 7486WAT     H122700   7.707   1.629   5.596
 7486WAT     H222701   7.822   1.555   5.685
 7487WAT      O22702   4.587   9.352   8.994
 7487WAT     H122703   4.652   9.345   9.069
 7487WAT     H222704   4.528   9.432   9.008
 7488WAT      O22705   4.629   3.464   8.777
 7488WAT     H122706   4.616   3.422   8.687
 7488WAT     H222707   4.720   3.504   8.782
 7489WAT      O22708   8.094   8.865   7.146
 7489WAT     H122709   8.144   8.783   7.172
 7489WAT     H222710   8.031   8.891   7.219
 7490WAT      O22711   5.222   5.693   2.154
 7490WAT     H122712   5.167   5.621   2.112
 7490WAT     H222713   5.318   5.679   2.131
 7491WAT      O22714   7.624   0.176   4.701
 7491WAT     H122715   7.644   0.225   4.785
 7491WAT     H222716   7.599   0.082   4.722
 7492WAT      O22717   4.491   6.002   2.250
 7492WAT     H122718   4.455   5.922   2.299
 7492WAT     H222719   4.459   6.001   2.156
 7493WAT      O22720   1.952   5.813   9.255
 7493WAT     H122721   1.896   5.895   9.246
 7493WAT     H222722   1.988   5.787   9.165
 7494WAT      O22723   2.767   8.376   0.577
 7494WAT     H122724   2.702   8.374   0.653
 7494WAT     H222725   2.717   8.382   0.490
 7495WAT      O22726   6.120   6.542   5.988
 7495WAT     H122727   6.023   6.537   5.962
 7495WAT     H222728   6.158   6.629   5.956
 7496WAT      O22729   5.523   0.232   6.057
 7496WAT     H122730   5.510   0.135   6.077
 7496WAT     H222731   5.579   0.242   5.974
 7497WAT      O22732   1.142   0.846   5.515
 7497WAT     H122733   1.082   0.786   5.464
 7497WAT     H222734   1.152   0.933   5.466
 7498WAT      O22735   5.687   5.394   1.518
 7498WAT     H122736   5.770   5.366   1.565
 7498WAT     H222737   5.681   5.348   1.430
 7499WAT      O22738   5.126   4.777   6.722
 7499WAT     H122739   5.198   4.733   6.669
 7499WAT     H222740   5.147   4.770   6.819
 7500WAT      O22741   5.254   2.990   3.979
 7500WAT     H122742   5.164   3.016   3.944
 7500WAT     H222743   5.318   2.984   3.902
 7501WAT      O22744   6.790   8.378   5.118
 7501WAT     H122745   6.844   8.444   5.066
 7501WAT     H222746   6.696   8.378   5.085
 7502WAT      O22747   6.200   4.580   7.953
 7502WAT     H122748   6.136   4.632   8.010
 7502WAT     H222749   6.172   4.484   7.951
 7503WAT      O22750   1.703   5.951   0.641
 7503WAT     H122751   1.606   5.957   0.664
 7503WAT     H222752   1.716   5.974   0.544
 7504WAT      O22753   7.837   6.532   6.186
 7504WAT     H122754   7.882   6.462   6.129
 7504WAT     H222755   7.845   6.506   6.282
 7505WAT      O22756   8.781   8.027   9.468
 7505WAT     H122757   8.841   8.067   9.398
 7505WAT     H222758   8.832   8.019   9.554
 7506WAT      O22759   1.682   3.096   9.100
 7506WAT     H122760   1.735   3.043   9.167
 7506WAT     H222761   1.745   3.149   9.043
 7507WAT      O22762   5.594   5.901   0.348
 7507WAT     H122763   5.601   5.961   0.268
 7507WAT     H222764   5.517   5.930   0.406
 7508WAT      O22765   6.830   7.521   1.846
 7508WAT     H122766   6.737   7.550   1.869
 7508WAT     H222767   6.882   7.599   1.811
 7509WAT      O22768   4.969   0.068   4.525
 7509WAT     H122769   4.968   0.086   4.426
 7509WAT     H222770   4.963  -0.030   4.541
 7510WAT      O22771   8.463   5.839   3.673
 7510WAT     H122772   8.413   5.899   3.610
 7510WAT     H222773   8.458   5.877   3.766
 7511WAT      O22774   1.834   5.554   3.637
 7511WAT     H122775   1.876   5.477   3.686
 7511WAT     H222776   1.842   5.539   3.539
 7512WAT      O22777   2.377   8.958   4.185
 7512WAT     H122778   2.326   8.960   4.271
 7512WAT     H222779   2.315   8.943   4.109
 7513WAT      O22780   0.782   9.801   9.228
 7513WAT     H122781   0.775   9.705   9.253
 7513WAT     H222782   0.853   9.845   9.283
 7514WAT      O22783   5.659   5.137   8.506
 7514WAT     H122784   5.646   5.236   8.496
 7514WAT     H222785   5.686   5.116   8.600
 7515WAT      O22786   6.606   6.834   8.565
 7515WAT     H122787   6.675   6.815   8.495
 7515WAT     H222788   6.578   6.929   8.558
 7516WAT      O22789   9.781   8.000   9.485
 7516WAT     H122790   9.701   8.005   9.425
 7516WAT     H222791   9.768   7.927   9.552
 7517WAT      O22792   2.687   9.577   4.951
 7517WAT     H122793   2.721   9.644   5.017
 7517WAT     H222794   2.718   9.602   4.859
 7518WAT      O22795   8.740   0.816   4.630
 7518WAT     H122796   8.788   0.867   4.701
 7518WAT     H222797   8.799   0.810   4.549
 7519WAT      O22798   5.913   3.256   4.889
 7519WAT     H122799   5.962   3.170   4.876
 7519WAT     H222800   5.835   3.261   4.826
 7520WAT      O22801   1.560   5.797   8.327
 7520WAT     H122802   1.522   5.747   8.405
 7520WAT     H222803   1.581   5.733   8.253
 7521WAT      O22804   1.143   6.131   4.585
 7521WAT     H122805   1.214   6.061   4.591
 7521WAT     H222806   1.186   6.220   4.569
 7522WAT      O22807   8.214   5.932   6.373
 7522WAT     H122808   8.304   5.895   6.393
 7522WAT     H222809   8.201   5.937   6.274
 7523WAT      O22810   0.154   0.883   3.861
 7523WAT     H122811   0.099   0.938   3.924
 7523WAT     H222812   0.214   0.823   3.913
 7524WAT      O22813   1.546   5.540   0.387
 7524WAT     H122814   1.609   5.606   0.427
 7524WAT     H222815   1.594   5.483   0.321
 7525WAT      O22816   9.369   6.273   3.956
 7525WAT     H122817   9.434   6.209   3.998
 7525WAT     H222818   9.406   6.308   3.870
 7526WAT      O22819   8.917   7.781   2.769
 7526WAT     H122820   8.837   7.841   2.764
 7526WAT     H222821   9.001   7.837   2.768
 7527WAT      O22822   3.218   6.285   5.728
 7527WAT     H122823   3.163   6.270   5.810
 7527WAT     H222824   3.312   6.306   5.754
 7528WAT      O22825   6.332   4.632   6.918
 7528WAT     H122826   6.411   4.591   6.873
 7528WAT     H222827   6.255   4.568   6.913
 7529WAT      O22828   5.483   5.106   7.377
 7529WAT     H122829   5.461   5.203   7.389
 7529WAT     H222830   5.405   5.059   7.336
 7530WAT      O22831   5.672   0.968   9.575
 7530WAT     H122832   5.636   0.967   9.482
 7530WAT     H222833   5.626   0.898   9.630
 7531WAT      O22834   8.020   0.515   2.864
 7531WAT     H122835   7.932   0.486   2.824
 7531WAT     H222836   8.085   0.440   2.860
 7532WAT      O22837   9.123   9.413   6.279
 7532WAT     H122838   9.131   9.409   6.379
 7532WAT     H222839   9.214   9.423   6.239
 7533WAT      O22840   6.636   2.393   9.561
 7533WAT     H122841   6.603   2.381   9.468
 7533WAT     H222842   6.561   2.427   9.618
 7534WAT      O22843   5.688   1.981   5.075
 7534WAT     H122844   5.708   2.031   5.159
 7534WAT     H222845   5.593   1.950   5.076
 7535WAT      O22846   7.707   2.677   2.288
 7535WAT     H122847   7.771   2.720   2.225
 7535WAT     H222848   7.696   2.580   2.263
 7536WAT      O22849   6.364   1.273   4.013
 7536WAT     H122850   6.352   1.324   4.099
 7536WAT     H222851   6.458   1.240   4.007
 7537WAT      O22852   2.469   4.937   8.440
 7537WAT     H122853   2.373   4.941   8.470
 7537WAT     H222854   2.480   4.990   8.356
 7538WAT      O22855   8.644   9.799   8.824
 7538WAT     H122856   8.693   9.753   8.750
 7538WAT     H222857   8.708   9.856   8.876
 7539WAT      O22858   3.002   3.079   9.209
 7539WAT     H122859   2.918   3.087   9.155
 7539WAT     H222860   3.074   3.039   9.153
 7540WAT      O22861   4.565   7.276   0.901
 7540WAT     H122862   4.556   7.243   0.994
 7540WAT     H222863   4.515   7.215   0.839
 7541WAT      O22864   1.630   4.505   5.830
 7541WAT     H122865   1.650   4.539   5.738
 7541WAT     H222866   1.654   4.576   5.897
 7542WAT      O22867   0.248   1.427   6.153
 7542WAT     H122868   0.208   1.470   6.072
 7542WAT     H222869   0.314   1.489   6.195
 7543WAT      O22870   8.072   0.236   0.734
 7543WAT     H122871   8.079   0.162   0.801
 7543WAT     H222872   8.106   0.204   0.645
 7544WAT      O22873   3.827   6.479   1.139
 7544WAT     H122874   3.743   6.531   1.124
 7544WAT     H222875   3.855   6.488   1.235
 7545WAT      O22876   2.068   1.968   1.501
 7545WAT     H122877   2.033   2.047   1.451
 7545WAT     H222878   2.001   1.939   1.569
 7546WAT      O22879   2.035   4.013   6.191
 7546WAT     H122880   2.022   4.061   6.105
 7546WAT     H222881   2.046   3.916   6.174
 7547WAT      O22882   8.928   3.925   4.937
 7547WAT     H122883   8.998   3.858   4.913
 7547WAT     H222884   8.913   3.924   5.036
 7548WAT      O22885   1.242   9.415   6.326
 7548WAT     H122886   1.154   9.376   6.298
 7548WAT     H222887   1.269   9.375   6.414
 7549WAT      O22888   1.705   8.865   8.266
 7549WAT     H122889   1.749   8.776   8.264
 7549WAT     H222890   1.760   8.930   8.214
 7550WAT      O22891   0.202   1.428   7.219
 7550WAT     H122892   0.214   1.376   7.134
 7550WAT     H222893   0.191   1.525   7.198
 7551WAT      O22894   2.585   3.044   5.465
 7551WAT     H122895   2.611   2.975   5.533
 7551WAT     H222896   2.490   3.070   5.479
 7552WAT      O22897   9.041   4.667   6.814
 7552WAT     H122898   9.132   4.688   6.780
 7552WAT     H222899   8.981   4.745   6.800
 7553WAT      O22900   2.978   7.324   5.068
 7553WAT     H122901   2.907   7.303   5.135
 7553WAT     H222902   3.048   7.381   5.110
 7554WAT      O22903   2.608   2.667   9.181
 7554WAT     H122904   2.616   2.652   9.082
 7554WAT     H222905   2.585   2.581   9.226
 7555WAT      O22906   2.374   3.046   6.854
 7555WAT     H122907   2.310   3.109   6.898
 7555WAT     H222908   2.325   2.963   6.826
 7556WAT      O22909   5.897   3.839   0.924
 7556WAT     H122910   5.889   3.739   0.933
 7556WAT     H222911   5.956   3.860   0.846
 7557WAT      O22912   2.186   4.959   1.719
 7557WAT     H122913   2.202   5.007   1.632
 7557WAT     H222914   2.092   4.973   1.749
 7558WAT      O22915   4.313   0.717   5.224
 7558WAT     H122916   4.278   0.700   5.132
 7558WAT     H222917   4.350   0.810   5.229
 7559WAT      O22918   9.857   0.296   4.489
 7559WAT     H122919   9.883   0.245   4.406
 7559WAT     H222920   9.854   0.394   4.468
 7560WAT      O22921   7.710   9.292   2.060
 7560WAT     H122922   7.755   9.374   2.023
 7560WAT     H222923   7.619   9.282   2.020
 7561WAT      O22924   4.781   3.754   3.001
 7561WAT     H122925   4.813   3.809   2.924
 7561WAT     H222926   4.729   3.812   3.064
 7562WAT      O22927   3.122   1.795   6.890
 7562WAT     H122928   3.105   1.697   6.883
 7562WAT     H222929   3.117   1.823   6.986
 7563WAT      O22930   0.447   6.475   4.300
 7563WAT     H122931   0.427   6.458   4.396
 7563WAT     H222932   0.468   6.572   4.287
 7564WAT      O22933   9.859   2.229   9.147
 7564WAT     H122934   9.852   2.145   9.200
 7564WAT     H222935   9.805   2.219   9.063
 7565WAT      O22936   6.647   0.181   1.764
 7565WAT     H122937   6.579   0.245   1.801
 7565WAT     H222938   6.650   0.189   1.664
 7566WAT      O22939   0.479   1.862   4.355
 7566WAT     H122940   0.431   1.859   4.267
 7566WAT     H222941   0.533   1.946   4.360
 7567WAT      O22942   7.795   3.977   7.126
 7567WAT     H122943   7.865   3.942   7.188
 7567WAT     H222944   7.823   4.068   7.093
 7568WAT      O22945   2.775   9.309   3.746
 7568WAT     H122946   2.862   9.266   3.772
 7568WAT     H222947   2.782   9.408   3.759
 7569WAT      O22948   8.161   3.664   4.269
 7569WAT     H122949   8.161   3.703   4.177
 7569WAT     H222950   8.252   3.673   4.309
 7570WAT      O22951   0.317   7.846   5.943
 7570WAT     H122952   0.254   7.862   6.019
 7570WAT     H222953   0.370   7.763   5.961
 7571WAT      O22954   2.370   6.467   1.888
 7571WAT     H122955   2.457   6.511   1.911
 7571WAT     H222956   2.384   6.369   1.876
 7572WAT      O22957   7.507   3.377   9.746
 7572WAT     H122958   7.571   3.439   9.699
 7572WAT     H222959   7.530   3.283   9.724
 7573WAT      O22960   2.888   9.459   8.711
 7573WAT     H122961   2.837   9.416   8.785
 7573WAT     H222962   2.846   9.548   8.690
 7574WAT      O22963   2.898   7.687   5.501
 7574WAT     H122964   2.838   7.670   5.579
 7574WAT     H222965   2.847   7.736   5.431
 7575WAT      O22966   0.540   4.376   8.594
 7575WAT     H122967   0.577   4.469   8.600
 7575WAT     H222968   0.575   4.321   8.670
 7576WAT      O22969   3.664   6.638   3.765
 7576WAT     H122970   3.707   6.728   3.766
 7576WAT     H222971   3.691   6.587   3.846
 7577WAT      O22972   3.151   9.586   5.770
 7577WAT     H122973   3.199   9.585   5.682
 7577WAT     H222974   3.062   9.630   5.759
 7578WAT      O22975   9.009   2.499   7.591
 7578WAT     H122976   9.053   2.451   7.667
 7578WAT     H222977   9.054   2.474   7.505
 7579WAT      O22978   9.778   3.645   8.452
 7579WAT     H122979   9.798   3.716   8.385
 7579WAT     H222980   9.700   3.672   8.509
 7580WAT      O22981   2.700   5.347   9.712
 7580WAT     H122982   2.609   5.305   9.712
 7580WAT     H222983   2.764   5.289   9.762
 7581WAT      O22984   8.092   2.625   9.215
 7581WAT     H122985   8.172   2.668   9.171
 7581WAT     H222986   8.067   2.542   9.166
 7582WAT      O22987   7.854   4.952   3.501
 7582WAT     H122988   7.921   5.021   3.530
 7582WAT     H222989   7.812   4.981   3.415
 7583WAT      O22990   2.290   4.182   0.471
 7583WAT     H122991   2.276   4.195   0.373
 7583WAT     H222992   2.337   4.095   0.487
 7584WAT      O22993   0.423   7.598   6.000
 7584WAT     H122994   0.479   7.525   5.960
 7584WAT     H222995   0.476   7.646   6.070
 7585WAT      O22996   7.719   3.240   5.065
 7585WAT     H122997   7.817   3.246   5.048
 7585WAT     H222998   7.695   3.145   5.087
 7586WAT      O22999   1.821   2.535   9.438
 7586WAT     H123000   1.916   2.552   9.462
 7586WAT     H223001   1.782   2.617   9.395
 7587WAT      O23002   0.126   0.749   7.946
 7587WAT     H123003   0.110   0.725   8.042
 7587WAT     H223004   0.136   0.666   7.892
 7588WAT      O23005   0.150   2.247   8.654
 7588WAT     H123006   0.066   2.247   8.599
 7588WAT     H223007   0.229   2.248   8.592
 7589WAT      O23008   0.975   0.425   7.426
 7589WAT     H123009   1.021   0.349   7.379
 7589WAT     H223010   0.877   0.405   7.435
 7590WAT      O23011   1.526   4.993   8.797
 7590WAT     H123012   1.501   4.927   8.868
 7590WAT     H223013   1.612   5.038   8.823
 7591WAT      O23014   1.093   8.965   6.441
 7591WAT     H123015   1.067   8.941   6.534
 7591WAT     H223016   1.034   8.917   6.376
 7592WAT      O23017   5.384   9.632   6.886
 7592WAT     H123018   5.378   9.730   6.900
 7592WAT     H223019   5.478   9.601   6.902
 7593WAT      O23020   7.333   3.282   0.770
 7593WAT     H123021   7.240   3.247   0.786
 7593WAT     H223022   7.347   3.297   0.672
 7594WAT      O23023   4.465   9.706   2.014
 7594WAT     H123024   4.419   9.769   2.076
 7594WAT     H223025   4.401   9.635   1.985
 7595WAT      O23026   8.241   3.356   2.897
 7595WAT     H123027   8.282   3.297   2.967
 7595WAT     H223028   8.221   3.446   2.935
 7596WAT      O23029   5.971   3.123   0.450
 7596WAT     H123030   6.006   3.097   0.360
 7596WAT     H223031   5.996   3.218   0.469
 7597WAT      O23032   1.650   1.229   1.224
 7597WAT     H123033   1.705   1.258   1.145
 7597WAT     H223034   1.555   1.221   1.196
 7598WAT      O23035   2.722   2.231   8.436
 7598WAT     H123036   2.699   2.222   8.339
 7598WAT     H223037   2.796   2.168   8.457
 7599WAT      O23038   4.610   1.399   0.814
 7599WAT     H123039   4.639   1.306   0.792
 7599WAT     H223040   4.690   1.458   0.821
 7600WAT      O23041   7.152   9.154   6.074
 7600WAT     H123042   7.182   9.144   6.168
 7600WAT     H223043   7.212   9.102   6.013
 7601WAT      O23044   8.092   2.594   0.368
 7601WAT     H123045   8.066   2.683   0.405
 7601WAT     H223046   8.016   2.557   0.315
 7602WAT      O23047   0.420   5.350   7.697
 7602WAT     H123048   0.504   5.311   7.660
 7602WAT     H223049   0.405   5.314   7.790
 7603WAT      O23050   6.075   5.442   6.319
 7603WAT     H123051   6.089   5.496   6.237
 7603WAT     H223052   6.033   5.499   6.390
 7604WAT      O23053   6.641   4.738   6.914
 7604WAT     H123054   6.614   4.780   7.001
 7604WAT     H223055   6.570   4.754   6.845
 7605WAT      O23056   2.732   2.991   7.372
 7605WAT     H123057   2.660   2.992   7.302
 7605WAT     H223058   2.730   2.903   7.420
 7606WAT      O23059   2.713   9.545   5.391
 7606WAT     H123060   2.734   9.542   5.489
 7606WAT     H223061   2.691   9.639   5.365
 7607WAT      O23062   6.929   1.538   7.684
 7607WAT     H123063   7.014   1.495   7.713
 7607WAT     H223064   6.924   1.631   7.721
 7608WAT      O23065   1.897   0.680   7.026
 7608WAT     H123066   1.838   0.686   7.107
 7608WAT     H223067   1.983   0.729   7.044
 7609WAT      O23068   9.323   1.020   6.806
 7609WAT     H123069   9.242   0.961   6.808
 7609WAT     H223070   9.309   1.099   6.866
 7610WAT      O23071   6.875   5.024   1.434
 7610WAT     H123072   6.904   5.009   1.340
 7610WAT     H223073   6.809   5.100   1.437
 7611WAT      O23074   8.763   8.082   8.128
 7611WAT     H123075   8.830   8.139   8.174
 7611WAT     H223076   8.671   8.119   8.142
 7612WAT      O23077   3.275   8.826   4.201
 7612WAT     H123078   3.364   8.851   4.238
 7612WAT     H223079   3.269   8.855   4.105
 7613WAT      O23080   5.268   7.785   1.817
 7613WAT     H123081   5.291   7.778   1.719
 7613WAT     H223082   5.229   7.874   1.836
 7614WAT      O23083   2.132   0.212   5.669
 7614WAT     H123084   2.141   0.120   5.630
 7614WAT     H223085   2.215   0.264   5.651
 7615WAT      O23086   1.469   0.841   2.487
 7615WAT     H123087   1.543   0.805   2.430
 7615WAT     H223088   1.485   0.939   2.503
 7616WAT      O23089   7.231   2.330   5.866
 7616WAT     H123090   7.311   2.382   5.896
 7616WAT     H223091   7.260   2.251   5.813
 7617WAT      O23092   6.913   9.143   4.821
 7617WAT     H123093   6.951   9.053   4.802
 7617WAT     H223094   6.813   9.139   4.821
 7618WAT      O23095   1.460   7.493   0.952
 7618WAT     H123096   1.404   7.544   0.886
 7618WAT     H223097   1.455   7.395   0.931
 7619WAT      O23098   6.646   9.003   3.583
 7619WAT     H123099   6.608   8.964   3.667
 7619WAT     H223100   6.701   9.084   3.605
 7620WAT      O23101   3.929   7.744   5.255
 7620WAT     H123102   4.010   7.695   5.289
 7620WAT     H223103   3.852   7.681   5.249
 7621WAT      O23104   1.826   6.254   3.583
 7621WAT     H123105   1.757   6.326   3.582
 7621WAT     H223106   1.825   6.207   3.671
 7622WAT      O23107   9.201   2.675   9.889
 7622WAT     H123108   9.299   2.671   9.866
 7622WAT     H223109   9.158   2.588   9.867
 7623WAT      O23110   7.492   7.040   3.967
 7623WAT     H123111   7.567   7.033   4.032
 7623WAT     H223112   7.497   6.964   3.902
 7624WAT      O23113   6.115   1.482   8.342
 7624WAT     H123114   6.031   1.445   8.301
 7624WAT     H223115   6.167   1.407   8.383
 7625WAT      O23116   7.375   2.794   2.929
 7625WAT     H123117   7.356   2.852   2.849
 7625WAT     H223118   7.469   2.809   2.958
 7626WAT      O23119   2.622   3.841   8.580
 7626WAT     H123120   2.684   3.890   8.641
 7626WAT     H223121   2.675   3.795   8.509
 7627WAT      O23122   2.520   4.977   7.965
 7627WAT     H123123   2.439   4.946   7.915
 7627WAT     H223124   2.598   4.982   7.902
 7628WAT      O23125   3.245   9.588   5.518
 7628WAT     H123126   3.304   9.663   5.489
 7628WAT     H223127   3.280   9.501   5.483
 7629WAT      O23128   6.192   8.581   9.026
 7629WAT     H123129   6.170   8.670   9.068
 7629WAT     H223130   6.273   8.543   9.070
 7630WAT      O23131   2.067   2.505   8.493
 7630WAT     H123132   2.114   2.454   8.422
 7630WAT     H223133   2.010   2.444   8.547
 7631WAT      O23134   1.063   2.339   8.483
 7631WAT     H123135   1.059   2.363   8.580
 7631WAT     H223136   1.080   2.421   8.429
 7632WAT      O23137   6.707   6.172   3.735
 7632WAT     H123138   6.800   6.149   3.764
 7632WAT     H223139   6.696   6.271   3.732
 7633WAT      O23140   8.782   5.444   3.433
 7633WAT     H123141   8.804   5.445   3.336
 7633WAT     H223142   8.692   5.484   3.447
 7634WAT      O23143   9.545   4.949   9.795
 7634WAT     H123144   9.579   5.004   9.720
 7634WAT     H223145   9.570   4.992   9.882
 7635WAT      O23146   5.935   6.453   7.601
 7635WAT     H123147   5.897   6.363   7.624
 7635WAT     H223148   5.869   6.504   7.546
 7636WAT      O23149   7.950   7.858   1.198
 7636WAT     H123150   7.928   7.954   1.219
 7636WAT     H223151   7.869   7.802   1.215
 7637WAT      O23152   3.748   1.987   8.853
 7637WAT     H123153   3.830   1.981   8.797
 7637WAT     H223154   3.761   2.054   8.925
 7638WAT      O23155   4.425   7.492   7.117
 7638WAT     H123156   4.490   7.416   7.113
 7638WAT     H223157   4.426   7.542   7.030
 7639WAT      O23158   4.237   3.732   0.139
 7639WAT     H123159   4.227   3.814   0.195
 7639WAT     H223160   4.183   3.742   0.056
 7640WAT      O23161   4.943   3.486   7.557
 7640WAT     H123162   5.024   3.435   7.529
 7640WAT     H223163   4.922   3.467   7.653
 7641WAT      O23164   2.409   6.885   9.741
 7641WAT     H123165   2.371   6.802   9.781
 7641WAT     H223166   2.409   6.877   9.641
 7642WAT      O23167   0.390   2.340   2.187
 7642WAT     H123168   0.447   2.288   2.251
 7642WAT     H223169   0.342   2.413   2.237
 7643WAT      O23170   9.571   8.179   4.529
 7643WAT     H123171   9.618   8.208   4.445
 7643WAT     H223172   9.541   8.259   4.580
 7644WAT      O23173   6.319   3.714   7.327
 7644WAT     H123174   6.255   3.762   7.388
 7644WAT     H223175   6.369   3.645   7.379
 7645WAT      O23176   9.319   1.342   6.465
 7645WAT     H123177   9.416   1.350   6.486
 7645WAT     H223178   9.306   1.343   6.366
 7646WAT      O23179   1.225   8.707   6.274
 7646WAT     H123180   1.179   8.673   6.356
 7646WAT     H223181   1.311   8.752   6.300
 7647WAT      O23182   3.949   4.659   9.040
 7647WAT     H123183   3.937   4.625   9.134
 7647WAT     H223184   3.897   4.743   9.029
 7648WAT      O23185   8.187   5.062   6.678
 7648WAT     H123186   8.116   5.059   6.749
 7648WAT     H223187   8.237   4.975   6.678
 7649WAT      O23188   3.213   4.816   5.568
 7649WAT     H123189   3.215   4.898   5.511
 7649WAT     H223190   3.291   4.757   5.546
 7650WAT      O23191   9.815   4.350   9.584
 7650WAT     H123192   9.771   4.435   9.553
 7650WAT     H223193   9.893   4.372   9.642
 7651WAT      O23194   3.092   3.904   2.143
 7651WAT     H123195   3.062   3.959   2.065
 7651WAT     H223196   3.146   3.961   2.205
 7652WAT      O23197   3.853   6.259   2.281
 7652WAT     H123198   3.810   6.276   2.369
 7652WAT     H223199   3.803   6.307   2.209
 7653WAT      O23200   3.447   9.759   5.432
 7653WAT     H123201   3.451   9.752   5.332
 7653WAT     H223202   3.540   9.759   5.470
 7654WAT      O23203   4.248   4.365   3.001
 7654WAT     H123204   4.235   4.265   3.004
 7654WAT     H223205   4.166   4.409   3.038
 7655WAT      O23206   5.687   8.550   1.145
 7655WAT     H123207   5.697   8.456   1.179
 7655WAT     H223208   5.715   8.614   1.216
 7656WAT      O23209   9.645   3.784   1.036
 7656WAT     H123210   9.608   3.716   0.972
 7656WAT     H223211   9.570   3.837   1.076
 7657WAT      O23212   3.192   5.943   4.236
 7657WAT     H123213   3.258   5.963   4.164
 7657WAT     H223214   3.123   6.015   4.239
 7658WAT      O23215   1.034   3.836   9.219
 7658WAT     H123216   1.064   3.795   9.132
 7658WAT     H223217   1.109   3.832   9.285
 7659WAT      O23218   7.148   2.770   4.806
 7659WAT     H123219   7.189   2.680   4.791
 7659WAT     H223220   7.219   2.839   4.816
 7660WAT      O23221   0.615   2.200   9.610
 7660WAT     H123222   0.683   2.149   9.663
 7660WAT     H223223   0.645   2.209   9.516
 7661WAT      O23224   1.344   8.948   2.589
 7661WAT     H123225   1.263   8.926   2.533
 7661WAT     H223226   1.332   8.908   2.680
 7662WAT      O23227   3.537   6.270   3.312
 7662WAT     H123228   3.590   6.187   3.298
 7662WAT     H223229   3.572   6.319   3.392
 7663WAT      O23230   8.466   8.009   9.489
 7663WAT     H123231   8.429   7.974   9.403
 7663WAT     H223232   8.561   8.036   9.476
 7664WAT      O23233   9.561   3.879   4.809
 7664WAT     H123234   9.513   3.942   4.870
 7664WAT     H223235   9.638   3.926   4.766
 7665WAT      O23236   9.165   2.981   8.314
 7665WAT     H123237   9.150   2.944   8.222
 7665WAT     H223238   9.076   2.995   8.359
 7666WAT      O23239   9.152   2.712   0.265
 7666WAT     H123240   9.203   2.701   0.180
 7666WAT     H223241   9.210   2.689   0.343
 7667WAT      O23242   4.128   7.038   1.168
 7667WAT     H123243   4.087   7.087   1.091
 7667WAT     H223244   4.145   7.101   1.243
 7668WAT      O23245   7.641   6.099   8.898
 7668WAT     H123246   7.663   6.128   8.805
 7668WAT     H223247   7.635   6.179   8.958
 7669WAT      O23248   0.952   2.636   1.453
 7669WAT     H123249   0.956   2.552   1.507
 7669WAT     H223250   1.021   2.701   1.487
 7670WAT      O23251   8.757   1.567   6.725
 7670WAT     H123252   8.856   1.583   6.723
 7670WAT     H223253   8.729   1.517   6.643
 7671WAT      O23254   4.489   2.630   1.776
 7671WAT     H123255   4.415   2.598   1.836
 7671WAT     H223256   4.470   2.724   1.748
 7672WAT      O23257   6.916   9.555   8.191
 7672WAT     H123258   6.902   9.654   8.190
 7672WAT     H223259   6.845   9.510   8.138
 7673WAT      O23260   1.595   0.122   7.170
 7673WAT     H123261   1.575   0.027   7.196
 7673WAT     H223262   1.633   0.171   7.248
 7674WAT      O23263   6.663   4.065   8.664
 7674WAT     H123264   6.690   4.059   8.568
 7674WAT     H223265   6.678   4.159   8.697
 7675WAT      O23266   3.983   6.590   7.688
 7675WAT     H123267   4.062   6.529   7.675
 7675WAT     H223268   3.937   6.603   7.601
 7676WAT      O23269   5.869   7.667   5.156
 7676WAT     H123270   5.853   7.715   5.242
 7676WAT     H223271   5.792   7.683   5.094
 7677WAT      O23272   6.418   6.225   7.129
 7677WAT     H123273   6.514   6.213   7.105
 7677WAT     H223274   6.411   6.277   7.214
 7678WAT      O23275   5.405   0.799   3.103
 7678WAT     H123276   5.445   0.709   3.087
 7678WAT     H223277   5.306   0.791   3.110
 7679WAT      O23278   0.740   5.306   5.643
 7679WAT     H123279   0.667   5.365   5.609
 7679WAT     H223280   0.740   5.307   5.743
 7680WAT      O23281   7.601   1.967   7.757
 7680WAT     H123282   7.531   1.903   7.790
 7680WAT     H223283   7.557   2.044   7.713
 7681WAT      O23284   6.411   9.187   0.857
 7681WAT     H123285   6.366   9.258   0.911
 7681WAT     H223286   6.474   9.231   0.792
 7682WAT      O23287   4.404   6.722   2.920
 7682WAT     H123288   4.447   6.632   2.924
 7682WAT     H223289   4.437   6.771   2.840
 7683WAT      O23290   7.758   7.375   9.172
 7683WAT     H123291   7.731   7.415   9.259
 7683WAT     H223292   7.697   7.299   9.149
 7684WAT      O23293   8.225   9.437   8.013
 7684WAT     H123294   8.133   9.420   7.977
 7684WAT     H223295   8.227   9.414   8.110
 7685WAT      O23296   7.478   7.839   8.578
 7685WAT     H123297   7.536   7.831   8.659
 7685WAT     H223298   7.390   7.879   8.604
 7686WAT      O23299   5.637   4.095   2.850
 7686WAT     H123300   5.558   4.053   2.895
 7686WAT     H223301   5.700   4.131   2.919
 7687WAT      O23302   0.961   7.900   6.359
 7687WAT     H123303   0.998   7.810   6.338
 7687WAT     H223304   0.941   7.905   6.457
 7688WAT      O23305   2.224   9.186   2.693
 7688WAT     H123306   2.324   9.193   2.685
 7688WAT     H223307   2.198   9.194   2.789
 7689WAT      O23308   7.012   2.841   4.139
 7689WAT     H123309   6.950   2.877   4.069
 7689WAT     H223310   7.041   2.915   4.199
 7690WAT      O23311   3.542   4.927   5.480
 7690WAT     H123312   3.624   4.926   5.423
 7690WAT     H223313   3.475   4.863   5.442
 7691WAT      O23314   8.300   8.434   6.071
 7691WAT     H123315   8.303   8.363   6.142
 7691WAT     H223316   8.388   8.480   6.066
 7692WAT      O23317   4.351   6.785   9.362
 7692WAT     H123318   4.358   6.877   9.323
 7692WAT     H223319   4.257   6.770   9.394
 7693WAT      O23320   9.606   7.662   6.115
 7693WAT     H123321   9.617   7.575   6.068
 7693WAT     H223322   9.512   7.669   6.150
 7694WAT      O23323   6.433   2.902   5.434
 7694WAT     H123324   6.343   2.912   5.478
 7694WAT     H223325   6.454   2.985   5.383
 7695WAT      O23326   5.803   5.375   7.483
 7695WAT     H123327   5.853   5.288   7.486
 7695WAT     H223328   5.810   5.415   7.391
 7696WAT      O23329   2.172   2.223   4.956
 7696WAT     H123330   2.220   2.310   4.952
 7696WAT     H223331   2.185   2.181   5.046
 7697WAT      O23332   6.283   8.769   6.079
 7697WAT     H123333   6.325   8.829   6.011
 7697WAT     H223334   6.270   8.819   6.165
 7698WAT      O23335   4.878   4.568   7.350
 7698WAT     H123336   4.810   4.640   7.333
 7698WAT     H223337   4.940   4.562   7.273
 7699WAT      O23338   4.246   3.273   6.064
 7699WAT     H123339   4.157   3.245   6.099
 7699WAT     H223340   4.308   3.291   6.140
 7700WAT      O23341   6.991   2.690   0.210
 7700WAT     H123342   6.965   2.786   0.200
 7700WAT     H223343   6.982   2.663   0.306
 7701WAT      O23344   6.932   0.103   5.562
 7701WAT     H123345   6.892   0.020   5.525
 7701WAT     H223346   6.860   0.170   5.581
 7702WAT      O23347   8.842   4.048   6.462
 7702WAT     H123348   8.887   3.992   6.392
 7702WAT     H223349   8.895   4.133   6.475
 7703WAT      O23350   0.434   9.649   9.334
 7703WAT     H123351   0.335   9.631   9.341
 7703WAT     H223352   0.465   9.630   9.241
 7704WAT      O23353   2.497   7.846   6.417
 7704WAT     H123354   2.541   7.832   6.328
 7704WAT     H223355   2.565   7.843   6.489
 7705WAT      O23356   9.675   8.156   1.947
 7705WAT     H123357   9.683   8.193   1.855
 7705WAT     H223358   9.623   8.072   1.945
 7706WAT      O23359   8.568   5.635   2.276
 7706WAT     H123360   8.616   5.580   2.345
 7706WAT     H223361   8.480   5.665   2.313
 7707WAT      O23362   3.719   7.144   5.205
 7707WAT     H123363   3.649   7.170   5.271
 7707WAT     H223364   3.803   7.196   5.222
 7708WAT      O23365   0.992   1.056   0.434
 7708WAT     H123366   1.064   1.021   0.494
 7708WAT     H223367   0.917   0.989   0.429
 7709WAT      O23368   9.115   5.303   4.836
 7709WAT     H123369   9.129   5.398   4.863
 7709WAT     H223370   9.021   5.276   4.856
 7710WAT      O23371   3.443   0.091   6.924
 7710WAT     H123372   3.465  -0.005   6.910
 7710WAT     H223373   3.399   0.103   7.013
 7711WAT      O23374   3.580   5.635   4.685
 7711WAT     H123375   3.678   5.645   4.699
 7711WAT     H223376   3.539   5.726   4.676
 7712WAT      O23377   8.138   7.692   3.778
 7712WAT     H123378   8.121   7.725   3.685
 7712WAT     H223379   8.070   7.731   3.840
 7713WAT      O23380   3.244   1.827   9.215
 7713WAT     H123381   3.219   1.741   9.261
 7713WAT     H223382   3.334   1.857   9.248
 7714WAT      O23383   3.513   9.611   9.874
 7714WAT     H123384   3.601   9.577   9.840
 7714WAT     H223385   3.456   9.640   9.797
 7715WAT      O23386   1.961   6.792   4.242
 7715WAT     H123387   1.951   6.839   4.330
 7715WAT     H223388   1.872   6.782   4.198
 7716WAT      O23389   0.148   0.645   5.753
 7716WAT     H123390   0.073   0.710   5.769
 7716WAT     H223391   0.220   0.660   5.821
 7717WAT      O23392   7.840   3.264   0.741
 7717WAT     H123393   7.768   3.327   0.711
 7717WAT     H223394   7.916   3.268   0.677
 7718WAT      O23395   7.330   0.709   5.073
 7718WAT     H123396   7.324   0.645   5.149
 7718WAT     H223397   7.322   0.803   5.107
 7719WAT      O23398   4.516   6.441   1.924
 7719WAT     H123399   4.604   6.415   1.963
 7719WAT     H223400   4.521   6.535   1.888
 7720WAT      O23401   9.154   7.985   5.861
 7720WAT     H123402   9.148   8.058   5.792
 7720WAT     H223403   9.070   7.931   5.860
 7721WAT      O23404   5.505   1.696   3.707
 7721WAT     H123405   5.474   1.728   3.797
 7721WAT     H223406   5.574   1.625   3.719
 7722WAT      O23407   8.029   8.703   8.272
 7722WAT     H123408   8.080   8.728   8.354
 7722WAT     H223409   7.971   8.780   8.244
 7723WAT      O23410   7.004   3.315   7.315
 7723WAT     H123411   7.101   3.291   7.325
 7723WAT     H223412   6.990   3.409   7.345
 7724WAT      O23413   5.796   1.503   1.088
 7724WAT     H123414   5.858   1.557   1.030
 7724WAT     H223415   5.797   1.408   1.057
 7725WAT      O23416   3.340   7.646   2.360
 7725WAT     H123417   3.278   7.591   2.417
 7725WAT     H223418   3.382   7.587   2.291
 7726WAT      O23419   7.986   3.960   3.938
 7726WAT     H123420   8.021   3.884   3.884
 7726WAT     H223421   8.054   3.986   4.007
 7727WAT      O23422   1.019   3.681   5.049
 7727WAT     H123423   1.056   3.652   4.961
 7727WAT     H223424   0.919   3.676   5.046
 7728WAT      O23425   5.506   1.792   5.880
 7728WAT     H123426   5.558   1.714   5.847
 7728WAT     H223427   5.524   1.806   5.977
 7729WAT      O23428   9.068   5.767   3.341
 7729WAT     H123429   9.081   5.849   3.285
 7729WAT     H223430   8.973   5.762   3.371
 7730WAT      O23431   5.286   1.558   5.611
 7730WAT     H123432   5.299   1.650   5.575
 7730WAT     H223433   5.242   1.501   5.542
 7731WAT      O23434   3.552   1.297   3.673
 7731WAT     H123435   3.631   1.309   3.733
 7731WAT     H223436   3.487   1.234   3.716
 7732WAT      O23437   1.450   1.406   0.075
 7732WAT     H123438   1.364   1.360   0.098
 7732WAT     H223439   1.471   1.388  -0.021
 7733WAT      O23440   9.011   2.350   1.938
 7733WAT     H123441   8.967   2.436   1.964
 7733WAT     H223442   9.096   2.369   1.889
 7734WAT      O23443   1.191   9.578   1.112
 7734WAT     H123444   1.247   9.658   1.134
 7734WAT     H223445   1.112   9.574   1.173
 7735WAT      O23446   6.380   4.133   3.972
 7735WAT     H123447   6.371   4.120   4.070
 7735WAT     H223448   6.290   4.126   3.929
 7736WAT      O23449   9.131   9.220   7.062
 7736WAT     H123450   9.070   9.142   7.076
 7736WAT     H223451   9.081   9.294   7.017
 7737WAT      O23452   9.256   6.676   3.957
 7737WAT     H123453   9.221   6.710   3.870
 7737WAT     H223454   9.194   6.606   3.992
 7738WAT      O23455   3.837   1.731   7.067
 7738WAT     H123456   3.905   1.755   7.136
 7738WAT     H223457   3.794   1.814   7.031
 7739WAT      O23458   9.701   4.074   4.353
 7739WAT     H123459   9.747   4.117   4.431
 7739WAT     H223460   9.610   4.043   4.381
 7740WAT      O23461   3.882   5.572   2.598
 7740WAT     H123462   3.915   5.481   2.575
 7740WAT     H223463   3.809   5.599   2.536
 7741WAT      O23464   8.292   6.652   2.428
 7741WAT     H123465   8.350   6.703   2.491
 7741WAT     H223466   8.348   6.598   2.365
 7742WAT      O23467   2.379   7.504   9.828
 7742WAT     H123468   2.401   7.596   9.860
 7742WAT     H223469   2.283   7.484   9.848
 7743WAT      O23470   9.806   7.802   4.413
 7743WAT     H123471   9.887   7.826   4.465
 7743WAT     H223472   9.768   7.715   4.447
 7744WAT      O23473   3.429   1.703   2.557
 7744WAT     H123474   3.519   1.729   2.520
 7744WAT     H223475   3.392   1.628   2.503
 7745WAT      O23476   5.618   3.423   5.675
 7745WAT     H123477   5.529   3.468   5.665
 7745WAT     H223478   5.684   3.488   5.713
 7746WAT      O23479   2.585   5.666   6.545
 7746WAT     H123480   2.488   5.686   6.561
 7746WAT     H223481   2.598   5.636   6.451
 7747WAT      O23482   4.565   8.227   2.711
 7747WAT     H123483   4.531   8.271   2.794
 7747WAT     H223484   4.646   8.275   2.678
 7748WAT      O23485   7.368   0.070   1.898
 7748WAT     H123486   7.428   0.132   1.949
 7748WAT     H223487   7.423  -0.000   1.853
 7749WAT      O23488   6.516   9.819   3.667
 7749WAT     H123489   6.500   9.890   3.598
 7749WAT     H223490   6.537   9.733   3.621
 7750WAT      O23491   7.010   8.616   2.389
 7750WAT     H123492   7.021   8.572   2.478
 7750WAT     H223493   6.970   8.707   2.401
 7751WAT      O23494   4.605   6.024   8.225
 7751WAT     H123495   4.692   6.057   8.261
 7751WAT     H223496   4.621   5.967   8.144
 7752WAT      O23497   0.054   4.616   1.475
 7752WAT     H123498  -0.010   4.637   1.401
 7752WAT     H223499   0.014   4.643   1.562
 7753WAT      O23500   0.648   7.420   7.498
 7753WAT     H123501   0.638   7.348   7.567
 7753WAT     H223502   0.741   7.418   7.461
 7754WAT      O23503   6.992   5.662   2.276
 7754WAT     H123504   6.952   5.701   2.193
 7754WAT     H223505   7.050   5.731   2.321
 7755WAT      O23506   2.439   4.587   8.177
 7755WAT     H123507   2.469   4.610   8.270
 7755WAT     H223508   2.339   4.582   8.175
 7756WAT      O23509   9.251   2.004   9.711
 7756WAT     H123510   9.279   2.097   9.731
 7756WAT     H223511   9.156   2.004   9.680
 7757WAT      O23512   3.869   8.168   6.785
 7757WAT     H123513   3.868   8.209   6.876
 7757WAT     H223514   3.784   8.191   6.737
 7758WAT      O23515   1.364   0.837   6.186
 7758WAT     H123516   1.418   0.757   6.215
 7758WAT     H223517   1.281   0.806   6.140
 7759WAT      O23518   2.323   9.302   0.373
 7759WAT     H123519   2.381   9.227   0.339
 7759WAT     H223520   2.299   9.362   0.296
 7760WAT      O23521   4.801   4.030   8.949
 7760WAT     H123522   4.762   3.939   8.952
 7760WAT     H223523   4.752   4.090   9.012
 7761WAT      O23524   2.998   3.584   2.780
 7761WAT     H123525   2.961   3.605   2.689
 7761WAT     H223526   2.933   3.612   2.850
 7762WAT      O23527   2.584   2.550   1.917
 7762WAT     H123528   2.568   2.570   1.821
 7762WAT     H223529   2.598   2.635   1.967
 7763WAT      O23530   9.491   8.780   7.421
 7763WAT     H123531   9.514   8.726   7.502
 7763WAT     H223532   9.570   8.833   7.393
 7764WAT      O23533   5.462   5.689   6.112
 7764WAT     H123534   5.421   5.603   6.142
 7764WAT     H223535   5.446   5.760   6.181
 7765WAT      O23536   4.728   3.008   1.656
 7765WAT     H123537   4.796   3.006   1.729
 7765WAT     H223538   4.637   3.009   1.696
 7766WAT      O23539   3.272   0.372   1.959
 7766WAT     H123540   3.198   0.438   1.952
 7766WAT     H223541   3.271   0.311   1.880
 7767WAT      O23542   8.335   2.733   4.557
 7767WAT     H123543   8.391   2.702   4.481
 7767WAT     H223544   8.260   2.669   4.572
 7768WAT      O23545   7.004   6.416   4.217
 7768WAT     H123546   6.993   6.423   4.118
 7768WAT     H223547   6.938   6.352   4.254
 7769WAT      O23548   0.609   1.074   6.179
 7769WAT     H123549   0.562   1.096   6.264
 7769WAT     H223550   0.611   1.155   6.120
 7770WAT      O23551   1.017   4.329   7.288
 7770WAT     H123552   0.981   4.395   7.223
 7770WAT     H223553   0.989   4.237   7.261
 7771WAT      O23554   7.132   5.860   8.424
 7771WAT     H123555   7.193   5.883   8.500
 7771WAT     H223556   7.093   5.943   8.386
 7772WAT      O23557   2.542   8.247   1.129
 7772WAT     H123558   2.522   8.219   1.223
 7772WAT     H223559   2.641   8.251   1.116
 7773WAT      O23560   7.161   2.220   4.786
 7773WAT     H123561   7.250   2.175   4.781
 7773WAT     H223562   7.099   2.177   4.719
 7774WAT      O23563   3.657   1.793   1.142
 7774WAT     H123564   3.675   1.886   1.109
 7774WAT     H223565   3.744   1.747   1.160
 7775WAT      O23566   4.309   2.284   7.646
 7775WAT     H123567   4.306   2.376   7.607
 7775WAT     H223568   4.403   2.264   7.675
 7776WAT      O23569   4.861   0.801   3.917
 7776WAT     H123570   4.951   0.822   3.881
 7776WAT     H223571   4.812   0.739   3.855
 7777WAT      O23572   9.772   1.243   9.728
 7777WAT     H123573   9.847   1.177   9.734
 7777WAT     H223574   9.725   1.248   9.816
 7778WAT      O23575   2.584   5.692   9.486
 7778WAT     H123576   2.522   5.753   9.436
 7778WAT     H223577   2.648   5.748   9.540
 7779WAT      O23578   6.645   7.218   3.890
 7779WAT     H123579   6.723   7.165   3.856
 7779WAT     H223580   6.605   7.170   3.968
 7780WAT      O23581   8.137   2.030   1.377
 7780WAT     H123582   8.080   1.973   1.437
 7780WAT     H223583   8.180   2.102   1.432
 7781WAT      O23584   4.074   8.252   0.431
 7781WAT     H123585   4.102   8.172   0.484
 7781WAT     H223586   4.145   8.322   0.436
 7782WAT      O23587   5.275   9.769   5.015
 7782WAT     H123588   5.358   9.820   4.994
 7782WAT     H223589   5.299   9.676   5.045
 7783WAT      O23590   8.266   9.745   5.877
 7783WAT     H123591   8.287   9.819   5.814
 7783WAT     H223592   8.181   9.699   5.849
 7784WAT      O23593   2.140   6.147   9.273
 7784WAT     H123594   2.202   6.072   9.296
 7784WAT     H223595   2.156   6.176   9.178
 7785WAT      O23596   3.121   8.273   1.202
 7785WAT     H123597   3.189   8.246   1.134
 7785WAT     H223598   3.136   8.219   1.285
 7786WAT      O23599   9.310   6.912   6.742
 7786WAT     H123600   9.349   6.912   6.835
 7786WAT     H223601   9.313   7.005   6.705
 7787WAT      O23602   7.377   5.050   1.949
 7787WAT     H123603   7.317   4.970   1.952
 7787WAT     H223604   7.343   5.120   2.012
 7788WAT      O23605   8.513   3.936   3.361
 7788WAT     H123606   8.435   3.975   3.313
 7788WAT     H223607   8.564   4.009   3.407
 7789WAT      O23608   2.838   6.294   2.743
 7789WAT     H123609   2.838   6.343   2.830
 7789WAT     H223610   2.907   6.221   2.747
 7790WAT      O23611   4.413   2.407   5.586
 7790WAT     H123612   4.316   2.390   5.601
 7790WAT     H223613   4.444   2.356   5.505
 7791WAT      O23614   0.919   9.146   1.201
 7791WAT     H123615   0.875   9.166   1.288
 7791WAT     H223616   0.921   9.228   1.144
 7792WAT      O23617   4.760   3.718   1.308
 7792WAT     H123618   4.787   3.740   1.214
 7792WAT     H223619   4.695   3.643   1.307
 7793WAT      O23620   6.471   0.971   6.497
 7793WAT     H123621   6.537   0.998   6.567
 7793WAT     H223622   6.485   1.025   6.414
 7794WAT      O23623   3.650   9.465   5.263
 7794WAT     H123624   3.732   9.519   5.242
 7794WAT     H223625   3.608   9.500   5.346
 7795WAT      O23626   1.016   1.044   0.046
 7795WAT     H123627   1.003   1.111   0.119
 7795WAT     H223628   1.091   0.983   0.070
 7796WAT      O23629   2.424   9.535   9.591
 7796WAT     H123630   2.327   9.559   9.596
 7796WAT     H223631   2.452   9.491   9.677
 7797WAT      O23632   3.286   8.695   8.582
 7797WAT     H123633   3.253   8.772   8.636
 7797WAT     H223634   3.328   8.628   8.643
 7798WAT      O23635   5.716   8.613   5.407
 7798WAT     H123636   5.647   8.597   5.477
 7798WAT     H223637   5.721   8.533   5.347
 7799WAT      O23638   7.019   9.797   7.851
 7799WAT     H123639   7.070   9.727   7.901
 7799WAT     H223640   6.923   9.771   7.846
 7800WAT      O23641   6.544   4.081   7.228
 7800WAT     H123642   6.538   4.124   7.318
 7800WAT     H223643   6.536   3.982   7.238
 7801WAT      O23644   8.169   9.167   6.926
 7801WAT     H123645   8.080   9.128   6.901
 7801WAT     H223646   8.168   9.266   6.913
 7802WAT      O23647   9.196   9.215   8.151
 7802WAT     H123648   9.106   9.184   8.180
 7802WAT     H223649   9.240   9.145   8.096
 7803WAT      O23650   7.954   7.767   3.966
 7803WAT     H123651   7.947   7.841   4.032
 7803WAT     H223652   7.938   7.679   4.012
 7804WAT      O23653   8.366   2.305   8.878
 7804WAT     H123654   8.307   2.359   8.818
 7804WAT     H223655   8.394   2.361   8.956
 7805WAT      O23656   2.715   6.353   2.312
 7805WAT     H123657   2.703   6.377   2.216
 7805WAT     H223658   2.779   6.276   2.320
 7806WAT      O23659   3.831   9.686   9.153
 7806WAT     H123660   3.844   9.662   9.249
 7806WAT     H223661   3.748   9.641   9.118
 7807WAT      O23662   7.453   6.255   2.228
 7807WAT     H123663   7.386   6.249   2.302
 7807WAT     H223664   7.539   6.291   2.263
 7808WAT      O23665   9.399   3.629   2.266
 7808WAT     H123666   9.366   3.657   2.176
 7808WAT     H223667   9.435   3.709   2.314
 7809WAT      O23668   7.668   0.825   9.729
 7809WAT     H123669   7.584   0.832   9.783
 7809WAT     H223670   7.673   0.734   9.688
 7810WAT      O23671   0.561   3.620   9.433
 7810WAT     H123672   0.658   3.643   9.428
 7810WAT     H223673   0.510   3.701   9.463
 7811WAT      O23674   3.835   5.604   7.374
 7811WAT     H123675   3.832   5.533   7.303
 7811WAT     H223676   3.812   5.693   7.333
 7812WAT      O23677   8.248   1.635   4.562
 7812WAT     H123678   8.236   1.716   4.620
 7812WAT     H223679   8.232   1.553   4.617
 7813WAT      O23680   7.948   9.779   5.106
 7813WAT     H123681   7.862   9.825   5.088
 7813WAT     H223682   7.931   9.681   5.122
 7814WAT      O23683   7.966   1.790   6.553
 7814WAT     H123684   7.915   1.737   6.620
 7814WAT     H223685   7.929   1.883   6.548
 7815WAT      O23686   1.475   4.338   1.234
 7815WAT     H123687   1.445   4.415   1.290
 7815WAT     H223688   1.518   4.269   1.293
 7816WAT      O23689   7.357   0.215   7.164
 7816WAT     H123690   7.377   0.130   7.212
 7816WAT     H223691   7.324   0.283   7.229
 7817WAT      O23692   3.676   0.664   1.833
 7817WAT     H123693   3.610   0.684   1.761
 7817WAT     H223694   3.719   0.749   1.864
 7818WAT      O23695   2.510   9.042   8.634
 7818WAT     H123696   2.477   9.089   8.716
 7818WAT     H223697   2.508   9.104   8.556
 7819WAT      O23698   4.030   5.246   6.576
 7819WAT     H123699   3.996   5.259   6.482
 7819WAT     H223700   4.123   5.209   6.572
 7820WAT      O23701   3.938   2.107   2.285
 7820WAT     H123702   4.006   2.176   2.310
 7820WAT     H223703   3.855   2.153   2.252
 7821WAT      O23704   1.999   1.678   4.665
 7821WAT     H123705   1.962   1.686   4.572
 7821WAT     H223706   2.099   1.679   4.661
 7822WAT      O23707   8.525   1.023   9.058
 7822WAT     H123708   8.496   0.928   9.072
 7822WAT     H223709   8.624   1.029   9.060
 7823WAT      O23710   3.112   4.304   8.032
 7823WAT     H123711   3.148   4.298   7.939
 7823WAT     H223712   3.122   4.217   8.078
 7824WAT      O23713   9.154   0.801   9.016
 7824WAT     H123714   9.196   0.725   8.966
 7824WAT     H223715   9.079   0.839   8.963
 7825WAT      O23716   5.420   8.985   3.276
 7825WAT     H123717   5.488   9.047   3.237
 7825WAT     H223718   5.331   9.030   3.279
 7826WAT      O23719   4.330   4.744   6.688
 7826WAT     H123720   4.302   4.738   6.592
 7826WAT     H223721   4.256   4.785   6.741
 7827WAT      O23722   2.002   6.092   1.083
 7827WAT     H123723   2.018   5.995   1.066
 7827WAT     H223724   2.062   6.122   1.158
 7828WAT      O23725   7.584   6.529   8.090
 7828WAT     H123726   7.572   6.475   8.174
 7828WAT     H223727   7.592   6.626   8.114
 7829WAT      O23728   1.211   3.001   0.672
 7829WAT     H123729   1.234   3.099   0.678
 7829WAT     H223730   1.149   2.978   0.747
 7830WAT      O23731   3.899   4.217   3.785
 7830WAT     H123732   3.919   4.311   3.811
 7830WAT     H223733   3.841   4.175   3.855
 7831WAT      O23734   4.774   0.957   8.113
 7831WAT     H123735   4.712   0.881   8.132
 7831WAT     H223736   4.732   1.043   8.141
 7832WAT      O23737   5.876   5.321   9.475
 7832WAT     H123738   5.965   5.295   9.437
 7832WAT     H223739   5.807   5.315   9.403
 7833WAT      O23740   1.866   8.156   9.156
 7833WAT     H123741   1.829   8.164   9.249
 7833WAT     H223742   1.792   8.164   9.090
 7834WAT      O23743   2.554   5.247   3.638
 7834WAT     H123744   2.611   5.285   3.565
 7834WAT     H223745   2.468   5.297   3.643
 7835WAT      O23746   5.421   4.010   2.976
 7835WAT     H123747   5.374   3.929   2.942
 7835WAT     H223748   5.381   4.038   3.063
 7836WAT      O23749   7.695   2.260   5.190
 7836WAT     H123750   7.652   2.266   5.099
 7836WAT     H223751   7.761   2.186   5.190
 7837WAT      O23752   8.618   5.130   1.936
 7837WAT     H123753   8.600   5.033   1.924
 7837WAT     H223754   8.717   5.145   1.937
 7838WAT      O23755   1.540   3.570   5.430
 7838WAT     H123756   1.455   3.519   5.447
 7838WAT     H223757   1.571   3.612   5.515
 7839WAT      O23758   8.994   9.495   9.672
 7839WAT     H123759   9.015   9.590   9.697
 7839WAT     H223760   9.056   9.434   9.721
 7840WAT      O23761   9.395   9.164   2.086
 7840WAT     H123762   9.439   9.245   2.124
 7840WAT     H223763   9.463   9.090   2.078
 7841WAT      O23764   6.688   5.404   5.830
 7841WAT     H123765   6.598   5.376   5.863
 7841WAT     H223766   6.742   5.439   5.907
 7842WAT      O23767   3.453   9.025   3.883
 7842WAT     H123768   3.503   9.041   3.968
 7842WAT     H223769   3.457   9.108   3.826
 7843WAT      O23770   4.329   5.482   0.083
 7843WAT     H123771   4.298   5.393   0.049
 7843WAT     H223772   4.429   5.481   0.092
 7844WAT      O23773   3.196   9.277   2.619
 7844WAT     H123774   3.106   9.245   2.647
 7844WAT     H223775   3.186   9.350   2.551
 7845WAT      O23776   1.134   3.505   7.085
 7845WAT     H123777   1.149   3.511   7.184
 7845WAT     H223778   1.133   3.597   7.046
 7846WAT      O23779   6.310   3.239   1.069
 7846WAT     H123780   6.299   3.141   1.048
 7846WAT     H223781   6.346   3.249   1.161
 7847WAT      O23782   0.878   0.855   7.939
 7847WAT     H123783   0.976   0.856   7.916
 7847WAT     H223784   0.864   0.907   8.023
 7848WAT      O23785   0.658   7.374   5.249
 7848WAT     H123786   0.639   7.412   5.158
 7848WAT     H223787   0.679   7.449   5.312
 7849WAT      O23788   4.077   7.418   0.820
 7849WAT     H123789   4.097   7.337   0.765
 7849WAT     H223790   4.162   7.456   0.856
 7850WAT      O23791   7.327   8.085   2.698
 7850WAT     H123792   7.233   8.118   2.693
 7850WAT     H223793   7.357   8.086   2.794
 7851WAT      O23794   2.494   1.336   0.918
 7851WAT     H123795   2.539   1.367   0.834
 7851WAT     H223796   2.501   1.407   0.988
 7852WAT      O23797   2.225   1.689   4.530
 7852WAT     H123798   2.276   1.772   4.552
 7852WAT     H223799   2.211   1.684   4.431
 7853WAT      O23800   6.269   3.920   8.932
 7853WAT     H123801   6.276   3.874   9.020
 7853WAT     H223802   6.201   3.873   8.875
 7854WAT      O23803   1.087   2.830   9.690
 7854WAT     H123804   1.139   2.915   9.702
 7854WAT     H223805   1.100   2.771   9.769
 7855WAT      O23806   9.107   6.696   8.509
 7855WAT     H123807   9.111   6.607   8.554
 7855WAT     H223808   9.114   6.683   8.410
 7856WAT      O23809   4.691   8.358   9.863
 7856WAT     H123810   4.611   8.305   9.891
 7856WAT     H223811   4.690   8.369   9.764
 7857WAT      O23812   8.656   8.798   8.753
 7857WAT     H123813   8.714   8.875   8.778
 7857WAT     H223814   8.637   8.743   8.834
 7858WAT      O23815   3.012   4.656   8.522
 7858WAT     H123816   2.945   4.604   8.468
 7858WAT     H223817   3.102   4.648   8.479
 7859WAT      O23818   8.974   0.298   7.299
 7859WAT     H123819   8.987   0.373   7.364
 7859WAT     H223820   9.036   0.310   7.221
 7860WAT      O23821   5.816   7.098   6.103
 7860WAT     H123822   5.825   7.190   6.140
 7860WAT     H223823   5.897   7.044   6.125
 7861WAT      O23824   1.809   8.555   7.829
 7861WAT     H123825   1.855   8.638   7.796
 7861WAT     H223826   1.788   8.495   7.752
 7862WAT      O23827   4.786   2.078   8.224
 7862WAT     H123828   4.809   1.990   8.267
 7862WAT     H223829   4.711   2.120   8.274
 7863WAT      O23830   3.578   8.454   8.199
 7863WAT     H123831   3.587   8.362   8.160
 7863WAT     H223832   3.610   8.453   8.293
 7864WAT      O23833   5.377   8.567   1.382
 7864WAT     H123834   5.387   8.650   1.328
 7864WAT     H223835   5.386   8.487   1.322
 7865WAT      O23836   4.381   2.493   5.256
 7865WAT     H123837   4.376   2.471   5.159
 7865WAT     H223838   4.425   2.418   5.305
 7866WAT      O23839   3.402   3.396   5.773
 7866WAT     H123840   3.478   3.396   5.838
 7866WAT     H223841   3.316   3.382   5.822
 7867WAT      O23842   7.803   7.540   9.828
 7867WAT     H123843   7.852   7.556   9.913
 7867WAT     H223844   7.718   7.491   9.847
 7868WAT      O23845   8.228   4.672   1.109
 7868WAT     H123846   8.206   4.576   1.128
 7868WAT     H223847   8.327   4.685   1.115
 7869WAT      O23848   1.771   9.509   7.650
 7869WAT     H123849   1.786   9.464   7.563
 7869WAT     H223850   1.769   9.608   7.637
 7870WAT      O23851   1.468   4.145   3.922
 7870WAT     H123852   1.386   4.114   3.873
 7870WAT     H223853   1.468   4.245   3.926
 7871WAT      O23854   0.699   3.806   2.989
 7871WAT     H123855   0.694   3.728   3.050
 7871WAT     H223856   0.614   3.814   2.937
 7872WAT      O23857   8.007   3.438   4.181
 7872WAT     H123858   8.039   3.533   4.186
 7872WAT     H223859   7.925   3.434   4.124
 7873WAT      O23860   2.071   3.778   4.244
 7873WAT     H123861   2.030   3.688   4.261
 7873WAT     H223862   2.002   3.848   4.257
 7874WAT      O23863   9.059   4.946   0.118
 7874WAT     H123864   9.016   4.872   0.067
 7874WAT     H223865   9.132   4.986   0.063
 7875WAT      O23866   1.406   7.455   4.936
 7875WAT     H123867   1.364   7.409   4.858
 7875WAT     H223868   1.398   7.554   4.925
 7876WAT      O23869   6.690   9.418   4.598
 7876WAT     H123870   6.678   9.405   4.500
 7876WAT     H223871   6.787   9.414   4.621
 7877WAT      O23872   4.414   5.329   6.332
 7877WAT     H123873   4.408   5.247   6.274
 7877WAT     H223874   4.365   5.313   6.417
 7878WAT      O23875   8.843   2.168   4.608
 7878WAT     H123876   8.880   2.145   4.698
 7878WAT     H223877   8.756   2.217   4.618
 7879WAT      O23878   4.443   5.024   2.587
 7879WAT     H123879   4.511   4.991   2.521
 7879WAT     H223880   4.480   5.102   2.637
 7880WAT      O23881   7.719   3.487   0.613
 7880WAT     H123882   7.804   3.529   0.646
 7880WAT     H223883   7.641   3.541   0.646
 7881WAT      O23884   7.066   0.203   2.227
 7881WAT     H123885   7.082   0.301   2.233
 7881WAT     H223886   6.982   0.179   2.275
 7882WAT      O23887   8.462   3.436   8.961
 7882WAT     H123888   8.500   3.380   8.887
 7882WAT     H223889   8.399   3.503   8.923
 7883WAT      O23890   0.187   7.774   0.820
 7883WAT     H123891   0.210   7.871   0.806
 7883WAT     H223892   0.196   7.751   0.917
 7884WAT      O23893   7.413   2.479   9.848
 7884WAT     H123894   7.430   2.456   9.752
 7884WAT     H223895   7.426   2.578   9.861
 7885WAT      O23896   9.059   4.776   8.456
 7885WAT     H123897   9.116   4.848   8.418
 7885WAT     H223898   8.988   4.816   8.513
 7886WAT      O23899   2.227   0.398   7.164
 7886WAT     H123900   2.149   0.414   7.105
 7886WAT     H223901   2.310   0.386   7.109
 7887WAT      O23902   6.731   6.095   4.159
 7887WAT     H123903   6.656   6.161   4.153
 7887WAT     H223904   6.789   6.117   4.238
 7888WAT      O23905   8.763   3.357   6.304
 7888WAT     H123906   8.799   3.295   6.234
 7888WAT     H223907   8.664   3.361   6.296
 7889WAT      O23908   4.792   1.317   7.570
 7889WAT     H123909   4.739   1.252   7.625
 7889WAT     H223910   4.886   1.321   7.603
 7890WAT      O23911   5.420   2.621   0.741
 7890WAT     H123912   5.360   2.702   0.743
 7890WAT     H223913   5.370   2.542   0.775
 7891WAT      O23914   3.785   8.947   1.796
 7891WAT     H123915   3.752   8.917   1.706
 7891WAT     H223916   3.708   8.947   1.861
 7892WAT      O23917   5.906   0.811   1.846
 7892WAT     H123918   5.972   0.883   1.821
 7892WAT     H223919   5.823   0.822   1.792
 7893WAT      O23920   7.423   1.124   6.495
 7893WAT     H123921   7.410   1.183   6.574
 7893WAT     H223922   7.402   1.029   6.520
 7894WAT      O23923   4.868   0.657   5.760
 7894WAT     H123924   4.867   0.724   5.686
 7894WAT     H223925   4.860   0.704   5.848
 7895WAT      O23926   3.999   5.824   9.651
 7895WAT     H123927   4.051   5.750   9.607
 7895WAT     H223928   4.062   5.892   9.689
 7896WAT      O23929   0.269   4.532   8.553
 7896WAT     H123930   0.204   4.597   8.514
 7896WAT     H223931   0.354   4.580   8.576
 7897WAT      O23932   8.118   6.373   2.973
 7897WAT     H123933   8.151   6.398   2.882
 7897WAT     H223934   8.162   6.432   3.041
 7898WAT      O23935   6.215   1.906   1.351
 7898WAT     H123936   6.240   1.982   1.410
 7898WAT     H223937   6.149   1.937   1.282
 7899WAT      O23938   7.933   3.499   1.636
 7899WAT     H123939   8.019   3.544   1.613
 7899WAT     H223940   7.945   3.400   1.633
 7900WAT      O23941   8.251   5.798   9.597
 7900WAT     H123942   8.301   5.773   9.680
 7900WAT     H223943   8.247   5.719   9.535
 7901WAT      O23944   9.597   5.576   7.938
 7901WAT     H123945   9.629   5.661   7.897
 7901WAT     H223946   9.667   5.505   7.926
 7902WAT      O23947   3.647   1.151   8.822
 7902WAT     H123948   3.596   1.233   8.849
 7902WAT     H223949   3.693   1.168   8.735
 7903WAT      O23950   9.310   4.379   6.898
 7903WAT     H123951   9.261   4.356   6.814
 7903WAT     H223952   9.403   4.407   6.876
 7904WAT      O23953   9.008   7.306   8.556
 7904WAT     H123954   9.007   7.242   8.634
 7904WAT     H223955   9.062   7.266   8.482
 7905WAT      O23956   2.547   0.183   4.369
 7905WAT     H123957   2.514   0.102   4.321
 7905WAT     H223958   2.646   0.193   4.354
 7906WAT      O23959   2.297   2.982   4.941
 7906WAT     H123960   2.389   2.983   4.901
 7906WAT     H223961   2.303   2.951   5.036
 7907WAT      O23962   8.605   2.463   7.201
 7907WAT     H123963   8.686   2.414   7.168
 7907WAT     H223964   8.565   2.412   7.277
 7908WAT      O23965   6.458   2.515   8.060
 7908WAT     H123966   6.537   2.529   8.000
 7908WAT     H223967   6.449   2.593   8.122
 7909WAT      O23968   1.651   6.309   9.475
 7909WAT     H123969   1.738   6.356   9.489
 7909WAT     H223970   1.637   6.291   9.378
 7910WAT      O23971   7.382   7.496   0.531
 7910WAT     H123972   7.436   7.532   0.608
 7910WAT     H223973   7.323   7.423   0.564
 7911WAT      O23974   1.630   4.369   2.770
 7911WAT     H123975   1.638   4.444   2.705
 7911WAT     H223976   1.640   4.404   2.863
 7912WAT      O23977   2.122   5.738   9.868
 7912WAT     H123978   2.140   5.782   9.780
 7912WAT     H223979   2.050   5.787   9.916
 7913WAT      O23980   6.251   3.410   0.120
 7913WAT     H123981   6.264   3.343   0.192
 7913WAT     H223982   6.163   3.395   0.075
 7914WAT      O23983   2.013   4.935   3.422
 7914WAT     H123984   2.101   4.984   3.417
 7914WAT     H223985   2.024   4.844   3.382
 7915WAT      O23986   6.248   2.782   3.219
 7915WAT     H123987   6.282   2.862   3.171
 7915WAT     H223988   6.253   2.798   3.318
 7916WAT      O23989   2.936   6.948   1.242
 7916WAT     H123990   3.020   6.896   1.258
 7916WAT     H223991   2.957   7.027   1.183
 7917WAT      O23992   3.691   8.961   7.397
 7917WAT     H123993   3.712   9.016   7.317
 7917WAT     H223994   3.639   9.016   7.463
 7918WAT      O23995   9.298   8.808   4.575
 7918WAT     H123996   9.308   8.803   4.675
 7918WAT     H223997   9.308   8.903   4.545
 7919WAT      O23998   3.552   8.147   6.056
 7919WAT     H123999   3.468   8.167   6.005
 7919WAT     H224000   3.566   8.048   6.059
 7920WAT      O24001   3.814   3.970   9.228
 7920WAT     H124002   3.753   3.960   9.150
 7920WAT     H224003   3.820   3.883   9.277
 7921WAT      O24004   5.625   8.180   7.846
 7921WAT     H124005   5.559   8.236   7.897
 7921WAT     H224006   5.584   8.091   7.825
 7922WAT      O24007   9.877   9.581   7.348
 7922WAT     H124008   9.912   9.579   7.254
 7922WAT     H224009   9.831   9.495   7.368
 7923WAT      O24010   3.659   1.694   4.271
 7923WAT     H124011   3.654   1.633   4.351
 7923WAT     H224012   3.669   1.639   4.188
 7924WAT      O24013   9.268   6.514   9.176
 7924WAT     H124014   9.253   6.480   9.083
 7924WAT     H224015   9.345   6.578   9.176
 7925WAT      O24016   6.009   4.029   9.867
 7925WAT     H124017   5.949   3.965   9.818
 7925WAT     H224018   6.010   4.006   9.964
 7926WAT      O24019   5.162   4.523   2.393
 7926WAT     H124020   5.068   4.547   2.417
 7926WAT     H224021   5.160   4.454   2.319
 7927WAT      O24022   6.442   7.089   4.050
 7927WAT     H124023   6.404   7.051   3.966
 7927WAT     H224024   6.369   7.134   4.102
 7928WAT      O24025   6.489   4.362   2.750
 7928WAT     H124026   6.550   4.409   2.814
 7928WAT     H224027   6.433   4.295   2.799
 7929WAT      O24028   6.505   5.259   9.025
 7929WAT     H124029   6.442   5.184   9.004
 7929WAT     H224030   6.503   5.278   9.123
 7930WAT      O24031   3.555   9.431   5.925
 7930WAT     H124032   3.538   9.401   6.018
 7930WAT     H224033   3.507   9.518   5.909
 7931WAT      O24034   5.386   0.812   3.555
 7931WAT     H124035   5.381   0.902   3.512
 7931WAT     H224036   5.368   0.820   3.653
 7932WAT      O24037   7.536   8.181   4.314
 7932WAT     H124038   7.564   8.113   4.382
 7932WAT     H224039   7.567   8.153   4.223
 7933WAT      O24040   7.774   6.971   2.967
 7933WAT     H124041   7.814   6.910   3.036
 7933WAT     H224042   7.821   6.959   2.880
 7934WAT      O24043   9.861   9.417   3.212
 7934WAT     H124044   9.916   9.448   3.290
 7934WAT     H224045   9.796   9.347   3.243
 7935WAT      O24046   6.705   5.019   3.758
 7935WAT     H124047   6.703   5.099   3.818
 7935WAT     H224048   6.786   4.964   3.778
 7936WAT      O24049   3.745   0.290   1.038
 7936WAT     H124050   3.725   0.235   1.118
 7936WAT     H224051   3.660   0.330   1.002
 7937WAT      O24052   2.890   1.970   6.829
 7937WAT     H124053   2.961   1.901   6.842
 7937WAT     H224054   2.932   2.055   6.797
 7938WAT      O24055   2.065   4.984   2.433
 7938WAT     H124056   2.157   4.975   2.470
 7938WAT     H224057   2.065   5.048   2.356
 7939WAT      O24058   1.244   8.194   8.197
 7939WAT     H124059   1.173   8.244   8.148
 7939WAT     H224060   1.265   8.242   8.283
 7940WAT      O24061   2.582   9.084   2.316
 7940WAT     H124062   2.629   9.023   2.253
 7940WAT     H224063   2.499   9.119   2.273
 7941WAT      O24064   2.666   8.629   3.655
 7941WAT     H124065   2.733   8.703   3.645
 7941WAT     H224066   2.588   8.663   3.708
 7942WAT      O24067   0.406   5.614   7.608
 7942WAT     H124068   0.495   5.648   7.638
 7942WAT     H224069   0.394   5.520   7.637
 7943WAT      O24070   2.176   8.008   0.133
 7943WAT     H124071   2.199   8.053   0.046
 7943WAT     H224072   2.079   7.985   0.135
 7944WAT      O24073   5.721   0.044   7.653
 7944WAT     H124074   5.717   0.057   7.752
 7944WAT     H224075   5.645  -0.014   7.624
 7945WAT      O24076   7.242   8.436   5.615
 7945WAT     H124077   7.226   8.387   5.701
 7945WAT     H224078   7.264   8.370   5.543
 7946WAT      O24079   5.349   5.869   7.518
 7946WAT     H124080   5.370   5.825   7.605
 7946WAT     H224081   5.377   5.965   7.520
 7947WAT      O24082   1.733   2.275   8.974
 7947WAT     H124083   1.817   2.313   9.012
 7947WAT     H224084   1.755   2.210   8.902
 7948WAT      O24085   3.238   9.484   0.521
 7948WAT     H124086   3.277   9.565   0.477
 7948WAT     H224087   3.139   9.494   0.528
 7949WAT      O24088   5.567   4.859   0.830
 7949WAT     H124089   5.617   4.856   0.743
 7949WAT     H224090   5.622   4.815   0.901
 7950WAT      O24091   5.147   5.906   4.906
 7950WAT     H124092   5.225   5.965   4.929
 7950WAT     H224093   5.064   5.961   4.901
 7951WAT      O24094   3.114   8.694   8.364
 7951WAT     H124095   3.153   8.715   8.453
 7951WAT     H224096   3.066   8.774   8.328
 7952WAT      O24097   1.892   0.146   5.037
 7952WAT     H124098   1.916   0.123   4.943
 7952WAT     H224099   1.924   0.239   5.058
 7953WAT      O24100   0.988   9.086   4.826
 7953WAT     H124101   0.896   9.101   4.790
 7953WAT     H224102   0.986   9.091   4.925
 7954WAT      O24103   7.329   9.394   0.744
 7954WAT     H124104   7.238   9.412   0.782
 7954WAT     H224105   7.372   9.480   0.717
 7955WAT      O24106   7.067   2.701   7.710
 7955WAT     H124107   7.051   2.701   7.809
 7955WAT     H224108   7.058   2.608   7.675
 7956WAT      O24109   6.585   8.930   8.356
 7956WAT     H124110   6.681   8.903   8.347
 7956WAT     H224111   6.572   8.976   8.443
 7957WAT      O24112   4.096   9.664   5.539
 7957WAT     H124113   4.195   9.659   5.545
 7957WAT     H224114   4.070   9.740   5.480
 7958WAT      O24115   4.065   6.996   6.003
 7958WAT     H124116   4.155   7.017   6.041
 7958WAT     H224117   4.040   7.065   5.935
 7959WAT      O24118   7.787   6.115   0.555
 7959WAT     H124119   7.857   6.143   0.489
 7959WAT     H224120   7.737   6.036   0.519
 7960WAT      O24121   5.545   2.419   9.493
 7960WAT     H124122   5.532   2.415   9.592
 7960WAT     H224123   5.456   2.420   9.448
 7961WAT      O24124   2.391   1.100   2.853
 7961WAT     H124125   2.321   1.150   2.905
 7961WAT     H224126   2.395   1.006   2.885
 7962WAT      O24127   6.019   5.199   8.404
 7962WAT     H124128   6.099   5.139   8.418
 7962WAT     H224129   6.041   5.291   8.435
 7963WAT      O24130   2.872   8.193   0.259
 7963WAT     H124131   2.842   8.141   0.179
 7963WAT     H224132   2.885   8.289   0.233
 7964WAT      O24133   1.200   8.037   9.184
 7964WAT     H124134   1.140   7.992   9.251
 7964WAT     H224135   1.174   8.133   9.175
 7965WAT      O24136   0.586   6.543   0.467
 7965WAT     H124137   0.594   6.590   0.379
 7965WAT     H224138   0.492   6.513   0.480
 7966WAT      O24139   0.935   3.645   8.152
 7966WAT     H124140   0.989   3.666   8.234
 7966WAT     H224141   0.887   3.728   8.122
 7967WAT      O24142   6.297   8.932   8.618
 7967WAT     H124143   6.218   8.963   8.565
 7967WAT     H224144   6.380   8.974   8.581
 7968WAT      O24145   1.377   7.546   9.212
 7968WAT     H124146   1.430   7.577   9.291
 7968WAT     H224147   1.332   7.625   9.170
 7969WAT      O24148   4.941   2.290   3.099
 7969WAT     H124149   5.026   2.279   3.152
 7969WAT     H224150   4.866   2.313   3.161
 7970WAT      O24151   5.042   2.785   6.316
 7970WAT     H124152   5.027   2.751   6.409
 7970WAT     H224153   5.065   2.882   6.319
 7971WAT      O24154   2.962   3.364   3.651
 7971WAT     H124155   3.046   3.404   3.687
 7971WAT     H224156   2.983   3.278   3.605
 7972WAT      O24157   9.651   3.412   3.997
 7972WAT     H124158   9.572   3.350   4.006
 7972WAT     H224159   9.657   3.470   4.078
 7973WAT      O24160   1.461   2.942   0.950
 7973WAT     H124161   1.553   2.974   0.927
 7973WAT     H224162   1.444   2.855   0.903
 7974WAT      O24163   7.936   0.483   1.621
 7974WAT     H124164   7.885   0.547   1.679
 7974WAT     H224165   7.971   0.408   1.678
 7975WAT      O24166   1.943   1.045   9.000
 7975WAT     H124167   1.846   1.069   9.006
 7975WAT     H224168   1.998   1.128   9.008
 7976WAT      O24169   3.978   5.731   9.322
 7976WAT     H124170   3.958   5.673   9.401
 7976WAT     H224171   4.041   5.804   9.349
 7977WAT      O24172   2.473   5.180   1.721
 7977WAT     H124173   2.460   5.246   1.647
 7977WAT     H224174   2.416   5.205   1.799
 7978WAT      O24175   7.276   9.104   0.976
 7978WAT     H124176   7.366   9.092   1.017
 7978WAT     H224177   7.286   9.122   0.878
 7979WAT      O24178   2.364   5.766   5.006
 7979WAT     H124179   2.306   5.716   4.941
 7979WAT     H224180   2.450   5.790   4.961
 7980WAT      O24181   2.025   1.753   2.461
 7980WAT     H124182   2.113   1.797   2.445
 7980WAT     H224183   2.034   1.654   2.451
 7981WAT      O24184   8.538   2.798   5.642
 7981WAT     H124185   8.574   2.787   5.735
 7981WAT     H224186   8.532   2.895   5.621
 7982WAT      O24187   8.985   4.264   2.371
 7982WAT     H124188   8.886   4.266   2.364
 7982WAT     H224189   9.014   4.304   2.458
 7983WAT      O24190   0.110   0.662   8.208
 7983WAT     H124191   0.078   0.571   8.231
 7983WAT     H224192   0.073   0.728   8.273
 7984WAT      O24193   8.408   2.344   2.759
 7984WAT     H124194   8.351   2.288   2.820
 7984WAT     H224195   8.414   2.299   2.670
 7985WAT      O24196   0.267   4.926   1.616
 7985WAT     H124197   0.246   5.022   1.632
 7985WAT     H224198   0.260   4.875   1.702
 7986WAT      O24199   7.487   7.227   5.326
 7986WAT     H124200   7.417   7.298   5.317
 7986WAT     H224201   7.500   7.182   5.237
 7987WAT      O24202   2.029   5.566   8.183
 7987WAT     H124203   1.974   5.637   8.227
 7987WAT     H224204   2.008   5.477   8.224
 7988WAT      O24205   8.528   4.935   2.288
 7988WAT     H124206   8.522   5.032   2.266
 7988WAT     H224207   8.579   4.922   2.373
 7989WAT      O24208   5.845   9.159   4.626
 7989WAT     H124209   5.831   9.186   4.531
 7989WAT     H224210   5.926   9.100   4.632
 7990WAT      O24211   6.606   4.293   8.155
 7990WAT     H124212   6.525   4.298   8.096
 7990WAT     H224213   6.688   4.282   8.098
 7991WAT      O24214   0.582   7.938   7.832
 7991WAT     H124215   0.510   7.871   7.814
 7991WAT     H224216   0.544   8.030   7.819
 7992WAT      O24217   5.088   9.682   4.092
 7992WAT     H124218   5.119   9.620   4.164
 7992WAT     H224219   5.132   9.771   4.103
 7993WAT      O24220   1.960   7.027   6.745
 7993WAT     H124221   2.043   7.052   6.696
 7993WAT     H224222   1.884   7.021   6.681
 7994WAT      O24223   0.729   0.907   3.710
 7994WAT     H124224   0.669   0.901   3.790
 7994WAT     H224225   0.680   0.877   3.629
 7995WAT      O24226   2.858   3.320   8.977
 7995WAT     H124227   2.845   3.221   8.983
 7995WAT     H224228   2.894   3.343   8.887
 7996WAT      O24229   8.304   2.256   0.132
 7996WAT     H124230   8.258   2.338   0.099
 7996WAT     H224231   8.400   2.276   0.148
 7997WAT      O24232   7.736   6.128   6.972
 7997WAT     H124233   7.809   6.186   6.935
 7997WAT     H224234   7.728   6.045   6.916
 7998WAT      O24235   5.770   7.906   2.743
 7998WAT     H124236   5.721   7.820   2.754
 7998WAT     H224237   5.733   7.974   2.805
 7999WAT      O24238   2.850   3.745   1.648
 7999WAT     H124239   2.862   3.844   1.650
 7999WAT     H224240   2.783   3.720   1.578
 8000WAT      O24241   8.174   9.214   7.571
 8000WAT     H124242   8.189   9.264   7.487
 8000WAT     H224243   8.231   9.251   7.644
 8001WAT      O24244   1.787   6.008   9.532
 8001WAT     H124245   1.750   6.065   9.605
 8001WAT     H224246   1.730   6.019   9.450
 8002WAT      O24247   5.091   8.963   4.190
 8002WAT     H124248   4.999   8.998   4.171
 8002WAT     H224249   5.156   9.004   4.127
 8003WAT      O24250   0.155   5.462   6.828
 8003WAT     H124251   0.233   5.422   6.781
 8003WAT     H224252   0.175   5.556   6.854
 8004WAT      O24253   1.983   1.212   9.770
 8004WAT     H124254   1.920   1.135   9.779
 8004WAT     H224255   1.934   1.291   9.734
 8005WAT      O24256   5.094   6.404   0.322
 8005WAT     H124257   5.073   6.382   0.227
 8005WAT     H224258   5.186   6.370   0.344
 8006WAT      O24259   0.382   0.011   5.171
 8006WAT     H124260   0.389   0.070   5.091
 8006WAT     H224261   0.289   0.016   5.208
 8007WAT      O24262   0.487   1.349   4.387
 8007WAT     H124263   0.430   1.267   4.379
 8007WAT     H224264   0.580   1.329   4.357
 8008WAT      O24265   1.080   3.942   5.050
 8008WAT     H124266   1.038   3.851   5.052
 8008WAT     H224267   1.099   3.969   4.955
 8009WAT      O24268   8.626   0.070   7.085
 8009WAT     H124269   8.678   0.153   7.105
 8009WAT     H224270   8.687   0.001   7.046
 8010WAT      O24271   1.422   5.864   5.429
 8010WAT     H124272   1.406   5.770   5.459
 8010WAT     H224273   1.343   5.896   5.377
 8011WAT      O24274   6.563   4.298   5.394
 8011WAT     H124275   6.542   4.250   5.309
 8011WAT     H224276   6.652   4.269   5.427
 8012WAT      O24277   8.265   5.109   8.239
 8012WAT     H124278   8.280   5.064   8.151
 8012WAT     H224279   8.167   5.122   8.254
 8013WAT      O24280   5.810   5.930   1.251
 8013WAT     H124281   5.841   5.924   1.345
 8013WAT     H224282   5.888   5.921   1.189
 8014WAT      O24283   3.045   2.421   2.823
 8014WAT     H124284   3.003   2.471   2.747
 8014WAT     H224285   3.096   2.343   2.787
 8015WAT      O24286   3.667   1.806   8.517
 8015WAT     H124287   3.728   1.853   8.452
 8015WAT     H224288   3.721   1.744   8.574
 8016WAT      O24289   9.741   1.613   5.930
 8016WAT     H124290   9.835   1.641   5.949
 8016WAT     H224291   9.693   1.687   5.883
 8017WAT      O24292   6.796   2.752   3.929
 8017WAT     H124293   6.854   2.820   3.884
 8017WAT     H224294   6.737   2.798   3.995
 8018WAT      O24295   1.565   9.667   2.877
 8018WAT     H124296   1.655   9.667   2.919
 8018WAT     H224297   1.509   9.740   2.916
 8019WAT      O24298   9.501   1.641   0.631
 8019WAT     H124299   9.443   1.559   0.642
 8019WAT     H224300   9.443   1.720   0.616
 8020WAT      O24301   8.662   2.383   2.708
 8020WAT     H124302   8.567   2.370   2.736
 8020WAT     H224303   8.690   2.308   2.648
 8021WAT      O24304   2.631   9.431   7.329
 8021WAT     H124305   2.706   9.419   7.264
 8021WAT     H224306   2.655   9.503   7.394
 8022WAT      O24307   2.732   5.380   7.381
 8022WAT     H124308   2.817   5.381   7.329
 8022WAT     H224309   2.658   5.417   7.325
 8023WAT      O24310   1.505   9.786   0.250
 8023WAT     H124311   1.559   9.857   0.295
 8023WAT     H224312   1.435   9.752   0.314
 8024WAT      O24313   9.510   8.004   8.717
 8024WAT     H124314   9.495   8.102   8.728
 8024WAT     H224315   9.529   7.962   8.806
 8025WAT      O24316   8.948   4.322   7.330
 8025WAT     H124317   9.012   4.399   7.330
 8025WAT     H224318   8.933   4.291   7.423
 8026WAT      O24319   3.098   1.334   6.662
 8026WAT     H124320   3.075   1.265   6.731
 8026WAT     H224321   3.013   1.370   6.622
 8027WAT      O24322   3.330   5.359   0.229
 8027WAT     H124323   3.277   5.277   0.251
 8027WAT     H224324   3.417   5.355   0.278
 8028WAT      O24325   7.023   2.097   4.598
 8028WAT     H124326   6.940   2.075   4.546
 8028WAT     H224327   7.103   2.063   4.549
 8029WAT      O24328   8.666   1.332   0.343
 8029WAT     H124329   8.593   1.346   0.276
 8029WAT     H224330   8.625   1.309   0.432
 8030WAT      O24331   7.960   2.205   7.276
 8030WAT     H124332   8.046   2.155   7.283
 8030WAT     H224333   7.898   2.158   7.213
 8031WAT      O24334   5.787   2.932   7.865
 8031WAT     H124335   5.877   2.964   7.896
 8031WAT     H224336   5.731   3.010   7.839
 8032WAT      O24337   0.441   8.170   4.806
 8032WAT     H124338   0.536   8.196   4.824
 8032WAT     H224339   0.396   8.147   4.892
 8033WAT      O24340   8.770   9.321   3.518
 8033WAT     H124341   8.746   9.376   3.438
 8033WAT     H224342   8.866   9.294   3.511
 8034WAT      O24343   1.406   2.727   3.962
 8034WAT     H124344   1.436   2.818   3.991
 8034WAT     H224345   1.316   2.733   3.920
 8035WAT      O24346   4.382   2.491   5.950
 8035WAT     H124347   4.472   2.454   5.971
 8035WAT     H224348   4.390   2.564   5.881
 8036WAT      O24349   6.451   5.708   4.925
 8036WAT     H124350   6.474   5.759   5.008
 8036WAT     H224351   6.384   5.760   4.872
 8037WAT      O24352   0.448   5.522   5.304
 8037WAT     H124353   0.383   5.566   5.242
 8037WAT     H224354   0.416   5.431   5.328
 8038WAT      O24355   3.671   8.075   6.301
 8038WAT     H124356   3.610   8.109   6.229
 8038WAT     H224357   3.697   7.980   6.279
 8039WAT      O24358   2.819   6.003   8.044
 8039WAT     H124359   2.901   6.024   7.992
 8039WAT     H224360   2.831   5.917   8.094
 8040WAT      O24361   9.732   2.179   2.684
 8040WAT     H124362   9.658   2.132   2.637
 8040WAT     H224363   9.785   2.113   2.738
 8041WAT      O24364   4.053   1.086   7.216
 8041WAT     H124365   4.040   1.098   7.314
 8041WAT     H224366   3.997   1.153   7.167
 8042WAT      O24367   3.997   5.713   8.079
 8042WAT     H124368   3.978   5.748   8.171
 8042WAT     H224369   3.976   5.783   8.011
 8043WAT      O24370   8.447   1.802   0.101
 8043WAT     H124371   8.407   1.837   0.186
 8043WAT     H224372   8.437   1.703   0.098
 8044WAT      O24373   6.461   0.055   8.515
 8044WAT     H124374   6.556   0.062   8.546
 8044WAT     H224375   6.440   0.129   8.452
 8045WAT      O24376   7.579   6.368   4.341
 8045WAT     H124377   7.594   6.309   4.421
 8045WAT     H224378   7.500   6.336   4.290
 8046WAT      O24379   0.188   4.698   0.421
 8046WAT     H124380   0.233   4.685   0.333
 8046WAT     H224381   0.091   4.673   0.412
 8047WAT      O24382   9.684   4.490   2.443
 8047WAT     H124383   9.770   4.540   2.452
 8047WAT     H224384   9.607   4.554   2.452
 8048WAT      O24385   2.215   8.401   6.903
 8048WAT     H124386   2.214   8.350   6.989
 8048WAT     H224387   2.264   8.487   6.917
 8049WAT      O24388   4.753   0.307   5.479
 8049WAT     H124389   4.845   0.303   5.440
 8049WAT     H224390   4.686   0.279   5.411
 8050WAT      O24391   7.289   0.296   2.901
 8050WAT     H124392   7.292   0.202   2.935
 8050WAT     H224393   7.200   0.337   2.922
 8051WAT      O24394   3.835   0.304   9.124
 8051WAT     H124395   3.877   0.215   9.106
 8051WAT     H224396   3.861   0.335   9.216
 8052WAT      O24397   5.978   9.421   4.718
 8052WAT     H124398   5.918   9.379   4.650
 8052WAT     H224399   5.959   9.519   4.723
 8053WAT      O24400   2.776   5.494   8.302
 8053WAT     H124401   2.798   5.583   8.263
 8053WAT     H224402   2.803   5.422   8.238
 8054WAT      O24403   5.776   1.015   7.496
 8054WAT     H124404   5.774   1.064   7.583
 8054WAT     H224405   5.807   0.921   7.511
 8055WAT      O24406   8.025   1.774   5.643
 8055WAT     H124407   8.015   1.676   5.656
 8055WAT     H224408   7.989   1.822   5.724
 8056WAT      O24409   6.012   7.577   3.466
 8056WAT     H124410   6.052   7.494   3.502
 8056WAT     H224411   5.913   7.576   3.480
 8057WAT      O24412   2.615   4.872   5.887
 8057WAT     H124413   2.585   4.944   5.949
 8057WAT     H224414   2.713   4.855   5.899
 8058WAT      O24415   0.299   5.521   2.592
 8058WAT     H124416   0.365   5.574   2.538
 8058WAT     H224417   0.345   5.443   2.633
 8059WAT      O24418   9.681   7.333   7.926
 8059WAT     H124419   9.687   7.427   7.893
 8059WAT     H224420   9.593   7.293   7.898
 8060WAT      O24421   6.827   1.188   5.763
 8060WAT     H124422   6.782   1.245   5.832
 8060WAT     H224423   6.886   1.245   5.706
 8061WAT      O24424   0.757   8.853   5.223
 8061WAT     H124425   0.663   8.830   5.245
 8061WAT     H224426   0.774   8.833   5.126
 8062WAT      O24427   6.591   8.468   9.816
 8062WAT     H124428   6.514   8.405   9.820
 8062WAT     H224429   6.665   8.435   9.874
 8063WAT      O24430   6.845   0.920   3.432
 8063WAT     H124431   6.923   0.896   3.374
 8063WAT     H224432   6.766   0.940   3.374
 8064WAT      O24433   9.031   6.884   0.306
 8064WAT     H124434   8.951   6.832   0.337
 8064WAT     H224435   9.011   6.982   0.312
 8065WAT      O24436   1.468   3.586   7.281
 8065WAT     H124437   1.534   3.632   7.222
 8065WAT     H224438   1.463   3.489   7.258
 8066WAT      O24439   4.692   9.214   4.622
 8066WAT     H124440   4.751   9.282   4.667
 8066WAT     H224441   4.599   9.222   4.657
 8067WAT      O24442   8.170   7.913   6.495
 8067WAT     H124443   8.252   7.965   6.470
 8067WAT     H224444   8.122   7.885   6.412
 8068WAT      O24445   4.617   6.962   1.259
 8068WAT     H124446   4.648   6.891   1.322
 8068WAT     H224447   4.524   6.941   1.229
 8069WAT      O24448   2.351   5.953   3.380
 8069WAT     H124449   2.355   5.924   3.476
 8069WAT     H224450   2.443   5.967   3.345
 8070WAT      O24451   6.573   2.520   9.831
 8070WAT     H124452   6.474   2.525   9.848
 8070WAT     H224453   6.617   2.472   9.907
 8071WAT      O24454   9.492   3.145   9.799
 8071WAT     H124455   9.457   3.054   9.820
 8071WAT     H224456   9.573   3.163   9.855
 8072WAT      O24457   4.507   2.406   0.524
 8072WAT     H124458   4.497   2.488   0.580
 8072WAT     H224459   4.604   2.386   0.510
 8073WAT      O24460   5.891   7.290   3.255
 8073WAT     H124461   5.974   7.344   3.243
 8073WAT     H224462   5.914   7.192   3.257
 8074WAT      O24463   9.857   3.717   4.928
 8074WAT     H124464   9.785   3.648   4.937
 8074WAT     H224465   9.816   3.806   4.909
 8075WAT      O24466   2.829   9.675   1.490
 8075WAT     H124467   2.918   9.713   1.516
 8075WAT     H224468   2.825   9.664   1.391
 8076WAT      O24469   8.450   9.322   5.316
 8076WAT     H124470   8.505   9.261   5.373
 8076WAT     H224471   8.353   9.312   5.340
 8077WAT      O24472   3.712   5.173   9.700
 8077WAT     H124473   3.798   5.222   9.712
 8077WAT     H224474   3.637   5.228   9.735
 8078WAT      O24475   5.610   7.894   0.814
 8078WAT     H124476   5.645   7.973   0.863
 8078WAT     H224477   5.662   7.812   0.840
 8079WAT      O24478   7.324   7.438   5.287
 8079WAT     H124479   7.407   7.489   5.308
 8079WAT     H224480   7.305   7.443   5.189
 8080WAT      O24481   6.447   8.905   5.897
 8080WAT     H124482   6.458   8.864   5.807
 8080WAT     H224483   6.534   8.945   5.926
 8081WAT      O24484   2.674   6.410   0.625
 8081WAT     H124485   2.594   6.465   0.650
 8081WAT     H224486   2.731   6.462   0.561
 8082WAT      O24487   3.106   8.645   3.380
 8082WAT     H124488   3.156   8.589   3.446
 8082WAT     H224489   3.018   8.601   3.359
 8083WAT      O24490   9.721   1.983   4.684
 8083WAT     H124491   9.695   1.907   4.742
 8083WAT     H224492   9.648   2.000   4.618
 8084WAT      O24493   5.323   7.575   6.377
 8084WAT     H124494   5.385   7.654   6.374
 8084WAT     H224495   5.351   7.509   6.307
 8085WAT      O24496   9.277   5.918   3.954
 8085WAT     H124497   9.348   5.916   3.884
 8085WAT     H224498   9.191   5.947   3.914
 8086WAT      O24499   9.847   0.861   3.333
 8086WAT     H124500   9.767   0.901   3.377
 8086WAT     H224501   9.883   0.924   3.264
 8087WAT      O24502   9.493   8.093   5.862
 8087WAT     H124503   9.441   8.009   5.849
 8087WAT     H224504   9.438   8.171   5.831
 8088WAT      O24505   9.119   5.163   7.712
 8088WAT     H124506   9.024   5.131   7.704
 8088WAT     H224507   9.181   5.085   7.705
 8089WAT      O24508   5.475   3.771   3.392
 8089WAT     H124509   5.391   3.736   3.351
 8089WAT     H224510   5.547   3.776   3.322
 8090WAT      O24511   0.748   9.296   4.081
 8090WAT     H124512   0.822   9.309   4.148
 8090WAT     H224513   0.787   9.280   3.991
 8091WAT      O24514   0.601   6.887   1.408
 8091WAT     H124515   0.624   6.835   1.489
 8091WAT     H224516   0.502   6.901   1.404
 8092WAT      O24517   6.800   5.192   4.610
 8092WAT     H124518   6.791   5.195   4.511
 8092WAT     H224519   6.752   5.270   4.651
 8093WAT      O24520   9.648   4.907   4.592
 8093WAT     H124521   9.626   4.956   4.508
 8093WAT     H224522   9.693   4.970   4.656
 8094WAT      O24523   2.134   8.263   2.484
 8094WAT     H124524   2.156   8.360   2.487
 8094WAT     H224525   2.187   8.219   2.412
 8095WAT      O24526   7.561   0.255   5.271
 8095WAT     H124527   7.583   0.324   5.341
 8095WAT     H224528   7.584   0.291   5.181
 8096WAT      O24529   6.014   3.011   4.868
 8096WAT     H124530   6.102   3.017   4.915
 8096WAT     H224531   5.956   2.943   4.914
 8097WAT      O24532   3.818   8.761   3.367
 8097WAT     H124533   3.837   8.673   3.412
 8097WAT     H224534   3.750   8.812   3.420
 8098WAT      O24535   4.107   7.901   4.884
 8098WAT     H124536   4.094   7.807   4.853
 8098WAT     H224537   4.184   7.906   4.947
 8099WAT      O24538   6.963   6.556   1.501
 8099WAT     H124539   6.987   6.620   1.574
 8099WAT     H224540   6.914   6.605   1.429
 8100WAT      O24541   6.325   0.489   8.899
 8100WAT     H124542   6.251   0.486   8.832
 8100WAT     H224543   6.328   0.578   8.943
 8101WAT      O24544   4.695   1.031   4.809
 8101WAT     H124545   4.650   0.983   4.884
 8101WAT     H224546   4.643   1.017   4.725
 8102WAT      O24547   5.696   1.152   0.613
 8102WAT     H124548   5.693   1.091   0.692
 8102WAT     H224549   5.754   1.112   0.542
 8103WAT      O24550   4.317   6.857   1.936
 8103WAT     H124551   4.285   6.802   2.013
 8103WAT     H224552   4.241   6.876   1.874
 8104WAT      O24553   9.290   6.952   3.840
 8104WAT     H124554   9.245   6.989   3.921
 8104WAT     H224555   9.347   6.874   3.866
 8105WAT      O24556   3.243   7.995   0.258
 8105WAT     H124557   3.323   7.946   0.293
 8105WAT     H224558   3.164   7.978   0.317
 8106WAT      O24559   2.049   0.013   5.444
 8106WAT     H124560   2.090  -0.076   5.465
 8106WAT     H224561   2.001   0.008   5.357
 8107WAT      O24562   0.172   4.640   3.969
 8107WAT     H124563   0.168   4.679   4.061
 8107WAT     H224564   0.152   4.542   3.973
 8108WAT      O24565   0.886   5.690   8.795
 8108WAT     H124566   0.921   5.621   8.731
 8108WAT     H224567   0.929   5.778   8.776
 8109WAT      O24568   7.401   2.159   2.346
 8109WAT     H124569   7.446   2.143   2.259
 8109WAT     H224570   7.417   2.253   2.376
 8110WAT      O24571   3.705   2.189   4.195
 8110WAT     H124572   3.631   2.130   4.226
 8110WAT     H224573   3.678   2.235   4.110
 8111WAT      O24574   4.838   4.857   3.987
 8111WAT     H124575   4.851   4.953   3.960
 8111WAT     H224576   4.925   4.809   3.981
 8112WAT      O24577   6.781   5.280   0.643
 8112WAT     H124578   6.807   5.369   0.680
 8112WAT     H224579   6.810   5.273   0.548
 8113WAT      O24580   8.360   5.719   9.825
 8113WAT     H124581   8.455   5.703   9.851
 8113WAT     H224582   8.303   5.644   9.859
 8114WAT      O24583   5.580   7.576   9.685
 8114WAT     H124584   5.621   7.625   9.608
 8114WAT     H224585   5.480   7.586   9.682
 8115WAT      O24586   6.003   8.606   5.287
 8115WAT     H124587   5.909   8.592   5.318
 8115WAT     H224588   6.036   8.522   5.242
 8116WAT      O24589   6.825   7.771   5.445
 8116WAT     H124590   6.892   7.706   5.408
 8116WAT     H224591   6.741   7.722   5.469
 8117WAT      O24592   5.108   0.161   6.298
 8117WAT     H124593   5.114   0.184   6.201
 8117WAT     H224594   5.092   0.243   6.352
 8118WAT      O24595   5.322   9.184   5.593
 8118WAT     H124596   5.332   9.156   5.688
 8118WAT     H224597   5.248   9.132   5.550
 8119WAT      O24598   4.518   1.378   5.149
 8119WAT     H124599   4.575   1.317   5.094
 8119WAT     H224600   4.527   1.471   5.115
 8120WAT      O24601   8.939   5.031   8.323
 8120WAT     H124602   8.937   5.087   8.241
 8120WAT     H224603   8.848   5.030   8.365
 8121WAT      O24604   5.604   8.144   7.239
 8121WAT     H124605   5.697   8.120   7.267
 8121WAT     H224606   5.556   8.062   7.208
 8122WAT      O24607   1.427   7.675   0.212
 8122WAT     H124608   1.481   7.666   0.295
 8122WAT     H224609   1.484   7.653   0.133
 8123WAT      O24610   0.351   3.301   2.247
 8123WAT     H124611   0.393   3.241   2.179
 8123WAT     H224612   0.413   3.379   2.265
 8124WAT      O24613   6.321   1.106   5.123
 8124WAT     H124614   6.265   1.086   5.043
 8124WAT     H224615   6.264   1.103   5.205
 8125WAT      O24616   8.974   5.789   0.315
 8125WAT     H124617   9.028   5.861   0.271
 8125WAT     H224618   8.928   5.827   0.396
 8126WAT      O24619   4.985   3.580   6.233
 8126WAT     H124620   4.986   3.661   6.174
 8126WAT     H224621   5.067   3.581   6.291
 8127WAT      O24622   1.170   2.588   8.358
 8127WAT     H124623   1.257   2.637   8.370
 8127WAT     H224624   1.116   2.633   8.287
 8128WAT      O24625   7.786   8.121   4.935
 8128WAT     H124626   7.870   8.079   4.968
 8128WAT     H224627   7.709   8.060   4.952
 8129WAT      O24628   8.463   4.378   3.047
 8129WAT     H124629   8.475   4.281   3.026
 8129WAT     H224630   8.538   4.430   3.006
 8130WAT      O24631   4.632   5.339   4.491
 8130WAT     H124632   4.613   5.374   4.399
 8130WAT     H224633   4.636   5.239   4.487
 8131WAT      O24634   9.404   6.736   8.515
 8131WAT     H124635   9.307   6.759   8.525
 8131WAT     H224636   9.413   6.638   8.497
 8132WAT      O24637   2.836   2.848   1.517
 8132WAT     H124638   2.778   2.881   1.442
 8132WAT     H224639   2.842   2.919   1.587
 8133WAT      O24640   3.635   6.783   4.902
 8133WAT     H124641   3.669   6.699   4.944
 8133WAT     H224642   3.693   6.807   4.825
 8134WAT      O24643   8.442   0.488   1.063
 8134WAT     H124644   8.495   0.411   1.027
 8134WAT     H224645   8.505   0.555   1.104
 8135WAT      O24646   2.372   7.092   3.509
 8135WAT     H124647   2.346   7.148   3.430
 8135WAT     H224648   2.292   7.042   3.542
 8136WAT      O24649   3.566   1.689   6.860
 8136WAT     H124650   3.499   1.682   6.786
 8136WAT     H224651   3.521   1.724   6.942
 8137WAT      O24652   4.364   1.644   1.450
 8137WAT     H124653   4.385   1.667   1.355
 8137WAT     H224654   4.408   1.558   1.474
 8138WAT      O24655   5.591   1.362   9.732
 8138WAT     H124656   5.630   1.299   9.800
 8138WAT     H224657   5.626   1.339   9.641
 8139WAT      O24658   3.391   0.086   8.306
 8139WAT     H124659   3.455   0.155   8.273
 8139WAT     H224660   3.358   0.031   8.229
 8140WAT      O24661   5.536   8.950   5.073
 8140WAT     H124662   5.563   8.965   4.978
 8140WAT     H224663   5.448   8.902   5.076
 8141WAT      O24664   4.190   3.393   5.819
 8141WAT     H124665   4.249   3.382   5.899
 8141WAT     H224666   4.103   3.346   5.834
 8142WAT      O24667   4.636   3.765   2.048
 8142WAT     H124668   4.546   3.735   2.015
 8142WAT     H224669   4.628   3.798   2.142
 8143WAT      O24670   5.306   0.283   4.372
 8143WAT     H124671   5.317   0.371   4.418
 8143WAT     H224672   5.254   0.221   4.431
 8144WAT      O24673   8.456   6.127   6.352
 8144WAT     H124674   8.396   6.182   6.410
 8144WAT     H224675   8.426   6.134   6.257
 8145WAT      O24676   0.557   6.375   0.919
 8145WAT     H124677   0.465   6.358   0.954
 8145WAT     H224678   0.580   6.309   0.848
 8146WAT      O24679   3.361   1.181   1.170
 8146WAT     H124680   3.358   1.220   1.078
 8146WAT     H224681   3.387   1.085   1.164
 8147WAT      O24682   2.930   4.545   6.121
 8147WAT     H124683   3.015   4.571   6.076
 8147WAT     H224684   2.854   4.555   6.057
 8148WAT      O24685   5.475   7.266   0.358
 8148WAT     H124686   5.391   7.293   0.404
 8148WAT     H224687   5.457   7.245   0.262
 8149WAT      O24688   9.354   7.654   1.636
 8149WAT     H124689   9.265   7.670   1.594
 8149WAT     H224690   9.422   7.714   1.594
 8150WAT      O24691   1.139   1.297   7.363
 8150WAT     H124692   1.081   1.256   7.432
 8150WAT     H224693   1.115   1.394   7.352
 8151WAT      O24694   2.983   3.764   8.241
 8151WAT     H124695   3.052   3.695   8.262
 8151WAT     H224696   3.017   3.854   8.268
 8152WAT      O24697   3.274   3.272   5.997
 8152WAT     H124698   3.193   3.232   5.954
 8152WAT     H224699   3.291   3.227   6.084
 8153WAT      O24700   7.944   9.778   9.361
 8153WAT     H124701   7.970   9.688   9.395
 8153WAT     H224702   7.869   9.768   9.295
 8154WAT      O24703   7.152   1.407   7.748
 8154WAT     H124704   7.247   1.433   7.734
 8154WAT     H224705   7.141   1.309   7.733
 8155WAT      O24706   0.606   5.881   3.644
 8155WAT     H124707   0.677   5.949   3.661
 8155WAT     H224708   0.631   5.795   3.690
 8156WAT      O24709   6.495   2.295   0.395
 8156WAT     H124710   6.517   2.199   0.414
 8156WAT     H224711   6.543   2.353   0.462
 8157WAT      O24712   2.826   4.938   7.438
 8157WAT     H124713   2.919   4.949   7.472
 8157WAT     H224714   2.771   5.017   7.465
 8158WAT      O24715   0.397   4.636   5.935
 8158WAT     H124716   0.358   4.648   5.844
 8158WAT     H224717   0.446   4.720   5.962
 8159WAT      O24718   0.797   1.523   7.527
 8159WAT     H124719   0.790   1.483   7.436
 8159WAT     H224720   0.728   1.595   7.537
 8160WAT      O24721   6.445   6.522   0.033
 8160WAT     H124722   6.518   6.569  -0.017
 8160WAT     H224723   6.391   6.590   0.084
 8161WAT      O24724   6.336   2.152   7.895
 8161WAT     H124725   6.240   2.175   7.911
 8161WAT     H224726   6.372   2.209   7.820
 8162WAT      O24727   0.717   3.524   3.073
 8162WAT     H124728   0.689   3.480   2.988
 8162WAT     H224729   0.808   3.491   3.100
 8163WAT      O24730   2.031   6.718   7.340
 8163WAT     H124731   1.967   6.733   7.416
 8163WAT     H224732   2.017   6.627   7.302
 8164WAT      O24733   5.999   0.969   9.437
 8164WAT     H124734   5.963   0.943   9.527
 8164WAT     H224735   5.943   0.929   9.365
 8165WAT      O24736   8.547   9.500   0.561
 8165WAT     H124737   8.583   9.410   0.537
 8165WAT     H224738   8.621   9.567   0.560
 8166WAT      O24739   7.603   9.228   8.761
 8166WAT     H124740   7.674   9.180   8.710
 8166WAT     H224741   7.588   9.318   8.719
 8167WAT      O24742   4.459   3.763   2.557
 8167WAT     H124743   4.370   3.732   2.524
 8167WAT     H224744   4.521   3.684   2.563
 8168WAT      O24745   3.921   0.443   4.303
 8168WAT     H124746   3.974   0.493   4.371
 8168WAT     H224747   3.919   0.495   4.218
 8169WAT      O24748   4.267   6.006   1.407
 8169WAT     H124749   4.357   6.047   1.421
 8169WAT     H224750   4.214   6.014   1.491
 8170WAT      O24751   4.960   2.000   7.306
 8170WAT     H124752   5.017   1.958   7.235
 8170WAT     H224753   4.869   1.960   7.304
 8171WAT      O24754   0.050   5.784   0.963
 8171WAT     H124755  -0.007   5.845   0.908
 8171WAT     H224756   0.127   5.752   0.907
 8172WAT      O24757   7.291   4.412   6.329
 8172WAT     H124758   7.388   4.389   6.338
 8172WAT     H224759   7.274   4.500   6.375
 8173WAT      O24760   5.426   9.438   1.191
 8173WAT     H124761   5.336   9.396   1.202
 8173WAT     H224762   5.473   9.397   1.112
 8174WAT      O24763   9.537   9.457   1.806
 8174WAT     H124764   9.558   9.512   1.887
 8174WAT     H224765   9.509   9.517   1.731
 8175WAT      O24766   6.335   5.123   4.424
 8175WAT     H124767   6.277   5.204   4.432
 8175WAT     H224768   6.318   5.063   4.502
 8176WAT      O24769   4.196   6.761   2.180
 8176WAT     H124770   4.178   6.834   2.246
 8176WAT     H224771   4.140   6.681   2.203
 8177WAT      O24772   9.791   6.740   2.672
 8177WAT     H124773   9.705   6.787   2.650
 8177WAT     H224774   9.868   6.796   2.640
 8178WAT      O24775   6.215   7.105   5.944
 8178WAT     H124776   6.212   7.006   5.935
 8178WAT     H224777   6.135   7.136   5.995
 8179WAT      O24778   8.389   6.442   9.565
 8179WAT     H124779   8.430   6.355   9.593
 8179WAT     H224780   8.385   6.446   9.465
 8180WAT      O24781   4.028   6.864   4.184
 8180WAT     H124782   3.960   6.852   4.112
 8180WAT     H224783   4.094   6.788   4.182
 8181WAT      O24784   1.826   6.839   8.062
 8181WAT     H124785   1.855   6.812   8.153
 8181WAT     H224786   1.799   6.758   8.010
 8182WAT      O24787   2.755   1.980   5.006
 8182WAT     H124788   2.746   2.035   5.089
 8182WAT     H224789   2.744   2.039   4.926
 8183WAT      O24790   0.198   1.383   0.061
 8183WAT     H124791   0.215   1.468   0.111
 8183WAT     H224792   0.178   1.309   0.126
 8184WAT      O24793   3.328   5.790   1.499
 8184WAT     H124794   3.306   5.694   1.485
 8184WAT     H224795   3.245   5.840   1.523
 8185WAT      O24796   9.290   7.797   6.148
 8185WAT     H124797   9.311   7.817   6.244
 8185WAT     H224798   9.316   7.876   6.092
 8186WAT      O24799   3.952   6.302   0.294
 8186WAT     H124800   3.994   6.387   0.324
 8186WAT     H224801   3.857   6.319   0.269
 8187WAT      O24802   3.476   1.498   8.192
 8187WAT     H124803   3.529   1.446   8.259
 8187WAT     H224804   3.506   1.594   8.193
 8188WAT      O24805   1.570   7.443   9.016
 8188WAT     H124806   1.492   7.478   9.068
 8188WAT     H224807   1.655   7.471   9.061
 8189WAT      O24808   4.639   1.505   0.465
 8189WAT     H124809   4.677   1.543   0.381
 8189WAT     H224810   4.713   1.471   0.523
 8190WAT      O24811   4.820   5.143   1.070
 8190WAT     H124812   4.801   5.112   0.977
 8190WAT     H224813   4.904   5.101   1.103
 8191WAT      O24814   9.021   9.566   7.979
 8191WAT     H124815   8.974   9.579   8.067
 8191WAT     H224816   8.994   9.478   7.940
 8192WAT      O24817   4.996   3.726   7.274
 8192WAT     H124818   4.914   3.676   7.302
 8192WAT     H224819   5.000   3.814   7.321
 8193WAT      O24820   6.388   8.536   8.474
 8193WAT     H124821   6.468   8.545   8.414
 8193WAT     H224822   6.413   8.560   8.567
 8194WAT      O24823   5.351   2.398   9.266
 8194WAT     H124824   5.330   2.496   9.272
 8194WAT     H224825   5.267   2.345   9.273
 8195WAT      O24826   8.432   6.639   7.348
 8195WAT     H124827   8.420   6.624   7.446
 8195WAT     H224828   8.500   6.711   7.333
 8196WAT      O24829   5.903   0.799   7.607
 8196WAT     H124830   5.926   0.744   7.687
 8196WAT     H224831   5.981   0.856   7.581
 8197WAT      O24832   7.230   0.580   3.527
 8197WAT     H124833   7.318   0.545   3.560
 8197WAT     H224834   7.206   0.663   3.577
 8198WAT      O24835   9.637   3.728   3.263
 8198WAT     H124836   9.688   3.652   3.302
 8198WAT     H224837   9.554   3.744   3.317
 8199WAT      O24838   5.087   5.201   1.491
 8199WAT     H124839   5.157   5.130   1.484
 8199WAT     H224840   4.997   5.158   1.488
 8200WAT      O24841   6.165   6.577   9.156
 8200WAT     H124842   6.206   6.576   9.247
 8200WAT     H224843   6.236   6.584   9.087
 8201WAT      O24844   3.572   9.093   9.748
 8201WAT     H124845   3.649   9.147   9.714
 8201WAT     H224846   3.522   9.145   9.817
 8202WAT      O24847   8.339   9.580   7.396
 8202WAT     H124848   8.414   9.595   7.333
 8202WAT     H224849   8.271   9.519   7.355
 8203WAT      O24850   7.369   2.235   1.087
 8203WAT     H124851   7.394   2.273   1.176
 8203WAT     H224852   7.277   2.265   1.062
 8204WAT      O24853   5.439   5.587   0.333
 8204WAT     H124854   5.366   5.572   0.267
 8204WAT     H224855   5.515   5.635   0.290
 8205WAT      O24856   6.910   2.525   8.534
 8205WAT     H124857   6.848   2.452   8.505
 8205WAT     H224858   6.862   2.588   8.595
 8206WAT      O24859   6.672   5.309   5.468
 8206WAT     H124860   6.726   5.303   5.552
 8206WAT     H224861   6.699   5.236   5.405
 8207WAT      O24862   0.264   4.424   5.618
 8207WAT     H124863   0.256   4.520   5.645
 8207WAT     H224864   0.208   4.408   5.537
 8208WAT      O24865   6.104   4.556   9.846
 8208WAT     H124866   6.062   4.505   9.771
 8208WAT     H224867   6.204   4.545   9.842
 8209WAT      O24868   5.202   5.532   7.368
 8209WAT     H124869   5.157   5.589   7.437
 8209WAT     H224870   5.238   5.590   7.295
 8210WAT      O24871   8.492   5.813   5.402
 8210WAT     H124872   8.463   5.805   5.497
 8210WAT     H224873   8.514   5.723   5.365
 8211WAT      O24874   1.742   7.873   1.232
 8211WAT     H124875   1.816   7.842   1.171
 8211WAT     H224876   1.663   7.899   1.177
 8212WAT      O24877   8.707   2.317   3.465
 8212WAT     H124878   8.745   2.308   3.373
 8212WAT     H224879   8.659   2.405   3.473
 8213WAT      O24880   8.126   0.247   8.968
 8213WAT     H124881   8.181   0.320   9.008
 8213WAT     H224882   8.043   0.286   8.928
 8214WAT      O24883   2.185   6.228   7.258
 8214WAT     H124884   2.140   6.305   7.212
 8214WAT     H224885   2.240   6.261   7.334
 8215WAT      O24886   1.221   0.371   2.656
 8215WAT     H124887   1.136   0.319   2.666
 8215WAT     H224888   1.199   0.463   2.622
 8216WAT      O24889   3.555   6.329   8.501
 8216WAT     H124890   3.505   6.407   8.538
 8216WAT     H224891   3.520   6.244   8.542
 8217WAT      O24892   6.978   6.351   9.200
 8217WAT     H124893   6.981   6.414   9.277
 8217WAT     H224894   6.885   6.349   9.162
 8218WAT      O24895   7.439   9.321   2.041
 8218WAT     H124896   7.372   9.305   1.968
 8218WAT     H224897   7.418   9.407   2.087
 8219WAT      O24898   3.587   0.169   7.832
 8219WAT     H124899   3.667   0.174   7.771
 8219WAT     H224900   3.544   0.259   7.837
 8220WAT      O24901   7.170   0.976   6.302
 8220WAT     H124902   7.176   0.930   6.390
 8220WAT     H224903   7.075   0.996   6.280
 8221WAT      O24904   5.172   8.738   8.496
 8221WAT     H124905   5.210   8.732   8.404
 8221WAT     H224906   5.082   8.782   8.492
 8222WAT      O24907   6.416   0.486   3.413
 8222WAT     H124908   6.350   0.457   3.482
 8222WAT     H224909   6.368   0.501   3.326
 8223WAT      O24910   6.062   3.854   0.705
 8223WAT     H124911   6.101   3.776   0.655
 8223WAT     H224912   6.084   3.938   0.656
 8224WAT      O24913   0.241   7.693   3.204
 8224WAT     H124914   0.180   7.631   3.155
 8224WAT     H224915   0.329   7.648   3.219
 8225WAT      O24916   4.258   0.479   3.417
 8225WAT     H124917   4.225   0.447   3.505
 8225WAT     H224918   4.180   0.493   3.355
 8226WAT      O24919   0.192   1.480   6.867
 8226WAT     H124920   0.172   1.558   6.808
 8226WAT     H224921   0.106   1.442   6.902
 8227WAT      O24922   5.004   2.602   6.105
 8227WAT     H124923   4.950   2.525   6.137
 8227WAT     H224924   5.007   2.672   6.176
 8228WAT      O24925   6.129   2.754   2.935
 8228WAT     H124926   6.166   2.788   3.022
 8228WAT     H224927   6.035   2.788   2.924
 8229WAT      O24928   0.009   0.347   1.442
 8229WAT     H124929  -0.017   0.336   1.346
 8229WAT     H224930   0.107   0.336   1.452
 8230WAT      O24931   2.204   0.612   3.938
 8230WAT     H124932   2.242   0.702   3.962
 8230WAT     H224933   2.279   0.546   3.927
 8231WAT      O24934   8.966   1.786   0.894
 8231WAT     H124935   8.870   1.758   0.890
 8231WAT     H224936   9.010   1.744   0.972
 8232WAT      O24937   8.627   4.912   2.570
 8232WAT     H124938   8.674   4.993   2.605
 8232WAT     H224939   8.622   4.842   2.641
 8233WAT      O24940   1.791   2.076   9.451
 8233WAT     H124941   1.836   2.006   9.395
 8233WAT     H224942   1.704   2.101   9.408
 8234WAT      O24943   9.026   1.222   0.062
 8234WAT     H124944   9.085   1.301   0.044
 8234WAT     H224945   9.009   1.174  -0.024
 8235WAT      O24946   6.725   5.401   7.969
 8235WAT     H124947   6.658   5.364   7.905
 8235WAT     H224948   6.814   5.410   7.923
 8236WAT      O24949   9.289   4.308   2.423
 8236WAT     H124950   9.287   4.349   2.332
 8236WAT     H224951   9.356   4.356   2.480
 8237WAT      O24952   8.442   3.140   2.139
 8237WAT     H124953   8.370   3.134   2.069
 8237WAT     H224954   8.465   3.236   2.155
 8238WAT      O24955   0.012   2.046   9.368
 8238WAT     H124956   0.037   2.088   9.455
 8238WAT     H224957   0.073   1.969   9.350
 8239WAT      O24958   6.052   2.362   7.176
 8239WAT     H124959   6.146   2.340   7.151
 8239WAT     H224960   5.989   2.303   7.125
 8240WAT      O24961   7.694   4.446   6.783
 8240WAT     H124962   7.665   4.474   6.692
 8240WAT     H224963   7.622   4.467   6.849
 8241WAT      O24964   4.918   8.230   2.936
 8241WAT     H124965   4.906   8.147   2.990
 8241WAT     H224966   4.856   8.301   2.971
 8242WAT      O24967   6.975   2.692   2.722
 8242WAT     H124968   6.965   2.617   2.788
 8242WAT     H224969   6.887   2.709   2.678
 8243WAT      O24970   1.932   3.172   8.975
 8243WAT     H124971   1.993   3.145   8.901
 8243WAT     H224972   1.986   3.188   9.058
 8244WAT      O24973   3.161   5.659   3.019
 8244WAT     H124974   3.090   5.653   3.089
 8244WAT     H224975   3.168   5.572   2.970
 8245WAT      O24976   2.300   1.508   9.117
 8245WAT     H124977   2.285   1.573   9.192
 8245WAT     H224978   2.351   1.553   9.043
 8246WAT      O24979   6.701   4.716   8.851
 8246WAT     H124980   6.620   4.658   8.858
 8246WAT     H224981   6.703   4.779   8.928
 8247WAT      O24982   9.448   6.794   4.828
 8247WAT     H124983   9.523   6.822   4.889
 8247WAT     H224984   9.391   6.727   4.875
 8248WAT      O24985   5.482   4.533   8.675
 8248WAT     H124986   5.497   4.584   8.590
 8248WAT     H224987   5.464   4.598   8.750
 8249WAT      O24988   9.671   0.807   5.055
 8249WAT     H124989   9.652   0.905   5.043
 8249WAT     H224990   9.594   0.754   5.018
 8250WAT      O24991   6.723   3.051   1.288
 8250WAT     H124992   6.712   3.042   1.387
 8250WAT     H224993   6.643   3.013   1.241
 8251WAT      O24994   4.513   2.960   2.162
 8251WAT     H124995   4.553   2.880   2.118
 8251WAT     H224996   4.493   3.029   2.093
 8252WAT      O24997   9.550   6.822   4.359
 8252WAT     H124998   9.530   6.877   4.278
 8252WAT     H224999   9.637   6.851   4.399
 8253WAT      O25000   4.246   2.912   2.226
 8253WAT     H125001   4.343   2.892   2.218
 8253WAT     H225002   4.202   2.842   2.283
 8254WAT      O25003   3.551   0.019   1.441
 8254WAT     H125004   3.512  -0.070   1.416
 8254WAT     H225005   3.619   0.006   1.514
 8255WAT      O25006   2.608   1.947   6.737
 8255WAT     H125007   2.600   1.848   6.739
 8255WAT     H225008   2.700   1.973   6.769
 8256WAT      O25009   6.862   3.137   1.717
 8256WAT     H125010   6.909   3.218   1.750
 8256WAT     H225011   6.927   3.062   1.707
 8257WAT      O25012   7.504   3.016   7.593
 8257WAT     H125013   7.599   3.030   7.564
 8257WAT     H225014   7.497   2.930   7.643
 8258WAT      O25015   7.222   6.699   1.686
 8258WAT     H125016   7.242   6.797   1.686
 8258WAT     H225017   7.256   6.658   1.602
 8259WAT      O25018   7.138   4.997   8.209
 8259WAT     H125019   7.075   5.025   8.136
 8259WAT     H225020   7.198   5.073   8.232
 8260WAT      O25021   6.436   7.147   2.049
 8260WAT     H125022   6.443   7.205   1.968
 8260WAT     H225023   6.516   7.087   2.053
 8261WAT      O25024   2.043   2.800   6.961
 8261WAT     H125025   2.110   2.755   6.901
 8261WAT     H225026   1.983   2.858   6.905
 8262WAT      O25027   9.068   5.961   2.062
 8262WAT     H125028   9.038   5.866   2.059
 8262WAT     H225029   8.994   6.021   2.031
 8263WAT      O25030   8.324   2.598   9.719
 8263WAT     H125031   8.266   2.674   9.747
 8263WAT     H225032   8.326   2.529   9.791
 8264WAT      O25033   1.940   1.837   5.444
 8264WAT     H125034   1.863   1.801   5.390
 8264WAT     H225035   1.999   1.762   5.472
 8265WAT      O25036   2.860   1.278   9.414
 8265WAT     H125037   2.803   1.198   9.397
 8265WAT     H225038   2.901   1.308   9.328
 8266WAT      O25039   1.472   0.893   1.263
 8266WAT     H125040   1.434   0.958   1.328
 8266WAT     H225041   1.532   0.829   1.311
 8267WAT      O25042   5.982   4.481   4.582
 8267WAT     H125043   6.077   4.460   4.604
 8267WAT     H225044   5.978   4.565   4.529
 8268WAT      O25045   7.148   7.325   0.541
 8268WAT     H125046   7.124   7.313   0.445
 8268WAT     H225047   7.101   7.256   0.596
 8269WAT      O25048   7.994   7.052   2.544
 8269WAT     H125049   7.966   7.145   2.566
 8269WAT     H225050   7.967   7.030   2.450
 8270WAT      O25051   6.808   8.084   2.633
 8270WAT     H125052   6.888   8.078   2.693
 8270WAT     H225053   6.793   8.179   2.608
 8271WAT      O25054   8.776   5.963   6.174
 8271WAT     H125055   8.768   5.957   6.075
 8271WAT     H225056   8.733   6.048   6.206
 8272WAT      O25057   7.908   3.903   7.444
 8272WAT     H125058   7.958   3.972   7.392
 8272WAT     H225059   7.907   3.817   7.394
 8273WAT      O25060   4.158   6.464   5.230
 8273WAT     H125061   4.169   6.563   5.236
 8273WAT     H225062   4.078   6.443   5.174
 8274WAT      O25063   0.298   8.457   1.208
 8274WAT     H125064   0.306   8.529   1.277
 8274WAT     H225065   0.231   8.485   1.139
 8275WAT      O25066   9.618   0.368   1.212
 8275WAT     H125067   9.707   0.390   1.172
 8275WAT     H225068   9.582   0.285   1.170
 8276WAT      O25069   7.210   6.254   9.789
 8276WAT     H125070   7.158   6.288   9.867
 8276WAT     H225071   7.153   6.256   9.707
 8277WAT      O25072   4.252   0.155   1.703
 8277WAT     H125073   4.172   0.151   1.644
 8277WAT     H225074   4.333   0.128   1.651
 8278WAT      O25075   3.838   7.246   9.127
 8278WAT     H125076   3.771   7.238   9.053
 8278WAT     H225077   3.929   7.259   9.088
 8279WAT      O25078   0.703   3.154   3.415
 8279WAT     H125079   0.672   3.249   3.418
 8279WAT     H225080   0.638   3.100   3.360
 8280WAT      O25081   6.764   3.204   0.637
 8280WAT     H125082   6.810   3.127   0.594
 8280WAT     H225083   6.673   3.216   0.596
 8281WAT      O25084   1.333   6.877   9.287
 8281WAT     H125085   1.263   6.941   9.256
 8281WAT     H225086   1.337   6.800   9.223
 8282WAT      O25087   7.554   1.255   3.149
 8282WAT     H125088   7.512   1.219   3.233
 8282WAT     H225089   7.591   1.346   3.167
 8283WAT      O25090   5.436   0.072   1.773
 8283WAT     H125091   5.473   0.025   1.853
 8283WAT     H225092   5.365   0.137   1.803
 8284WAT      O25093   5.877   6.703   5.370
 8284WAT     H125094   5.879   6.675   5.466
 8284WAT     H225095   5.794   6.756   5.353
 8285WAT      O25096   9.804   7.192   1.905
 8285WAT     H125097   9.784   7.150   1.816
 8285WAT     H225098   9.892   7.159   1.938
 8286WAT      O25099   6.836   3.916   0.444
 8286WAT     H125100   6.898   3.894   0.369
 8286WAT     H225101   6.879   3.984   0.504
 8287WAT      O25102   4.138   6.289   1.276
 8287WAT     H125103   4.153   6.195   1.308
 8287WAT     H225104   4.067   6.289   1.206
 8288WAT      O25105   1.714   3.083   4.213
 8288WAT     H125106   1.669   3.064   4.301
 8288WAT     H225107   1.810   3.106   4.229
 8289WAT      O25108   0.474   1.693   1.143
 8289WAT     H125109   0.464   1.702   1.044
 8289WAT     H225110   0.392   1.725   1.189
 8290WAT      O25111   1.024   3.711   3.200
 8290WAT     H125112   1.101   3.694   3.261
 8290WAT     H225113   0.983   3.623   3.173
 8291WAT      O25114   2.089   1.306   9.108
 8291WAT     H125115   2.039   1.299   9.194
 8291WAT     H225116   2.159   1.377   9.115
 8292WAT      O25117   3.440   5.505   4.486
 8292WAT     H125118   3.430   5.565   4.407
 8292WAT     H225119   3.476   5.557   4.564
 8293WAT      O25120   9.466   4.156   8.170
 8293WAT     H125121   9.391   4.182   8.109
 8293WAT     H225122   9.484   4.058   8.160
 8294WAT      O25123   6.087   4.171   4.495
 8294WAT     H125124   6.106   4.074   4.508
 8294WAT     H225125   6.160   4.225   4.536
 8295WAT      O25126   6.751   1.315   1.004
 8295WAT     H125127   6.666   1.353   0.968
 8295WAT     H225128   6.784   1.372   1.079
 8296WAT      O25129   1.948   2.118   0.417
 8296WAT     H125130   1.992   2.158   0.336
 8296WAT     H225131   2.018   2.096   0.485
 8297WAT      O25132   6.476   3.178   8.059
 8297WAT     H125133   6.390   3.150   8.016
 8297WAT     H225134   6.457   3.236   8.138
 8298WAT      O25135   5.485   6.514   9.133
 8298WAT     H125136   5.511   6.418   9.134
 8298WAT     H225137   5.386   6.522   9.134
 8299WAT      O25138   5.441   6.056   1.272
 8299WAT     H125139   5.369   6.071   1.339
 8299WAT     H225140   5.458   5.958   1.263
 8300WAT      O25141   3.770   3.182   6.903
 8300WAT     H125142   3.770   3.087   6.870
 8300WAT     H225143   3.734   3.184   6.996
 8301WAT      O25144   0.083   0.769   6.144
 8301WAT     H125145   0.157   0.752   6.079
 8301WAT     H225146   0.023   0.841   6.109
 8302WAT      O25147   4.516   9.266   8.464
 8302WAT     H125148   4.423   9.233   8.481
 8302WAT     H225149   4.515   9.333   8.390
 8303WAT      O25150   3.695   7.139   6.088
 8303WAT     H125151   3.691   7.239   6.086
 8303WAT     H225152   3.669   7.107   6.179
 8304WAT      O25153   4.586   4.776   3.147
 8304WAT     H125154   4.662   4.759   3.084
 8304WAT     H225155   4.612   4.847   3.212
 8305WAT      O25156   6.237   7.158   3.267
 8305WAT     H125157   6.270   7.220   3.195
 8305WAT     H225158   6.180   7.087   3.226
 8306WAT      O25159   9.820   9.616   7.712
 8306WAT     H125160   9.858   9.692   7.765
 8306WAT     H225161   9.859   9.530   7.744
 8307WAT      O25162   5.789   9.241   6.145
 8307WAT     H125163   5.778   9.244   6.244
 8307WAT     H225164   5.883   9.215   6.122
 8308WAT      O25165   8.345   1.906   6.616
 8308WAT     H125166   8.295   1.941   6.695
 8308WAT     H225167   8.331   1.808   6.608
 8309WAT      O25168   5.282   8.563   4.128
 8309WAT     H125169   5.210   8.600   4.187
 8309WAT     H225170   5.252   8.568   4.032
 8310WAT      O25171   4.112   4.128   3.008
 8310WAT     H125172   4.012   4.137   3.015
 8310WAT     H225173   4.136   4.112   2.912
 8311WAT      O25174   1.014   8.910   7.887
 8311WAT     H125175   1.091   8.972   7.867
 8311WAT     H225176   0.948   8.957   7.946
 8312WAT      O25177   1.036   9.540   5.561
 8312WAT     H125178   0.960   9.504   5.615
 8312WAT     H225179   1.059   9.632   5.592
 8313WAT      O25180   1.493   8.758   2.167
 8313WAT     H125181   1.400   8.724   2.157
 8313WAT     H225182   1.557   8.690   2.131
 8314WAT      O25183   4.137   4.954   6.030
 8314WAT     H125184   4.065   4.904   6.078
 8314WAT     H225185   4.136   4.929   5.933
 8315WAT      O25186   7.893   7.742   3.499
 8315WAT     H125187   7.847   7.803   3.435
 8315WAT     H225188   7.991   7.759   3.497
 8316WAT      O25189   2.866   9.393   2.871
 8316WAT     H125190   2.776   9.349   2.876
 8316WAT     H225191   2.931   9.341   2.926
 8317WAT      O25192   2.691   7.826   6.190
 8317WAT     H125193   2.753   7.894   6.229
 8317WAT     H225194   2.644   7.866   6.111
 8318WAT      O25195   9.198   3.278   8.294
 8318WAT     H125196   9.151   3.325   8.220
 8318WAT     H225197   9.190   3.179   8.282
 8319WAT      O25198   9.389   7.803   6.403
 8319WAT     H125199   9.475   7.837   6.364
 8319WAT     H225200   9.409   7.744   6.481
 8320WAT      O25201   1.914   1.259   1.053
 8320WAT     H125202   1.898   1.238   0.957
 8320WAT     H225203   1.910   1.358   1.067
 8321WAT      O25204   5.545   3.287   1.237
 8321WAT     H125205   5.643   3.307   1.246
 8321WAT     H225206   5.526   3.255   1.144
 8322WAT      O25207   4.612   8.872   7.562
 8322WAT     H125208   4.578   8.966   7.557
 8322WAT     H225209   4.709   8.873   7.584
 8323WAT      O25210   4.261   2.046   3.431
 8323WAT     H125211   4.268   1.956   3.387
 8323WAT     H225212   4.246   2.034   3.529
 8324WAT      O25213   3.607   3.257   4.486
 8324WAT     H125214   3.696   3.269   4.443
 8324WAT     H225215   3.599   3.319   4.565
 8325WAT      O25216   9.298   4.201   7.360
 8325WAT     H125217   9.298   4.215   7.261
 8325WAT     H225218   9.214   4.153   7.386
 8326WAT      O25219   7.803   5.150   6.645
 8326WAT     H125220   7.819   5.149   6.546
 8326WAT     H225221   7.706   5.135   6.664
 8327WAT      O25222   9.343   7.997   0.045
 8327WAT     H125223   9.326   7.987   0.143
 8327WAT     H225224   9.435   7.962   0.024
 8328WAT      O25225   1.388   3.426   5.752
 8328WAT     H125226   1.330   3.346   5.738
 8328WAT     H225227   1.353   3.502   5.697
 8329WAT      O25228   3.861   8.383   5.330
 8329WAT     H125229   3.932   8.327   5.373
 8329WAT     H225230   3.889   8.479   5.329
 8330WAT      O25231   1.381   6.660   9.113
 8330WAT     H125232   1.390   6.574   9.164
 8330WAT     H225233   1.466   6.677   9.063
 8331WAT      O25234   1.321   9.109   7.454
 8331WAT     H125235   1.223   9.102   7.439
 8331WAT     H225236   1.339   9.138   7.548
 8332WAT      O25237   1.116   8.652   3.214
 8332WAT     H125238   1.174   8.703   3.278
 8332WAT     H225239   1.076   8.574   3.261
 8333WAT      O25240   2.854   9.366   4.107
 8333WAT     H125241   2.754   9.355   4.109
 8333WAT     H225242   2.897   9.275   4.109
 8334WAT      O25243   0.553   9.683   6.190
 8334WAT     H125244   0.606   9.704   6.108
 8334WAT     H225245   0.556   9.585   6.209
 8335WAT      O25246   6.463   8.550   9.161
 8335WAT     H125247   6.509   8.465   9.187
 8335WAT     H225248   6.442   8.603   9.243
 8336WAT      O25249   9.864   9.146   0.613
 8336WAT     H125250   9.802   9.116   0.540
 8336WAT     H225251   9.811   9.166   0.695
 8337WAT      O25252   0.140   5.392   3.646
 8337WAT     H125253   0.220   5.437   3.686
 8337WAT     H225254   0.147   5.393   3.546
 8338WAT      O25255   2.673   1.824   4.597
 8338WAT     H125256   2.646   1.868   4.511
 8338WAT     H225257   2.613   1.856   4.671
 8339WAT      O25258   1.775   7.060   7.589
 8339WAT     H125259   1.777   7.108   7.502
 8339WAT     H225260   1.838   7.103   7.653
 8340WAT      O25261   1.225   7.122   2.353
 8340WAT     H125262   1.311   7.173   2.345
 8340WAT     H225263   1.223   7.074   2.441
 8341WAT      O25264   6.469   2.838   0.542
 8341WAT     H125265   6.446   2.759   0.598
 8341WAT     H225266   6.567   2.837   0.521
 8342WAT      O25267   2.325   3.111   5.483
 8342WAT     H125268   2.287   3.030   5.527
 8342WAT     H225269   2.265   3.140   5.408
 8343WAT      O25270   1.842   6.982   2.380
 8343WAT     H125271   1.927   6.949   2.422
 8343WAT     H225272   1.779   7.010   2.452
 8344WAT      O25273   3.053   7.394   4.360
 8344WAT     H125274   3.111   7.318   4.329
 8344WAT     H225275   3.022   7.376   4.453
 8345WAT      O25276   8.072   4.475   0.012
 8345WAT     H125277   8.020   4.480  -0.074
 8345WAT     H225278   8.089   4.568   0.046
 8346WAT      O25279   8.635   5.631   4.644
 8346WAT     H125280   8.549   5.590   4.673
 8346WAT     H225281   8.619   5.725   4.612
 8347WAT      O25282   5.484   8.296   3.779
 8347WAT     H125283   5.522   8.256   3.696
 8347WAT     H225284   5.401   8.348   3.757
 8348WAT      O25285   2.423   0.152   6.487
 8348WAT     H125286   2.483   0.165   6.566
 8348WAT     H225287   2.409   0.054   6.472
 8349WAT      O25288   7.367   0.878   3.853
 8349WAT     H125289   7.441   0.838   3.908
 8349WAT     H225290   7.299   0.919   3.913
 8350WAT      O25291   8.315   5.630   3.849
 8350WAT     H125292   8.381   5.563   3.881
 8350WAT     H225293   8.321   5.638   3.749
 8351WAT      O25294   1.373   5.085   6.801
 8351WAT     H125295   1.278   5.072   6.828
 8351WAT     H225296   1.404   5.175   6.833
 8352WAT      O25297   3.454   4.696   3.395
 8352WAT     H125298   3.425   4.629   3.327
 8352WAT     H225299   3.548   4.724   3.377
 8353WAT      O25300   5.298   3.830   2.800
 8353WAT     H125301   5.215   3.777   2.815
 8353WAT     H225302   5.362   3.776   2.745
 8354WAT      O25303   2.512   8.429   5.559
 8354WAT     H125304   2.437   8.422   5.624
 8354WAT     H225305   2.554   8.520   5.565
 8355WAT      O25306   7.383   8.117   2.109
 8355WAT     H125307   7.477   8.130   2.080
 8355WAT     H225308   7.334   8.204   2.105
 8356WAT      O25309   4.491   4.844   2.109
 8356WAT     H125310   4.523   4.860   2.016
 8356WAT     H225311   4.398   4.807   2.106
 8357WAT      O25312   9.036   8.303   8.887
 8357WAT     H125313   9.024   8.340   8.979
 8357WAT     H225314   8.962   8.239   8.867
 8358WAT      O25315   3.212   0.933   5.092
 8358WAT     H125316   3.140   0.998   5.067
 8358WAT     H225317   3.281   0.930   5.020
 8359WAT      O25318   3.746   4.063   2.179
 8359WAT     H125319   3.741   4.100   2.087
 8359WAT     H225320   3.772   4.136   2.243
 8360WAT      O25321   1.500   8.712   5.481
 8360WAT     H125322   1.593   8.720   5.518
 8360WAT     H225323   1.493   8.763   5.396
 8361WAT      O25324   8.237   8.659   5.920
 8361WAT     H125325   8.147   8.703   5.918
 8361WAT     H225326   8.239   8.591   5.994
 8362WAT      O25327   4.094   2.872   1.757
 8362WAT     H125328   4.046   2.933   1.694
 8362WAT     H225329   4.193   2.882   1.743
 8363WAT      O25330   5.980   9.651   3.389
 8363WAT     H125331   5.905   9.717   3.393
 8363WAT     H225332   6.052   9.679   3.452
 8364WAT      O25333   1.129   8.245   2.731
 8364WAT     H125334   1.100   8.333   2.768
 8364WAT     H225335   1.062   8.174   2.754
 8365WAT      O25336   6.009   7.979   5.231
 8365WAT     H125337   6.053   8.051   5.283
 8365WAT     H225338   6.032   7.890   5.270
 8366WAT      O25339   0.653   7.563   9.245
 8366WAT     H125340   0.602   7.483   9.278
 8366WAT     H225341   0.617   7.590   9.155
 8367WAT      O25342   2.466   1.834   8.844
 8367WAT     H125343   2.388   1.773   8.858
 8367WAT     H225344   2.436   1.929   8.855
 8368WAT      O25345   7.289   4.177   5.604
 8368WAT     H125346   7.310   4.089   5.647
 8368WAT     H225347   7.232   4.232   5.665
 8369WAT      O25348   4.028   3.739   0.810
 8369WAT     H125349   4.112   3.791   0.825
 8369WAT     H225350   3.961   3.796   0.762
 8370WAT      O25351   8.361   3.940   9.440
 8370WAT     H125352   8.403   3.974   9.524
 8370WAT     H225353   8.290   4.003   9.409
 8371WAT      O25354   8.862   2.585   9.831
 8371WAT     H125355   8.764   2.602   9.821
 8371WAT     H225356   8.910   2.672   9.845
 8372WAT      O25357   4.690   3.220   9.731
 8372WAT     H125358   4.741   3.264   9.657
 8372WAT     H225359   4.696   3.276   9.814
 8373WAT      O25360   6.435   5.773   8.731
 8373WAT     H125361   6.440   5.751   8.828
 8373WAT     H225362   6.511   5.731   8.683
 8374WAT      O25363   1.792   1.919   2.362
 8374WAT     H125364   1.696   1.912   2.389
 8374WAT     H225365   1.847   1.857   2.418
 8375WAT      O25366   8.594   4.332   1.850
 8375WAT     H125367   8.515   4.392   1.836
 8375WAT     H225368   8.664   4.353   1.782
 8376WAT      O25369   1.955   6.361   4.941
 8376WAT     H125370   1.996   6.324   4.857
 8376WAT     H225371   2.006   6.443   4.969
 8377WAT      O25372   6.284   8.501   4.694
 8377WAT     H125373   6.319   8.594   4.692
 8377WAT     H225374   6.337   8.444   4.630
 8378WAT      O25375   2.723   5.230   5.400
 8378WAT     H125376   2.760   5.138   5.414
 8378WAT     H225377   2.670   5.232   5.315
 8379WAT      O25378   5.946   7.097   2.519
 8379WAT     H125379   5.910   7.023   2.576
 8379WAT     H225380   5.989   7.059   2.438
 8380WAT      O25381   7.659   9.167   0.688
 8380WAT     H125382   7.650   9.104   0.765
 8380WAT     H225383   7.741   9.145   0.636
 8381WAT      O25384   3.911   3.951   9.699
 8381WAT     H125385   3.813   3.950   9.719
 8381WAT     H225386   3.938   4.043   9.671
 8382WAT      O25387   9.039   5.872   2.999
 8382WAT     H125388   9.054   5.903   3.093
 8382WAT     H225389   9.056   5.947   2.936
 8383WAT      O25390   7.361   1.027   5.833
 8383WAT     H125391   7.437   1.030   5.768
 8383WAT     H225392   7.362   0.940   5.882
 8384WAT      O25393   6.739   4.000   3.288
 8384WAT     H125394   6.806   3.949   3.234
 8384WAT     H225395   6.776   4.090   3.311
 8385WAT      O25396   4.589   1.233   2.172
 8385WAT     H125397   4.540   1.287   2.104
 8385WAT     H225398   4.685   1.261   2.174
 8386WAT      O25399   5.591   3.201   5.321
 8386WAT     H125400   5.573   3.188   5.224
 8386WAT     H225401   5.674   3.256   5.333
 8387WAT      O25402   6.221   9.794   7.814
 8387WAT     H125403   6.161   9.838   7.747
 8387WAT     H225404   6.285   9.734   7.767
 8388WAT      O25405   3.948   1.245   0.437
 8388WAT     H125406   3.995   1.228   0.525
 8388WAT     H225407   4.014   1.280   0.371
 8389WAT      O25408   7.142   3.442   4.513
 8389WAT     H125409   7.044   3.463   4.510
 8389WAT     H225410   7.171   3.427   4.607
 8390WAT      O25411   6.062   2.017   2.355
 8390WAT     H125412   6.124   1.955   2.308
 8390WAT     H225413   6.106   2.051   2.439
 8391WAT      O25414   3.486   0.331   0.955
 8391WAT     H125415   3.448   0.419   0.984
 8391WAT     H225416   3.423   0.258   0.979
 8392WAT      O25417   0.885   1.183   7.058
 8392WAT     H125418   0.848   1.146   6.973
 8392WAT     H225419   0.810   1.220   7.113
 8393WAT      O25420   2.591   7.438   7.586
 8393WAT     H125421   2.553   7.346   7.574
 8393WAT     H225422   2.644   7.441   7.671
 8394WAT      O25423   2.965   4.805   1.559
 8394WAT     H125424   2.996   4.714   1.587
 8394WAT     H225425   2.932   4.855   1.640
 8395WAT      O25426   0.885   7.112   9.076
 8395WAT     H125427   0.878   7.049   8.998
 8395WAT     H225428   0.873   7.206   9.043
 8396WAT      O25429   4.582   3.002   6.079
 8396WAT     H125430   4.491   3.020   6.115
 8396WAT     H225431   4.633   2.943   6.143
 8397WAT      O25432   5.347   0.416   8.356
 8397WAT     H125433   5.340   0.516   8.352
 8397WAT     H225434   5.339   0.378   8.264
 8398WAT      O25435   6.149   3.679   7.885
 8398WAT     H125436   6.100   3.709   7.967
 8398WAT     H225437   6.183   3.758   7.834
 8399WAT      O25438   8.206   9.610   4.621
 8399WAT     H125439   8.162   9.617   4.711
 8399WAT     H225440   8.153   9.548   4.563
 8400WAT      O25441   7.600   8.731   7.960
 8400WAT     H125442   7.571   8.746   7.866
 8400WAT     H225443   7.681   8.672   7.961
 8401WAT      O25444   2.108   4.142   2.775
 8401WAT     H125445   2.146   4.222   2.822
 8401WAT     H225446   2.010   4.135   2.793
 8402WAT      O25447   2.855   3.362   4.320
 8402WAT     H125448   2.854   3.276   4.370
 8402WAT     H225449   2.811   3.350   4.231
 8403WAT      O25450   7.552   7.836   5.254
 8403WAT     H125451   7.530   7.739   5.257
 8403WAT     H225452   7.648   7.847   5.228
 8404WAT      O25453   6.677   1.957   0.969
 8404WAT     H125454   6.676   1.956   0.869
 8404WAT     H225455   6.678   2.052   1.001
 8405WAT      O25456   1.509   7.737   3.022
 8405WAT     H125457   1.497   7.828   2.984
 8405WAT     H225458   1.563   7.681   2.959
 8406WAT      O25459   7.240   5.433   1.061
 8406WAT     H125460   7.208   5.395   0.974
 8406WAT     H225461   7.323   5.486   1.046
 8407WAT      O25462   8.259   4.945   0.636
 8407WAT     H125463   8.197   4.867   0.644
 8407WAT     H225464   8.280   4.980   0.727
 8408WAT      O25465   2.854   6.135   3.563
 8408WAT     H125466   2.834   6.041   3.538
 8408WAT     H225467   2.873   6.189   3.480
 8409WAT      O25468   1.764   5.182   2.631
 8409WAT     H125469   1.853   5.141   2.652
 8409WAT     H225470   1.698   5.156   2.701
 8410WAT      O25471   8.423   0.726   5.858
 8410WAT     H125472   8.510   0.763   5.827
 8410WAT     H225473   8.349   0.790   5.833
 8411WAT      O25474   1.065   7.541   8.316
 8411WAT     H125475   1.089   7.633   8.345
 8411WAT     H225476   1.029   7.490   8.395
 8412WAT      O25477   8.990   3.482   1.038
 8412WAT     H125478   9.050   3.402   1.049
 8412WAT     H225479   8.918   3.480   1.107
 8413WAT      O25480   2.555   6.352   5.760
 8413WAT     H125481   2.459   6.357   5.731
 8413WAT     H225482   2.606   6.297   5.694
 8414WAT      O25483   6.563   8.984   0.778
 8414WAT     H125484   6.488   9.046   0.804
 8414WAT     H225485   6.525   8.903   0.734
 8415WAT      O25486   0.715   3.814   8.125
 8415WAT     H125487   0.698   3.716   8.138
 8415WAT     H225488   0.723   3.859   8.214
 8416WAT      O25489   4.886   5.886   8.869
 8416WAT     H125490   4.883   5.786   8.872
 8416WAT     H225491   4.979   5.917   8.851
 8417WAT      O25492   7.884   3.691   7.650
 8417WAT     H125493   7.874   3.764   7.583
 8417WAT     H225494   7.919   3.608   7.605
 8418WAT      O25495   1.488   6.093   4.701
 8418WAT     H125496   1.433   6.092   4.785
 8418WAT     H225497   1.583   6.068   4.723
 8419WAT      O25498   9.551   5.713   2.847
 8419WAT     H125499   9.471   5.713   2.786
 8419WAT     H225500   9.547   5.634   2.907
 8420WAT      O25501   0.093   1.747   1.440
 8420WAT     H125502   0.006   1.759   1.392
 8420WAT     H225503   0.104   1.820   1.508
 8421WAT      O25504   7.987   4.576   3.061
 8421WAT     H125505   7.981   4.614   3.153
 8421WAT     H225506   7.951   4.641   2.995
 8422WAT      O25507   8.123   5.146   3.961
 8422WAT     H125508   8.177   5.064   3.943
 8422WAT     H225509   8.028   5.130   3.935
 8423WAT      O25510   0.100   3.232   9.387
 8423WAT     H125511   0.125   3.138   9.365
 8423WAT     H225512   0.007   3.235   9.423
 8424WAT      O25513   0.613   8.250   8.078
 8424WAT     H125514   0.688   8.276   8.138
 8424WAT     H225515   0.613   8.150   8.065
 8425WAT      O25516   9.616   3.650   7.282
 8425WAT     H125517   9.630   3.705   7.365
 8425WAT     H225518   9.539   3.686   7.230
 8426WAT      O25519   0.300   2.396   0.962
 8426WAT     H125520   0.381   2.393   0.904
 8426WAT     H225521   0.326   2.380   1.057
 8427WAT      O25522   3.886   1.608   9.259
 8427WAT     H125523   3.838   1.551   9.192
 8427WAT     H225524   3.896   1.701   9.224
 8428WAT      O25525   7.073   1.641   6.279
 8428WAT     H125526   7.116   1.551   6.268
 8428WAT     H225527   7.110   1.704   6.211
 8429WAT      O25528   1.627   3.037   4.469
 8429WAT     H125529   1.630   2.957   4.529
 8429WAT     H225530   1.608   3.119   4.524
 8430WAT      O25531   9.374   6.962   6.999
 8430WAT     H125532   9.350   6.880   7.052
 8430WAT     H225533   9.457   7.004   7.036
 8431WAT      O25534   8.687   1.821   3.844
 8431WAT     H125535   8.675   1.791   3.939
 8431WAT     H225536   8.608   1.875   3.816
 8432WAT      O25537   9.477   1.754   1.200
 8432WAT     H125538   9.494   1.776   1.296
 8432WAT     H225539   9.512   1.663   1.180
 8433WAT      O25540   7.057   8.558   3.537
 8433WAT     H125541   6.981   8.622   3.528
 8433WAT     H225542   7.024   8.465   3.527
 8434WAT      O25543   3.866   2.922   8.381
 8434WAT     H125544   3.804   2.848   8.406
 8434WAT     H225545   3.923   2.946   8.460
 8435WAT      O25546   7.384   8.335   8.336
 8435WAT     H125547   7.410   8.422   8.297
 8435WAT     H225548   7.284   8.325   8.332
 8436WAT      O25549   2.659   5.006   1.380
 8436WAT     H125550   2.590   4.986   1.450
 8436WAT     H225551   2.724   4.931   1.375
 8437WAT      O25552   2.267   8.460   7.837
 8437WAT     H125553   2.242   8.396   7.765
 8437WAT     H225554   2.342   8.421   7.892
 8438WAT      O25555   4.542   6.506   3.818
 8438WAT     H125556   4.574   6.589   3.863
 8438WAT     H225557   4.479   6.457   3.879
 8439WAT      O25558   1.393   6.818   2.689
 8439WAT     H125559   1.481   6.775   2.667
 8439WAT     H225560   1.327   6.747   2.713
 8440WAT      O25561   6.962   7.250   1.361
 8440WAT     H125562   7.022   7.295   1.427
 8440WAT     H225563   6.909   7.179   1.407
 8441WAT      O25564   1.882   9.710   8.024
 8441WAT     H125565   1.975   9.717   8.060
 8441WAT     H225566   1.863   9.790   7.967
 8442WAT      O25567   7.309   5.194   2.184
 8442WAT     H125568   7.401   5.233   2.185
 8442WAT     H225569   7.242   5.268   2.186
 8443WAT      O25570   5.249   6.004   3.383
 8443WAT     H125571   5.227   6.055   3.466
 8443WAT     H225572   5.345   6.021   3.358
 8444WAT      O25573   0.634   6.752   3.345
 8444WAT     H125574   0.563   6.724   3.280
 8444WAT     H225575   0.669   6.842   3.319
 8445WAT      O25576   5.078   9.149   8.435
 8445WAT     H125577   5.150   9.175   8.370
 8445WAT     H225578   5.104   9.179   8.527
 8446WAT      O25579   7.143   9.614   0.086
 8446WAT     H125580   7.074   9.632   0.156
 8446WAT     H225581   7.212   9.551   0.122
 8447WAT      O25582   3.806   8.730   0.423
 8447WAT     H125583   3.882   8.671   0.451
 8447WAT     H225584   3.720   8.687   0.450
 8448WAT      O25585   9.610   4.991   7.372
 8448WAT     H125586   9.532   5.053   7.369
 8448WAT     H225587   9.621   4.946   7.283
 8449WAT      O25588   0.467   7.144   1.512
 8449WAT     H125589   0.514   7.079   1.572
 8449WAT     H225590   0.410   7.205   1.567
 8450WAT      O25591   2.453   5.610   3.092
 8450WAT     H125592   2.414   5.703   3.095
 8450WAT     H225593   2.423   5.565   3.008
 8451WAT      O25594   0.340   9.814   9.042
 8451WAT     H125595   0.357   9.871   9.123
 8451WAT     H225596   0.420   9.819   8.982
 8452WAT      O25597   4.480   7.444   2.269
 8452WAT     H125598   4.514   7.384   2.196
 8452WAT     H225599   4.540   7.436   2.349
 8453WAT      O25600   0.851   0.167   0.403
 8453WAT     H125601   0.914   0.090   0.412
 8453WAT     H225602   0.793   0.172   0.484
 8454WAT      O25603   1.151   2.211   5.325
 8454WAT     H125604   1.206   2.293   5.308
 8454WAT     H225605   1.199   2.150   5.388
 8455WAT      O25606   2.126   0.502   3.047
 8455WAT     H125607   2.209   0.462   3.006
 8455WAT     H225608   2.067   0.537   2.975
 8456WAT      O25609   9.735   4.958   1.217
 8456WAT     H125610   9.644   4.977   1.181
 8456WAT     H225611   9.736   4.975   1.316
 8457WAT      O25612   4.292   8.283   9.465
 8457WAT     H125613   4.299   8.318   9.558
 8457WAT     H225614   4.201   8.244   9.450
 8458WAT      O25615   6.029   7.297   6.090
 8458WAT     H125616   6.107   7.338   6.042
 8458WAT     H225617   5.944   7.325   6.045
 8459WAT      O25618   2.686   2.209   3.949
 8459WAT     H125619   2.670   2.164   3.860
 8459WAT     H225620   2.617   2.279   3.963
 8460WAT      O25621   9.109   5.887   6.752
 8460WAT     H125622   9.181   5.885   6.822
 8460WAT     H225623   9.079   5.982   6.738
 8461WAT      O25624   2.769   2.942   0.832
 8461WAT     H125625   2.723   2.943   0.743
 8461WAT     H225626   2.866   2.926   0.820
 8462WAT      O25627   5.387   6.969   1.011
 8462WAT     H125628   5.291   6.942   1.021
 8462WAT     H225629   5.438   6.942   1.093
 8463WAT      O25630   9.092   1.435   0.433
 8463WAT     H125631   9.108   1.399   0.525
 8463WAT     H225632   9.047   1.365   0.377
 8464WAT      O25633   4.716   7.806   1.713
 8464WAT     H125634   4.631   7.781   1.759
 8464WAT     H225635   4.790   7.746   1.744
 8465WAT      O25636   2.111   3.369   0.533
 8465WAT     H125637   2.134   3.286   0.584
 8465WAT     H225638   2.189   3.432   0.535
 8466WAT      O25639   8.253   1.842   7.176
 8466WAT     H125640   8.179   1.775   7.165
 8466WAT     H225641   8.294   1.861   7.087
 8467WAT      O25642   8.425   5.479   1.391
 8467WAT     H125643   8.347   5.467   1.329
 8467WAT     H225644   8.392   5.489   1.485
 8468WAT      O25645   8.086   6.567   5.894
 8468WAT     H125646   8.089   6.657   5.936
 8468WAT     H225647   8.008   6.562   5.831
 8469WAT      O25648   4.029   5.557   6.634
 8469WAT     H125649   4.108   5.581   6.578
 8469WAT     H225650   3.989   5.472   6.601
 8470WAT      O25651   6.624   5.325   6.910
 8470WAT     H125652   6.588   5.329   6.817
 8470WAT     H225653   6.548   5.313   6.974
 8471WAT      O25654   9.316   1.091   8.508
 8471WAT     H125655   9.370   1.089   8.592
 8471WAT     H225656   9.219   1.085   8.530
 8472WAT      O25657   1.280   6.296   2.213
 8472WAT     H125658   1.249   6.274   2.121
 8472WAT     H225659   1.363   6.350   2.208
 8473WAT      O25660   6.778   1.601   4.013
 8473WAT     H125661   6.872   1.611   3.979
 8473WAT     H225662   6.763   1.668   4.087
 8474WAT      O25663   7.841   6.716   1.452
 8474WAT     H125664   7.858   6.784   1.524
 8474WAT     H225665   7.859   6.757   1.363
 8475WAT      O25666   8.807   5.491   3.168
 8475WAT     H125667   8.749   5.572   3.177
 8475WAT     H225668   8.816   5.467   3.072
 8476WAT      O25669   4.288   2.451   4.798
 8476WAT     H125670   4.338   2.406   4.872
 8476WAT     H225671   4.191   2.429   4.805
 8477WAT      O25672   1.307   5.960   6.741
 8477WAT     H125673   1.365   5.879   6.752
 8477WAT     H225674   1.211   5.933   6.751
 8478WAT      O25675   2.850   1.531   0.793
 8478WAT     H125676   2.773   1.595   0.790
 8478WAT     H225677   2.870   1.499   0.700
 8479WAT      O25678   4.037   5.119   7.733
 8479WAT     H125679   3.949   5.163   7.752
 8479WAT     H225680   4.021   5.036   7.681
 8480WAT      O25681   1.047   8.651   2.551
 8480WAT     H125682   1.024   8.669   2.646
 8480WAT     H225683   1.146   8.661   2.538
 8481WAT      O25684   5.578   3.777   8.853
 8481WAT     H125685   5.545   3.776   8.759
 8481WAT     H225686   5.525   3.843   8.906
 8482WAT      O25687   3.425   3.963   5.307
 8482WAT     H125688   3.444   4.049   5.259
 8482WAT     H225689   3.390   3.896   5.242
 8483WAT      O25690   4.589   7.983   2.815
 8483WAT     H125691   4.588   8.063   2.754
 8483WAT     H225692   4.672   7.984   2.871
 8484WAT      O25693   7.668   0.082   0.776
 8484WAT     H125694   7.732   0.106   0.848
 8484WAT     H225695   7.673  -0.016   0.757
 8485WAT      O25696   9.087   6.199   0.074
 8485WAT     H125697   9.029   6.179  -0.005
 8485WAT     H225698   9.181   6.209   0.043
 8486WAT      O25699   8.889   7.726   9.781
 8486WAT     H125700   8.966   7.761   9.835
 8486WAT     H225701   8.907   7.631   9.755
 8487WAT      O25702   1.402   2.268   5.798
 8487WAT     H125703   1.322   2.221   5.761
 8487WAT     H225704   1.469   2.201   5.829
 8488WAT      O25705   6.909   3.599   1.275
 8488WAT     H125706   6.955   3.615   1.188
 8488WAT     H225707   6.963   3.534   1.329
 8489WAT      O25708   1.386   0.636   0.788
 8489WAT     H125709   1.459   0.703   0.795
 8489WAT     H225710   1.418   0.557   0.735
 8490WAT      O25711   6.494   0.523   6.850
 8490WAT     H125712   6.586   0.484   6.842
 8490WAT     H225713   6.426   0.457   6.819
 8491WAT      O25714   9.433   6.822   7.253
 8491WAT     H125715   9.499   6.875   7.305
 8491WAT     H225716   9.343   6.865   7.259
 8492WAT      O25717   6.066   8.583   4.816
 8492WAT     H125718   6.092   8.674   4.849
 8492WAT     H225719   6.147   8.537   4.779
 8493WAT      O25720   7.124   3.714   5.888
 8493WAT     H125721   7.026   3.730   5.893
 8493WAT     H225722   7.153   3.713   5.792
 8494WAT      O25723   4.886   6.894   5.562
 8494WAT     H125724   4.985   6.893   5.581
 8494WAT     H225725   4.858   6.802   5.534
 8495WAT      O25726   9.733   4.893   6.146
 8495WAT     H125727   9.643   4.856   6.124
 8495WAT     H225728   9.790   4.894   6.064
 8496WAT      O25729   2.855   0.238   7.067
 8496WAT     H125730   2.858   0.164   7.134
 8496WAT     H225731   2.785   0.219   6.999
 8497WAT      O25732   1.633   0.967   4.105
 8497WAT     H125733   1.679   0.937   4.189
 8497WAT     H225734   1.679   0.926   4.026
 8498WAT      O25735   2.432   6.752   5.095
 8498WAT     H125736   2.374   6.828   5.123
 8498WAT     H225737   2.496   6.782   5.024
 8499WAT      O25738   8.358   5.510   6.944
 8499WAT     H125739   8.346   5.438   6.876
 8499WAT     H225740   8.269   5.545   6.972
 8500WAT      O25741   1.985   6.627   4.601
 8500WAT     H125742   1.925   6.578   4.665
 8500WAT     H225743   2.037   6.560   4.547
 8501WAT      O25744   5.177   9.759   8.564
 8501WAT     H125745   5.117   9.748   8.644
 8501WAT     H225746   5.178   9.855   8.536
 8502WAT      O25747   0.077   0.640   1.089
 8502WAT     H125748  -0.004   0.654   1.146
 8502WAT     H225749   0.158   0.673   1.138
 8503WAT      O25750   7.286   4.539   4.989
 8503WAT     H125751   7.277   4.467   5.059
 8503WAT     H225752   7.195   4.572   4.964
 8504WAT      O25753   0.633   0.992   7.490
 8504WAT     H125754   0.562   1.054   7.522
 8504WAT     H225755   0.691   1.039   7.424
 8505WAT      O25756   7.030   3.351   9.335
 8505WAT     H125757   7.049   3.255   9.317
 8505WAT     H225758   6.933   3.369   9.318
 8506WAT      O25759   2.188   3.796   0.306
 8506WAT     H125760   2.165   3.705   0.339
 8506WAT     H225761   2.115   3.831   0.248
 8507WAT      O25762   7.312   3.865   0.251
 8507WAT     H125763   7.216   3.871   0.223
 8507WAT     H225764   7.370   3.895   0.176
 8508WAT      O25765   4.742   7.831   7.772
 8508WAT     H125766   4.783   7.923   7.775
 8508WAT     H225767   4.645   7.838   7.751
 8509WAT      O25768   7.152   5.042   0.423
 8509WAT     H125769   7.207   5.018   0.504
 8509WAT     H225770   7.205   5.023   0.341
 8510WAT      O25771   9.818   5.704   1.435
 8510WAT     H125772   9.785   5.647   1.510
 8510WAT     H225773   9.747   5.710   1.365
 8511WAT      O25774   6.066   5.683   2.927
 8511WAT     H125775   6.149   5.737   2.929
 8511WAT     H225776   5.986   5.743   2.937
 8512WAT      O25777   9.670   5.696   0.730
 8512WAT     H125778   9.602   5.710   0.658
 8512WAT     H225779   9.720   5.781   0.747
 8513WAT      O25780   0.278   3.815   7.199
 8513WAT     H125781   0.198   3.864   7.234
 8513WAT     H225782   0.359   3.847   7.248
 8514WAT      O25783   6.148   5.780   7.049
 8514WAT     H125784   6.125   5.862   7.102
 8514WAT     H225785   6.216   5.727   7.100
 8515WAT      O25786   1.914   2.947   0.190
 8515WAT     H125787   1.877   3.039   0.174
 8515WAT     H225788   2.000   2.937   0.141
 8516WAT      O25789   9.015   5.597   0.717
 8516WAT     H125790   8.973   5.507   0.713
 8516WAT     H225791   8.944   5.667   0.729
 8517WAT      O25792   9.452   1.280   0.837
 8517WAT     H125793   9.410   1.316   0.754
 8517WAT     H225794   9.391   1.213   0.879
 8518WAT      O25795   1.492   5.864   1.526
 8518WAT     H125796   1.466   5.847   1.621
 8518WAT     H225797   1.580   5.822   1.508
 8519WAT      O25798   5.414   4.289   9.160
 8519WAT     H125799   5.335   4.291   9.221
 8519WAT     H225800   5.383   4.271   9.067
 8520WAT      O25801   3.609   9.045   5.011
 8520WAT     H125802   3.521   9.092   5.025
 8520WAT     H225803   3.609   9.002   4.921
 8521WAT      O25804   5.789   8.893   9.499
 8521WAT     H125805   5.871   8.950   9.500
 8521WAT     H225806   5.762   8.874   9.405
 8522WAT      O25807   7.753   7.265   1.700
 8522WAT     H125808   7.840   7.272   1.651
 8522WAT     H225809   7.688   7.213   1.645
 8523WAT      O25810   5.997   4.192   5.797
 8523WAT     H125811   5.906   4.195   5.840
 8523WAT     H225812   6.027   4.285   5.779
 8524WAT      O25813   6.365   7.425   8.442
 8524WAT     H125814   6.413   7.396   8.358
 8524WAT     H225815   6.429   7.423   8.519
 8525WAT      O25816   9.382   9.148   8.675
 8525WAT     H125817   9.352   9.239   8.704
 8525WAT     H225818   9.416   9.097   8.755
 8526WAT      O25819   9.750   6.436   6.884
 8526WAT     H125820   9.830   6.493   6.869
 8526WAT     H225821   9.728   6.435   6.982
 8527WAT      O25822   9.888   5.420   8.974
 8527WAT     H125823   9.810   5.480   8.959
 8527WAT     H225824   9.970   5.475   8.988
 8528WAT      O25825   0.868   2.965   1.804
 8528WAT     H125826   0.920   3.032   1.750
 8528WAT     H225827   0.920   2.881   1.813
 8529WAT      O25828   2.228   3.867   7.779
 8529WAT     H125829   2.128   3.856   7.781
 8529WAT     H225830   2.264   3.821   7.698
 8530WAT      O25831   8.308   4.343   6.002
 8530WAT     H125832   8.316   4.305   6.094
 8530WAT     H225833   8.399   4.364   5.966
 8531WAT      O25834   8.671   4.041   4.623
 8531WAT     H125835   8.620   4.113   4.671
 8531WAT     H225836   8.768   4.063   4.624
 8532WAT      O25837   1.037   2.937   8.030
 8532WAT     H125838   1.126   2.975   8.054
 8532WAT     H225839   1.030   2.929   7.931
 8533WAT      O25840   6.625   1.908   1.393
 8533WAT     H125841   6.720   1.917   1.364
 8533WAT     H225842   6.599   1.987   1.448
 8534WAT      O25843   1.163   0.779   0.728
 8534WAT     H125844   1.135   0.817   0.816
 8534WAT     H225845   1.247   0.726   0.740
 8535WAT      O25846   9.236   1.964   9.305
 8535WAT     H125847   9.244   1.897   9.379
 8535WAT     H225848   9.273   1.924   9.220
 8536WAT      O25849   9.181   6.720   1.531
 8536WAT     H125850   9.177   6.814   1.498
 8536WAT     H225851   9.216   6.661   1.459
 8537WAT      O25852   3.397   9.748   9.663
 8537WAT     H125853   3.301   9.774   9.667
 8537WAT     H225854   3.420   9.721   9.569
 8538WAT      O25855   3.795   8.268   5.983
 8538WAT     H125856   3.855   8.204   5.935
 8538WAT     H225857   3.712   8.220   6.013
 8539WAT      O25858   6.936   9.276   1.746
 8539WAT     H125859   6.886   9.203   1.701
 8539WAT     H225860   6.930   9.360   1.692
 8540WAT      O25861   4.957   4.629   6.300
 8540WAT     H125862   4.979   4.716   6.343
 8540WAT     H225863   5.040   4.587   6.264
 8541WAT      O25864   6.718   7.404   9.871
 8541WAT     H125865   6.755   7.367   9.786
 8541WAT     H225866   6.788   7.457   9.918
 8542WAT      O25867   3.604   8.671   2.904
 8542WAT     H125868   3.625   8.742   2.972
 8542WAT     H225869   3.556   8.595   2.949
 8543WAT      O25870   1.014   0.856   9.715
 8543WAT     H125871   1.010   0.928   9.784
 8543WAT     H225872   0.972   0.889   9.631
 8544WAT      O25873   1.969   6.171   2.187
 8544WAT     H125874   2.047   6.111   2.177
 8544WAT     H225875   1.981   6.229   2.268
 8545WAT      O25876   6.832   2.600   9.375
 8545WAT     H125877   6.817   2.509   9.337
 8545WAT     H225878   6.749   2.655   9.363
 8546WAT      O25879   7.376   1.863   2.404
 8546WAT     H125880   7.383   1.957   2.372
 8546WAT     H225881   7.461   1.814   2.383
 8547WAT      O25882   4.639   6.080   7.033
 8547WAT     H125883   4.625   6.130   6.948
 8547WAT     H225884   4.570   6.008   7.041
 8548WAT      O25885   1.896   1.635   9.369
 8548WAT     H125886   1.918   1.563   9.435
 8548WAT     H225887   1.799   1.658   9.376
 8549WAT      O25888   6.062   1.093   3.518
 8549WAT     H125889   6.111   1.135   3.595
 8549WAT     H225890   6.054   0.995   3.533
 8550WAT      O25891   1.446   6.071   0.732
 8550WAT     H125892   1.360   6.115   0.704
 8550WAT     H225893   1.430   6.020   0.817
 8551WAT      O25894   5.207   8.738   2.453
 8551WAT     H125895   5.225   8.810   2.520
 8551WAT     H225896   5.166   8.778   2.371
 8552WAT      O25897   6.600   6.578   5.122
 8552WAT     H125898   6.554   6.607   5.206
 8552WAT     H225899   6.695   6.557   5.141
 8553WAT      O25900   6.838   1.304   2.857
 8553WAT     H125901   6.760   1.267   2.907
 8553WAT     H225902   6.807   1.375   2.794
 8554WAT      O25903   8.915   7.655   8.730
 8554WAT     H125904   8.964   7.733   8.691
 8554WAT     H225905   8.880   7.679   8.820
 8555WAT      O25906   5.617   3.544   9.294
 8555WAT     H125907   5.610   3.445   9.303
 8555WAT     H225908   5.568   3.574   9.212
 8556WAT      O25909   5.593   4.751   2.692
 8556WAT     H125910   5.679   4.770   2.645
 8556WAT     H225911   5.573   4.824   2.757
 8557WAT      O25912   7.569   1.517   2.867
 8557WAT     H125913   7.510   1.595   2.890
 8557WAT     H225914   7.619   1.488   2.948
 8558WAT      O25915   1.422   0.586   9.301
 8558WAT     H125916   1.438   0.501   9.352
 8558WAT     H225917   1.353   0.571   9.231
 8559WAT      O25918   4.231   9.363   3.423
 8559WAT     H125919   4.319   9.406   3.443
 8559WAT     H225920   4.164   9.392   3.491
 8560WAT      O25921   8.425   1.629   9.129
 8560WAT     H125922   8.375   1.611   9.045
 8560WAT     H225923   8.361   1.636   9.205
 8561WAT      O25924   2.523   8.821   0.707
 8561WAT     H125925   2.557   8.826   0.801
 8561WAT     H225926   2.517   8.725   0.679
 8562WAT      O25927   4.256   5.616   1.952
 8562WAT     H125928   4.228   5.698   1.903
 8562WAT     H225929   4.261   5.539   1.888
 8563WAT      O25930   5.483   2.892   4.309
 8563WAT     H125931   5.549   2.821   4.333
 8563WAT     H225932   5.422   2.858   4.237
 8564WAT      O25933   5.277   2.755   3.669
 8564WAT     H125934   5.274   2.678   3.605
 8564WAT     H225935   5.294   2.839   3.618
 8565WAT      O25936   5.367   0.976   4.367
 8565WAT     H125937   5.432   0.901   4.356
 8565WAT     H225938   5.359   0.999   4.464
 8566WAT      O25939   1.675   7.083   2.601
 8566WAT     H125940   1.655   7.020   2.676
 8566WAT     H225941   1.608   7.157   2.601
 8567WAT      O25942   5.777   8.376   9.885
 8567WAT     H125943   5.707   8.353   9.953
 8567WAT     H225944   5.783   8.302   9.818
 8568WAT      O25945   0.521   8.515   4.834
 8568WAT     H125946   0.557   8.422   4.835
 8568WAT     H225947   0.446   8.521   4.768
 8569WAT      O25948   0.865   7.518   6.671
 8569WAT     H125949   0.893   7.469   6.754
 8569WAT     H225950   0.871   7.616   6.686
 8570WAT      O25951   9.053   1.280   8.330
 8570WAT     H125952   9.109   1.338   8.389
 8570WAT     H225953   9.015   1.205   8.384
 8571WAT      O25954   6.976   6.066   7.156
 8571WAT     H125955   6.975   6.015   7.070
 8571WAT     H225956   6.932   6.011   7.228
 8572WAT      O25957   6.386   8.471   5.546
 8572WAT     H125958   6.366   8.409   5.622
 8572WAT     H225959   6.393   8.418   5.461
 8573WAT      O25960   2.158   6.437   6.024
 8573WAT     H125961   2.219   6.383   6.083
 8573WAT     H225962   2.199   6.443   5.932
 8574WAT      O25963   6.886   1.711   2.012
 8574WAT     H125964   6.955   1.755   1.954
 8574WAT     H225965   6.886   1.754   2.102
 8575WAT      O25966   5.493   3.321   3.127
 8575WAT     H125967   5.540   3.408   3.143
 8575WAT     H225968   5.425   3.331   3.055
 8576WAT      O25969   3.928   7.688   6.627
 8576WAT     H125970   3.885   7.656   6.712
 8576WAT     H225971   3.924   7.788   6.624
 8577WAT      O25972   8.735   8.795   4.242
 8577WAT     H125973   8.673   8.748   4.179
 8577WAT     H225974   8.787   8.727   4.293
 8578WAT      O25975   7.753   1.101   7.799
 8578WAT     H125976   7.804   1.152   7.868
 8578WAT     H225977   7.746   1.156   7.716
 8579WAT      O25978   0.525   7.301   3.471
 8579WAT     H125979   0.513   7.391   3.512
 8579WAT     H225980   0.545   7.234   3.542
 8580WAT      O25981   1.039   6.276   6.546
 8580WAT     H125982   0.999   6.334   6.617
 8580WAT     H225983   1.126   6.314   6.517
 8581WAT      O25984   2.620   2.268   9.543
 8581WAT     H125985   2.535   2.231   9.506
 8581WAT     H225986   2.670   2.314   9.471
 8582WAT      O25987   5.075   2.128   4.262
 8582WAT     H125988   5.155   2.073   4.241
 8582WAT     H225989   4.997   2.095   4.209
 8583WAT      O25990   6.625   8.169   8.949
 8583WAT     H125991   6.610   8.226   9.029
 8583WAT     H225992   6.591   8.216   8.867
 8584WAT      O25993   4.517   4.947   9.076
 8584WAT     H125994   4.523   5.030   9.132
 8584WAT     H225995   4.524   4.867   9.135
 8585WAT      O25996   3.277   0.471   2.493
 8585WAT     H125997   3.337   0.482   2.572
 8585WAT     H225998   3.212   0.547   2.490
 8586WAT      O25999   8.745   3.776   9.769
 8586WAT     H126000   8.814   3.732   9.827
 8586WAT     H226001   8.665   3.716   9.762
 8587WAT      O26002   7.939   4.413   8.227
 8587WAT     H126003   7.857   4.455   8.189
 8587WAT     H226004   7.959   4.327   8.179
 8588WAT      O26005   8.664   8.511   7.282
 8588WAT     H126006   8.759   8.516   7.252
 8588WAT     H226007   8.658   8.454   7.363
 8589WAT      O26008   4.869   8.196   5.928
 8589WAT     H126009   4.906   8.248   5.851
 8589WAT     H226010   4.803   8.129   5.895
 8590WAT      O26011   2.713   1.194   3.555
 8590WAT     H126012   2.639   1.261   3.544
 8590WAT     H226013   2.779   1.207   3.481
 8591WAT      O26014   3.196   4.120   6.648
 8591WAT     H126015   3.219   4.030   6.610
 8591WAT     H226016   3.151   4.109   6.736
 8592WAT      O26017   5.350   4.408   8.303
 8592WAT     H126018   5.421   4.389   8.235
 8592WAT     H226019   5.275   4.458   8.261
 8593WAT      O26020   0.777   6.338   2.506
 8593WAT     H126021   0.820   6.339   2.596
 8593WAT     H226022   0.826   6.399   2.445
 8594WAT      O26023   5.877   2.693   1.157
 8594WAT     H126024   5.810   2.634   1.201
 8594WAT     H226025   5.902   2.654   1.068
 8595WAT      O26026   5.400   4.073   4.977
 8595WAT     H126027   5.362   4.022   4.900
 8595WAT     H226028   5.327   4.104   5.036
 8596WAT      O26029   2.032   4.822   4.924
 8596WAT     H126030   2.105   4.756   4.908
 8596WAT     H226031   2.071   4.908   4.957
 8597WAT      O26032   4.526   6.476   7.669
 8597WAT     H126033   4.558   6.561   7.710
 8597WAT     H226034   4.492   6.415   7.741
 8598WAT      O26035   2.322   2.043   3.877
 8598WAT     H126036   2.256   2.108   3.916
 8598WAT     H226037   2.388   2.093   3.821
 8599WAT      O26038   0.209   6.164   0.295
 8599WAT     H126039   0.150   6.221   0.351
 8599WAT     H226040   0.282   6.219   0.255
 8600WAT      O26041   3.083   3.150   5.833
 8600WAT     H126042   3.088   3.072   5.895
 8600WAT     H226043   3.018   3.131   5.760
 8601WAT      O26044   9.743   7.535   4.553
 8601WAT     H126045   9.708   7.457   4.503
 8601WAT     H226046   9.674   7.568   4.618
 8602WAT      O26047   8.071   5.699   6.504
 8602WAT     H126048   8.103   5.784   6.461
 8602WAT     H226049   8.137   5.626   6.487
 8603WAT      O26050   3.797   3.937   3.460
 8603WAT     H126051   3.866   3.875   3.497
 8603WAT     H226052   3.783   3.917   3.363
 8604WAT      O26053   7.289   9.718   7.560
 8604WAT     H126054   7.266   9.650   7.490
 8604WAT     H226055   7.235   9.700   7.642
 8605WAT      O26056   1.168   3.396   9.612
 8605WAT     H126057   1.200   3.333   9.682
 8605WAT     H226058   1.227   3.388   9.531
 8606WAT      O26059   6.635   6.855   2.698
 8606WAT     H126060   6.726   6.891   2.716
 8606WAT     H226061   6.601   6.891   2.611
 8607WAT      O26062   7.224   7.203   3.773
 8607WAT     H126063   7.142   7.252   3.746
 8607WAT     H226064   7.297   7.221   3.707
 8608WAT      O26065   1.679   2.514   9.674
 8608WAT     H126066   1.582   2.497   9.656
 8608WAT     H226067   1.730   2.505   9.589
 8609WAT      O26068   6.268   0.847   4.204
 8609WAT     H126069   6.296   0.885   4.116
 8609WAT     H226070   6.328   0.771   4.228
 8610WAT      O26071   4.468   2.306   6.554
 8610WAT     H126072   4.518   2.221   6.572
 8610WAT     H226073   4.419   2.335   6.637
 8611WAT      O26074   5.141   6.509   7.991
 8611WAT     H126075   5.130   6.426   7.936
 8611WAT     H226076   5.135   6.589   7.932
 8612WAT      O26077   2.874   3.598   2.527
 8612WAT     H126078   2.925   3.618   2.443
 8612WAT     H226079   2.779   3.626   2.516
 8613WAT      O26080   4.177   0.987   2.715
 8613WAT     H126081   4.131   0.955   2.798
 8613WAT     H226082   4.231   1.069   2.737
 8614WAT      O26083   9.367   6.806   5.932
 8614WAT     H126084   9.432   6.754   5.987
 8614WAT     H226085   9.408   6.894   5.906
 8615WAT      O26086   1.003   9.264   6.218
 8615WAT     H126087   0.933   9.196   6.238
 8615WAT     H226088   1.056   9.235   6.138
 8616WAT      O26089   2.361   5.840   8.207
 8616WAT     H126090   2.280   5.829   8.150
 8616WAT     H226091   2.364   5.934   8.243
 8617WAT      O26092   2.752   9.173   0.168
 8617WAT     H126093   2.723   9.157   0.074
 8617WAT     H226094   2.849   9.152   0.177
 8618WAT      O26095   6.201   6.997   8.574
 8618WAT     H126096   6.180   7.095   8.575
 8618WAT     H226097   6.291   6.981   8.614
 8619WAT      O26098   6.315   7.578   3.356
 8619WAT     H126099   6.244   7.527   3.307
 8619WAT     H226100   6.402   7.570   3.308
 8620WAT      O26101   4.376   7.178   0.710
 8620WAT     H126102   4.386   7.272   0.681
 8620WAT     H226103   4.279   7.158   0.725
 8621WAT      O26104   6.760   7.470   7.138
 8621WAT     H126105   6.808   7.397   7.088
 8621WAT     H226106   6.766   7.555   7.087
 8622WAT      O26107   7.925   5.658   0.116
 8622WAT     H126108   7.959   5.564   0.120
 8622WAT     H226109   7.835   5.663   0.160
 8623WAT      O26110   4.271   9.372   0.947
 8623WAT     H126111   4.333   9.382   0.869
 8623WAT     H226112   4.232   9.461   0.970
 8624WAT      O26113   7.517   5.489   5.393
 8624WAT     H126114   7.605   5.530   5.369
 8624WAT     H226115   7.468   5.550   5.456
 8625WAT      O26116   3.378   0.368   9.176
 8625WAT     H126117   3.360   0.443   9.113
 8625WAT     H226118   3.343   0.391   9.267
 8626WAT      O26119   6.498   8.902   1.907
 8626WAT     H126120   6.510   8.849   1.992
 8626WAT     H226121   6.406   8.940   1.905
 8627WAT      O26122   1.683   1.356   2.126
 8627WAT     H126123   1.636   1.396   2.047
 8627WAT     H226124   1.752   1.420   2.160
 8628WAT      O26125   5.786   2.273   6.339
 8628WAT     H126126   5.830   2.201   6.393
 8628WAT     H226127   5.826   2.275   6.247
 8629WAT      O26128   0.427   3.133   7.667
 8629WAT     H126129   0.423   3.231   7.688
 8629WAT     H226130   0.494   3.089   7.726
 8630WAT      O26131   6.016   6.200   9.847
 8630WAT     H126132   6.016   6.259   9.767
 8630WAT     H226133   5.986   6.252   9.928
 8631WAT      O26134   5.392   0.419   4.131
 8631WAT     H126135   5.373   0.380   4.221
 8631WAT     H226136   5.326   0.385   4.064
 8632WAT      O26137   0.479   1.453   3.687
 8632WAT     H126138   0.470   1.534   3.745
 8632WAT     H226139   0.524   1.479   3.602
 8633WAT      O26140   9.702   4.156   2.862
 8633WAT     H126141   9.614   4.158   2.814
 8633WAT     H226142   9.776   4.163   2.795
 8634WAT      O26143   6.368   5.539   0.539
 8634WAT     H126144   6.295   5.472   0.523
 8634WAT     H226145   6.426   5.507   0.614
 8635WAT      O26146   2.401   8.452   9.673
 8635WAT     H126147   2.433   8.541   9.639
 8635WAT     H226148   2.476   8.405   9.719
 8636WAT      O26149   3.129   9.706   7.157
 8636WAT     H126150   3.120   9.629   7.221
 8636WAT     H226151   3.159   9.672   7.068
 8637WAT      O26152   6.008   0.344   7.609
 8637WAT     H126153   6.092   0.397   7.602
 8637WAT     H226154   5.938   0.384   7.550
 8638WAT      O26155   3.331   6.649   6.046
 8638WAT     H126156   3.274   6.713   6.097
 8638WAT     H226157   3.391   6.699   5.984
 8639WAT      O26158   5.778   3.836   0.508
 8639WAT     H126159   5.793   3.907   0.576
 8639WAT     H226160   5.726   3.874   0.431
 8640WAT      O26161   1.463   4.273   7.581
 8640WAT     H126162   1.390   4.328   7.540
 8640WAT     H226163   1.464   4.287   7.680
 8641WAT      O26164   7.931   4.695   1.738
 8641WAT     H126165   7.865   4.757   1.696
 8641WAT     H226166   7.969   4.634   1.668
 8642WAT      O26167   8.888   3.055   2.734
 8642WAT     H126168   8.848   3.013   2.652
 8642WAT     H226169   8.985   3.074   2.718
 8643WAT      O26170   2.713   2.961   1.818
 8643WAT     H126171   2.797   2.976   1.766
 8643WAT     H226172   2.633   2.976   1.759
 8644WAT      O26173   4.404   0.429   4.885
 8644WAT     H126174   4.398   0.397   4.790
 8644WAT     H226175   4.501   0.434   4.911
 8645WAT      O26176   1.967   0.142   0.085
 8645WAT     H126177   1.904   0.176   0.015
 8645WAT     H226178   1.922   0.070   0.138
 8646WAT      O26179   8.359   4.882   9.734
 8646WAT     H126180   8.322   4.970   9.763
 8646WAT     H226181   8.458   4.882   9.747
 8647WAT      O26182   0.693   4.610   7.447
 8647WAT     H126183   0.748   4.649   7.373
 8647WAT     H226184   0.729   4.520   7.472
 8648WAT      O26185   8.146   0.875   5.485
 8648WAT     H126186   8.165   0.865   5.583
 8648WAT     H226187   8.229   0.855   5.433
 8649WAT      O26188   8.257   2.502   5.024
 8649WAT     H126189   8.344   2.520   4.977
 8649WAT     H226190   8.231   2.407   5.011
 8650WAT      O26191   7.468   0.617   0.771
 8650WAT     H126192   7.493   0.647   0.863
 8650WAT     H226193   7.478   0.693   0.707
 8651WAT      O26194   5.739   0.313   2.896
 8651WAT     H126195   5.747   0.227   2.845
 8651WAT     H226196   5.651   0.356   2.873
 8652WAT      O26197   9.729   1.761   7.061
 8652WAT     H126198   9.636   1.795   7.077
 8652WAT     H226199   9.762   1.796   6.973
 8653WAT      O26200   4.750   8.654   7.186
 8653WAT     H126201   4.661   8.629   7.224
 8653WAT     H226202   4.820   8.596   7.227
 8654WAT      O26203   9.001   2.362   1.419
 8654WAT     H126204   8.946   2.427   1.471
 8654WAT     H226205   8.948   2.279   1.402
 8655WAT      O26206   8.332   8.271   5.875
 8655WAT     H126207   8.304   8.306   5.786
 8655WAT     H226208   8.300   8.335   5.946
 8656WAT      O26209   5.260   1.600   7.007
 8656WAT     H126210   5.243   1.638   6.916
 8656WAT     H226211   5.226   1.506   7.011
 8657WAT      O26212   2.379   3.917   7.322
 8657WAT     H126213   2.325   3.933   7.239
 8657WAT     H226214   2.474   3.899   7.296
 8658WAT      O26215   0.924   9.036   5.100
 8658WAT     H126216   0.849   8.987   5.055
 8658WAT     H226217   0.905   9.042   5.198
 8659WAT      O26218   5.446   4.860   0.361
 8659WAT     H126219   5.354   4.878   0.325
 8659WAT     H226220   5.475   4.769   0.332
 8660WAT      O26221   0.887   8.573   9.013
 8660WAT     H126222   0.935   8.575   9.101
 8660WAT     H226223   0.951   8.548   8.941
 8661WAT      O26224   3.930   3.661   1.905
 8661WAT     H126225   3.904   3.614   1.821
 8661WAT     H226226   3.937   3.593   1.979
 8662WAT      O26227   4.349   4.726   8.201
 8662WAT     H126228   4.314   4.759   8.288
 8662WAT     H226229   4.321   4.788   8.128
 8663WAT      O26230   2.857   0.586   8.171
 8663WAT     H126231   2.938   0.528   8.159
 8663WAT     H226232   2.786   0.557   8.105
 8664WAT      O26233   1.459   2.347   3.406
 8664WAT     H126234   1.367   2.333   3.370
 8664WAT     H226235   1.456   2.348   3.506
 8665WAT      O26236   4.715   7.206   3.324
 8665WAT     H126237   4.796   7.251   3.362
 8665WAT     H226238   4.706   7.229   3.227
 8666WAT      O26239   4.489   8.701   7.749
 8666WAT     H126240   4.525   8.776   7.694
 8666WAT     H226241   4.487   8.617   7.695
 8667WAT      O26242   4.261   0.084   8.319
 8667WAT     H126243   4.185   0.075   8.255
 8667WAT     H226244   4.307   0.171   8.303
 8668WAT      O26245   6.075   1.806   8.173
 8668WAT     H126246   6.151   1.752   8.136
 8668WAT     H226247   6.075   1.800   8.273
 8669WAT      O26248   6.172   0.909   3.084
 8669WAT     H126249   6.264   0.947   3.075
 8669WAT     H226250   6.173   0.833   3.149
 8670WAT      O26251   2.691   9.575   6.275
 8670WAT     H126252   2.596   9.596   6.254
 8670WAT     H226253   2.751   9.628   6.215
 8671WAT      O26254   0.363   3.676   3.134
 8671WAT     H126255   0.394   3.586   3.163
 8671WAT     H226256   0.403   3.698   3.045
 8672WAT      O26257   7.022   3.798   8.627
 8672WAT     H126258   6.956   3.873   8.615
 8672WAT     H226259   7.094   3.807   8.557
 8673WAT      O26260   5.316   3.353   2.901
 8673WAT     H126261   5.262   3.436   2.902
 8673WAT     H226262   5.276   3.287   2.837
 8674WAT      O26263   7.529   3.849   1.846
 8674WAT     H126264   7.583   3.765   1.848
 8674WAT     H226265   7.469   3.849   1.767
 8675WAT      O26266   8.974   9.425   1.087
 8675WAT     H126267   9.055   9.467   1.046
 8675WAT     H226268   8.939   9.485   1.159
 8676WAT      O26269   3.312   2.601   2.653
 8676WAT     H126270   3.247   2.602   2.730
 8676WAT     H226271   3.399   2.563   2.684
 8677WAT      O26272   9.830   1.961   0.357
 8677WAT     H126273   9.893   2.005   0.421
 8677WAT     H226274   9.782   1.887   0.404
 8678WAT      O26275   0.745   2.634   4.807
 8678WAT     H126276   0.670   2.623   4.742
 8678WAT     H226277   0.790   2.546   4.822
 8679WAT      O26278   8.399   7.936   4.306
 8679WAT     H126279   8.480   7.889   4.343
 8679WAT     H226280   8.422   8.031   4.286
 8680WAT      O26281   3.657   4.108   8.990
 8680WAT     H126282   3.620   4.145   8.905
 8680WAT     H226283   3.672   4.182   9.056
 8681WAT      O26284   3.427   3.640   8.306
 8681WAT     H126285   3.483   3.628   8.224
 8681WAT     H226286   3.433   3.736   8.336
 8682WAT      O26287   1.867   7.346   1.819
 8682WAT     H126288   1.851   7.393   1.732
 8682WAT     H226289   1.920   7.264   1.804
 8683WAT      O26290   1.154   5.339   0.938
 8683WAT     H126291   1.124   5.431   0.913
 8683WAT     H226292   1.115   5.273   0.875
 8684WAT      O26293   9.614   5.514   8.989
 8684WAT     H126294   9.555   5.516   8.908
 8684WAT     H226295   9.582   5.583   9.055
 8685WAT      O26296   1.563   5.855   9.053
 8685WAT     H126297   1.474   5.809   9.051
 8685WAT     H226298   1.555   5.942   9.100
 8686WAT      O26299   8.682   2.583   7.943
 8686WAT     H126300   8.641   2.494   7.959
 8686WAT     H226301   8.609   2.651   7.931
 8687WAT      O26302   0.921   9.342   9.433
 8687WAT     H126303   0.827   9.328   9.466
 8687WAT     H226304   0.967   9.409   9.491
 8688WAT      O26305   6.426   9.696   2.043
 8688WAT     H126306   6.348   9.757   2.058
 8688WAT     H226307   6.470   9.675   2.130
 8689WAT      O26308   2.381   5.020   4.938
 8689WAT     H126309   2.419   5.041   4.848
 8689WAT     H226310   2.421   5.081   5.006
 8690WAT      O26311   1.845   1.565   5.668
 8690WAT     H126312   1.923   1.562   5.606
 8690WAT     H226313   1.847   1.652   5.719
 8691WAT      O26314   2.989   4.500   4.053
 8691WAT     H126315   3.008   4.402   4.050
 8691WAT     H226316   2.937   4.522   4.135
 8692WAT      O26317   9.169   8.226   1.597
 8692WAT     H126318   9.094   8.167   1.628
 8692WAT     H226319   9.215   8.183   1.519
 8693WAT      O26320   6.125   2.435   5.044
 8693WAT     H126321   6.210   2.400   5.084
 8693WAT     H226322   6.059   2.453   5.116
 8694WAT      O26323   6.430   0.410   1.546
 8694WAT     H126324   6.381   0.435   1.630
 8694WAT     H226325   6.365   0.401   1.471
 8695WAT      O26326   9.244   1.855   5.355
 8695WAT     H126327   9.314   1.914   5.314
 8695WAT     H226328   9.251   1.763   5.317
 8696WAT      O26329   1.742   9.125   3.504
 8696WAT     H126330   1.666   9.189   3.494
 8696WAT     H226331   1.797   9.151   3.584
 8697WAT      O26332   7.966   5.854   2.048
 8697WAT     H126333   8.000   5.897   1.964
 8697WAT     H226334   7.951   5.924   2.118
 8698WAT      O26335   6.494   7.416   1.294
 8698WAT     H126336   6.426   7.478   1.333
 8698WAT     H226337   6.454   7.365   1.218
 8699WAT      O26338   7.010   3.032   2.288
 8699WAT     H126339   6.983   3.099   2.219
 8699WAT     H226340   7.092   3.064   2.336
 8700WAT      O26341   3.319   6.753   2.398
 8700WAT     H126342   3.416   6.760   2.377
 8700WAT     H226343   3.291   6.832   2.453
 8701WAT      O26344   1.360   2.991   4.380
 8701WAT     H126345   1.342   3.056   4.306
 8701WAT     H226346   1.457   2.996   4.406
 8702WAT      O26347   2.607   7.926   2.179
 8702WAT     H126348   2.683   7.927   2.114
 8702WAT     H226349   2.625   7.992   2.252
 8703WAT      O26350   0.393   3.167   7.087
 8703WAT     H126351   0.333   3.242   7.117
 8703WAT     H226352   0.447   3.198   7.009
 8704WAT      O26353   0.100   7.016   0.109
 8704WAT     H126354   0.110   6.920   0.135
 8704WAT     H226355   0.110   7.025   0.010
 8705WAT      O26356   2.259   1.136   2.200
 8705WAT     H126357   2.300   1.164   2.286
 8705WAT     H226358   2.297   1.048   2.172
 8706WAT      O26359   3.890   7.606   3.088
 8706WAT     H126360   3.940   7.520   3.079
 8706WAT     H226361   3.841   7.606   3.176
 8707WAT      O26362   1.286   1.906   7.785
 8707WAT     H126363   1.368   1.865   7.747
 8707WAT     H226364   1.291   2.006   7.775
 8708WAT      O26365   7.275   6.871   3.413
 8708WAT     H126366   7.322   6.856   3.500
 8708WAT     H226367   7.342   6.882   3.340
 8709WAT      O26368   3.970   0.321   2.048
 8709WAT     H126369   3.871   0.327   2.033
 8709WAT     H226370   4.007   0.243   1.998
 8710WAT      O26371   5.715   0.669   0.375
 8710WAT     H126372   5.780   0.593   0.373
 8710WAT     H226373   5.659   0.663   0.458
 8711WAT      O26374   6.519   5.660   5.896
 8711WAT     H126375   6.601   5.699   5.853
 8711WAT     H226376   6.457   5.627   5.825
 8712WAT      O26377   3.416   7.238   1.182
 8712WAT     H126378   3.339   7.294   1.213
 8712WAT     H226379   3.496   7.257   1.238
 8713WAT      O26380   7.243   6.468   4.345
 8713WAT     H126381   7.162   6.460   4.287
 8713WAT     H226382   7.235   6.406   4.423
 8714WAT      O26383   2.170   5.957   7.336
 8714WAT     H126384   2.190   6.049   7.303
 8714WAT     H226385   2.110   5.911   7.270
 8715WAT      O26386   1.048   9.088   4.275
 8715WAT     H126387   0.980   9.040   4.220
 8715WAT     H226388   1.011   9.175   4.305
 8716WAT      O26389   3.230   7.031   6.668
 8716WAT     H126390   3.229   7.002   6.764
 8716WAT     H226391   3.322   7.017   6.631
 8717WAT      O26392   6.124   0.098   0.486
 8717WAT     H126393   6.145   0.101   0.389
 8717WAT     H226394   6.194   0.147   0.538
 8718WAT      O26395   1.609   1.641   9.399
 8718WAT     H126396   1.607   1.610   9.494
 8718WAT     H226397   1.605   1.561   9.338
 8719WAT      O26398   2.012   4.348   4.392
 8719WAT     H126399   2.089   4.307   4.441
 8719WAT     H226400   1.987   4.435   4.435
 8720WAT      O26401   1.584   5.097   4.010
 8720WAT     H126402   1.565   5.083   3.913
 8720WAT     H226403   1.669   5.149   4.020
 8721WAT      O26404   6.042   9.549   6.664
 8721WAT     H126405   6.125   9.495   6.679
 8721WAT     H226406   6.060   9.645   6.684
 8722WAT      O26407   3.882   3.843   6.257
 8722WAT     H126408   3.958   3.810   6.313
 8722WAT     H226409   3.795   3.816   6.299
 8723WAT      O26410   2.809   9.362   7.129
 8723WAT     H126411   2.761   9.421   7.063
 8723WAT     H226412   2.906   9.360   7.106
 8724WAT      O26413   0.519   3.461   0.395
 8724WAT     H126414   0.575   3.530   0.349
 8724WAT     H226415   0.478   3.400   0.327
 8725WAT      O26416   7.114   4.118   4.635
 8725WAT     H126417   7.168   4.196   4.666
 8725WAT     H226418   7.037   4.151   4.580
 8726WAT      O26419   2.477   8.480   0.989
 8726WAT     H126420   2.499   8.422   1.068
 8726WAT     H226421   2.378   8.498   0.988
 8727WAT      O26422   0.977   1.935   3.901
 8727WAT     H126423   0.933   1.983   3.825
 8727WAT     H226424   0.907   1.887   3.954
 8728WAT      O26425   5.628   4.389   6.055
 8728WAT     H126426   5.590   4.302   6.024
 8728WAT     H226427   5.663   4.439   5.976
 8729WAT      O26428   1.694   5.133   5.273
 8729WAT     H126429   1.686   5.033   5.279
 8729WAT     H226430   1.603   5.174   5.276
 8730WAT      O26431   1.156   8.236   4.201
 8730WAT     H126432   1.243   8.219   4.156
 8730WAT     H226433   1.083   8.186   4.153
 8731WAT      O26434   0.295   8.263   3.331
 8731WAT     H126435   0.251   8.245   3.419
 8731WAT     H226436   0.256   8.203   3.261
 8732WAT      O26437   4.718   1.870   7.423
 8732WAT     H126438   4.734   1.960   7.464
 8732WAT     H226439   4.704   1.802   7.494
 8733WAT      O26440   6.093   3.672   5.761
 8733WAT     H126441   6.074   3.770   5.751
 8733WAT     H226442   6.191   3.658   5.764
 8734WAT      O26443   5.071   3.624   5.189
 8734WAT     H126444   5.020   3.558   5.244
 8734WAT     H226445   5.143   3.664   5.245
 8735WAT      O26446   5.915   3.359   8.557
 8735WAT     H126447   5.926   3.277   8.501
 8735WAT     H226448   5.830   3.353   8.610
 8736WAT      O26449   2.380   3.197   1.594
 8736WAT     H126450   2.294   3.242   1.570
 8736WAT     H226451   2.415   3.237   1.679
 8737WAT      O26452   6.475   7.219   4.874
 8737WAT     H126453   6.378   7.241   4.859
 8737WAT     H226454   6.522   7.299   4.910
 8738WAT      O26455   2.241   2.466   3.269
 8738WAT     H126456   2.200   2.478   3.178
 8738WAT     H226457   2.301   2.386   3.268
 8739WAT      O26458   4.015   9.043   1.209
 8739WAT     H126459   4.042   9.113   1.143
 8739WAT     H226460   4.063   8.957   1.188
 8740WAT      O26461   7.207   5.155   4.256
 8740WAT     H126462   7.251   5.205   4.330
 8740WAT     H226463   7.276   5.123   4.191
 8741WAT      O26464   6.560   9.366   2.479
 8741WAT     H126465   6.596   9.315   2.401
 8741WAT     H226466   6.635   9.399   2.535
 8742WAT      O26467   0.217   9.561   3.913
 8742WAT     H126468   0.235   9.463   3.922
 8742WAT     H226469   0.256   9.609   3.992
 8743WAT      O26470   7.656   4.863   0.620
 8743WAT     H126471   7.630   4.784   0.676
 8743WAT     H226472   7.722   4.919   0.670
 8744WAT      O26473   1.209   8.443   9.818
 8744WAT     H126474   1.225   8.345   9.822
 8744WAT     H226475   1.110   8.461   9.813
 8745WAT      O26476   5.027   6.386   8.247
 8745WAT     H126477   5.084   6.401   8.167
 8745WAT     H226478   4.943   6.339   8.220
 8746WAT      O26479   5.161   7.776   5.189
 8746WAT     H126480   5.105   7.700   5.221
 8746WAT     H226481   5.256   7.763   5.217
 8747WAT      O26482   8.423   9.063   5.954
 8747WAT     H126483   8.418   9.089   6.050
 8747WAT     H226484   8.408   9.143   5.896
 8748WAT      O26485   1.673   2.078   5.596
 8748WAT     H126486   1.772   2.096   5.597
 8748WAT     H226487   1.641   2.068   5.690
 8749WAT      O26488   1.792   8.077   5.083
 8749WAT     H126489   1.755   8.167   5.057
 8749WAT     H226490   1.889   8.085   5.104
 8750WAT      O26491   5.744   9.597   9.123
 8750WAT     H126492   5.811   9.547   9.068
 8750WAT     H226493   5.675   9.637   9.063
 8751WAT      O26494   6.949   1.931   8.798
 8751WAT     H126495   6.949   2.017   8.746
 8751WAT     H226496   6.975   1.949   8.892
 8752WAT      O26497   9.507   2.685   3.000
 8752WAT     H126498   9.512   2.751   3.075
 8752WAT     H226499   9.569   2.608   3.018
 8753WAT      O26500   2.128   9.266   9.796
 8753WAT     H126501   2.166   9.230   9.710
 8753WAT     H226502   2.157   9.208   9.872
 8754WAT      O26503   3.616   5.209   8.738
 8754WAT     H126504   3.687   5.217   8.808
 8754WAT     H226505   3.659   5.209   8.648
 8755WAT      O26506   2.543   0.057   0.748
 8755WAT     H126507   2.459   0.110   0.750
 8755WAT     H226508   2.583   0.061   0.657
 8756WAT      O26509   7.333   0.236   4.676
 8756WAT     H126510   7.428   0.205   4.677
 8756WAT     H226511   7.295   0.225   4.584
 8757WAT      O26512   0.549   4.625   6.736
 8757WAT     H126513   0.573   4.676   6.653
 8757WAT     H226514   0.523   4.532   6.711
 8758WAT      O26515   3.279   8.135   7.956
 8758WAT     H126516   3.294   8.090   8.044
 8758WAT     H226517   3.363   8.134   7.903
 8759WAT      O26518   7.844   6.918   2.717
 8759WAT     H126519   7.763   6.886   2.666
 8759WAT     H226520   7.906   6.963   2.654
 8760WAT      O26521   3.257   4.262   5.060
 8760WAT     H126522   3.212   4.223   4.980
 8760WAT     H226523   3.320   4.334   5.031
 8761WAT      O26524   2.027   7.696   3.613
 8761WAT     H126525   2.008   7.756   3.536
 8761WAT     H226526   2.021   7.600   3.583
 8762WAT      O26527   2.942   0.750   3.110
 8762WAT     H126528   2.848   0.735   3.142
 8762WAT     H226529   2.969   0.844   3.130
 8763WAT      O26530   8.437   8.833   4.351
 8763WAT     H126531   8.425   8.782   4.266
 8763WAT     H226532   8.362   8.811   4.414
 8764WAT      O26533   4.448   0.782   5.876
 8764WAT     H126534   4.451   0.823   5.784
 8764WAT     H226535   4.358   0.742   5.891
 8765WAT      O26536   3.667   0.306   2.920
 8765WAT     H126537   3.742   0.256   2.877
 8765WAT     H226538   3.657   0.275   3.015
 8766WAT      O26539   5.142   4.790   0.410
 8766WAT     H126540   5.098   4.725   0.349
 8766WAT     H226541   5.154   4.877   0.361
 8767WAT      O26542   8.682   8.357   6.119
 8767WAT     H126543   8.643   8.388   6.206
 8767WAT     H226544   8.744   8.281   6.136
 8768WAT      O26545   0.169   5.850   7.263
 8768WAT     H126546   0.230   5.780   7.227
 8768WAT     H226547   0.156   5.921   7.194
 8769WAT      O26548   0.007   1.592   7.727
 8769WAT     H126549  -0.074   1.584   7.785
 8769WAT     H226550  -0.017   1.569   7.633
 8770WAT      O26551   3.671   2.399   0.054
 8770WAT     H126552   3.637   2.359  -0.031
 8770WAT     H226553   3.623   2.484   0.073
 8771WAT      O26554   9.283   6.653   4.998
 8771WAT     H126555   9.196   6.674   4.954
 8771WAT     H226556   9.276   6.566   5.047
 8772WAT      O26557   8.625   0.839   2.714
 8772WAT     H126558   8.533   0.847   2.675
 8772WAT     H226559   8.670   0.928   2.711
 8773WAT      O26560   2.663   0.576   3.981
 8773WAT     H126561   2.661   0.477   3.968
 8773WAT     H226562   2.592   0.602   4.047
 8774WAT      O26563   8.940   8.563   5.791
 8774WAT     H126564   9.010   8.611   5.739
 8774WAT     H226565   8.860   8.621   5.802
 8775WAT      O26566   5.490   5.766   7.006
 8775WAT     H126567   5.590   5.763   6.997
 8775WAT     H226568   5.449   5.777   6.916
 8776WAT      O26569   7.918   4.189   5.274
 8776WAT     H126570   7.899   4.201   5.177
 8776WAT     H226571   7.870   4.108   5.308
 8777WAT      O26572   8.503   1.845   4.550
 8777WAT     H126573   8.547   1.910   4.488
 8777WAT     H226574   8.471   1.893   4.632
 8778WAT      O26575   9.874   8.642   5.923
 8778WAT     H126576   9.891   8.560   5.978
 8778WAT     H226577   9.864   8.721   5.984
 8779WAT      O26578   3.417   8.929   1.491
 8779WAT     H126579   3.378   8.842   1.462
 8779WAT     H226580   3.356   8.973   1.556
 8780WAT      O26581   1.941   1.458   8.913
 8780WAT     H126582   1.999   1.386   8.951
 8780WAT     H226583   1.914   1.521   8.985
 8781WAT      O26584   5.544   1.502   8.908
 8781WAT     H126585   5.616   1.539   8.849
 8781WAT     H226586   5.455   1.514   8.864
 8782WAT      O26587   8.413   6.677   6.624
 8782WAT     H126588   8.488   6.693   6.560
 8782WAT     H226589   8.398   6.759   6.679
 8783WAT      O26590   7.020   4.455   3.388
 8783WAT     H126591   7.109   4.413   3.364
 8783WAT     H226592   6.955   4.437   3.314
 8784WAT      O26593   1.576   2.152   8.216
 8784WAT     H126594   1.565   2.116   8.309
 8784WAT     H226595   1.568   2.077   8.150
 8785WAT      O26596   6.523   8.283   8.119
 8785WAT     H126597   6.433   8.241   8.110
 8785WAT     H226598   6.592   8.224   8.077
 8786WAT      O26599   8.678   3.339   6.666
 8786WAT     H126600   8.760   3.296   6.628
 8786WAT     H226601   8.632   3.275   6.728
 8787WAT      O26602   1.519   5.621   7.238
 8787WAT     H126603   1.559   5.641   7.327
 8787WAT     H226604   1.529   5.523   7.219
 8788WAT      O26605   8.315   1.134   0.150
 8788WAT     H126606   8.387   1.074   0.185
 8788WAT     H226607   8.335   1.229   0.175
 8789WAT      O26608   5.526   3.133   3.342
 8789WAT     H126609   5.620   3.112   3.369
 8789WAT     H226610   5.527   3.193   3.262
 8790WAT      O26611   6.188   6.907   6.378
 8790WAT     H126612   6.161   6.812   6.388
 8790WAT     H226613   6.244   6.935   6.456
 8791WAT      O26614   0.599   9.479   2.304
 8791WAT     H126615   0.534   9.527   2.244
 8791WAT     H226616   0.549   9.417   2.364
 8792WAT      O26617   7.615   3.690   8.943
 8792WAT     H126618   7.644   3.635   9.020
 8792WAT     H226619   7.639   3.786   8.959
 8793WAT      O26620   1.378   1.004   9.035
 8793WAT     H126621   1.321   0.921   9.028
 8793WAT     H226622   1.355   1.066   8.960
 8794WAT      O26623   3.959   9.754   3.138
 8794WAT     H126624   3.960   9.713   3.047
 8794WAT     H226625   4.001   9.845   3.133
 8795WAT      O26626   1.490   8.444   5.464
 8795WAT     H126627   1.502   8.543   5.467
 8795WAT     H226628   1.573   8.401   5.429
 8796WAT      O26629   6.506   3.964   3.150
 8796WAT     H126630   6.441   3.980   3.224
 8796WAT     H226631   6.598   3.987   3.181
 8797WAT      O26632   8.471   1.856   9.418
 8797WAT     H126633   8.456   1.757   9.424
 8797WAT     H226634   8.538   1.875   9.347
 8798WAT      O26635   6.708   3.627   2.284
 8798WAT     H126636   6.694   3.666   2.375
 8798WAT     H226637   6.625   3.638   2.230
 8799WAT      O26638   4.151   7.177   2.272
 8799WAT     H126639   4.201   7.261   2.294
 8799WAT     H226640   4.056   7.186   2.302
 8800WAT      O26641   1.757   1.888   0.046
 8800WAT     H126642   1.782   1.954  -0.024
 8800WAT     H226643   1.750   1.934   0.135
 8801WAT      O26644   3.282   8.387   4.152
 8801WAT     H126645   3.294   8.433   4.063
 8801WAT     H226646   3.284   8.456   4.225
 8802WAT      O26647   9.345   2.349   7.930
 8802WAT     H126648   9.331   2.365   8.028
 8802WAT     H226649   9.261   2.313   7.889
 8803WAT      O26650   5.451   1.273   2.446
 8803WAT     H126651   5.365   1.278   2.497
 8803WAT     H226652   5.464   1.356   2.392
 8804WAT      O26653   3.891   1.687   6.257
 8804WAT     H126654   3.961   1.758   6.266
 8804WAT     H226655   3.830   1.690   6.336
 8805WAT      O26656   8.332   2.972   9.278
 8805WAT     H126657   8.288   2.928   9.356
 8805WAT     H226658   8.359   3.065   9.303
 8806WAT      O26659   4.248   3.102   2.004
 8806WAT     H126660   4.279   3.048   1.925
 8806WAT     H226661   4.244   3.044   2.085
 8807WAT      O26662   6.407   2.465   8.368
 8807WAT     H126663   6.506   2.479   8.364
 8807WAT     H226664   6.379   2.403   8.295
 8808WAT      O26665   4.015   2.224   9.107
 8808WAT     H126666   3.979   2.288   9.038
 8808WAT     H226667   3.942   2.201   9.171
 8809WAT      O26668   7.548   9.118   2.822
 8809WAT     H126669   7.574   9.172   2.901
 8809WAT     H226670   7.448   9.104   2.822
 8810WAT      O26671   3.163   0.900   1.070
 8810WAT     H126672   3.205   0.888   1.160
 8810WAT     H226673   3.087   0.837   1.060
 8811WAT      O26674   0.309   8.103   7.474
 8811WAT     H126675   0.301   8.078   7.377
 8811WAT     H226676   0.379   8.173   7.484
 8812WAT      O26677   7.368   7.274   4.589
 8812WAT     H126678   7.363   7.174   4.595
 8812WAT     H226679   7.353   7.303   4.494
 8813WAT      O26680   6.851   2.910   0.152
 8813WAT     H126681   6.791   2.834   0.129
 8813WAT     H226682   6.804   2.973   0.213
 8814WAT      O26683   9.176   6.055   1.774
 8814WAT     H126684   9.168   6.015   1.865
 8814WAT     H226685   9.259   6.109   1.768
 8815WAT      O26686   1.413   6.983   3.715
 8815WAT     H126687   1.358   6.992   3.632
 8815WAT     H226688   1.356   6.951   3.790
 8816WAT      O26689   4.042   2.011   7.978
 8816WAT     H126690   3.990   1.972   7.902
 8816WAT     H226691   4.119   2.063   7.942
 8817WAT      O26692   3.197   5.217   5.107
 8817WAT     H126693   3.278   5.234   5.163
 8817WAT     H226694   3.164   5.124   5.123
 8818WAT      O26695   0.330   3.826   7.981
 8818WAT     H126696   0.253   3.779   7.939
 8818WAT     H226697   0.414   3.805   7.931
 8819WAT      O26698   7.698   3.608   7.841
 8819WAT     H126699   7.690   3.693   7.894
 8819WAT     H226700   7.767   3.619   7.770
 8820WAT      O26701   3.416   5.625   2.762
 8820WAT     H126702   3.396   5.608   2.666
 8820WAT     H226703   3.499   5.681   2.769
 8821WAT      O26704   3.388   3.013   5.796
 8821WAT     H126705   3.486   2.995   5.790
 8821WAT     H226706   3.371   3.075   5.873
 8822WAT      O26707   0.097   9.120   2.809
 8822WAT     H126708   0.131   9.198   2.860
 8822WAT     H226709  -0.000   9.131   2.790
 8823WAT      O26710   4.320   1.855   2.400
 8823WAT     H126711   4.324   1.775   2.459
 8823WAT     H226712   4.242   1.912   2.426
 8824WAT      O26713   7.133   0.465   9.543
 8824WAT     H126714   7.190   0.541   9.572
 8824WAT     H226715   7.184   0.406   9.479
 8825WAT      O26716   2.543   8.210   9.465
 8825WAT     H126717   2.626   8.158   9.448
 8825WAT     H226718   2.541   8.240   9.560
 8826WAT      O26719   5.760   2.957   9.254
 8826WAT     H126720   5.772   3.047   9.213
 8826WAT     H226721   5.805   2.888   9.197
 8827WAT      O26722   1.943   9.236   9.474
 8827WAT     H126723   1.861   9.179   9.463
 8827WAT     H226724   1.980   9.224   9.566
 8828WAT      O26725   5.492   0.387   3.813
 8828WAT     H126726   5.509   0.296   3.852
 8828WAT     H226727   5.576   0.421   3.770
 8829WAT      O26728   8.286   8.643   0.815
 8829WAT     H126729   8.314   8.729   0.857
 8829WAT     H226730   8.342   8.624   0.735
 8830WAT      O26731   6.937   8.650   6.535
 8830WAT     H126732   6.977   8.677   6.623
 8830WAT     H226733   6.946   8.725   6.469
 8831WAT      O26734   0.023   0.071   1.283
 8831WAT     H126735  -0.011   0.160   1.312
 8831WAT     H226736   0.083   0.082   1.204
 8832WAT      O26737   2.199   3.744   5.855
 8832WAT     H126738   2.146   3.675   5.905
 8832WAT     H226739   2.248   3.701   5.779
 8833WAT      O26740   0.478   3.891   9.509
 8833WAT     H126741   0.401   3.946   9.541
 8833WAT     H226742   0.557   3.951   9.492
 8834WAT      O26743   6.605   6.727   3.103
 8834WAT     H126744   6.525   6.773   3.065
 8834WAT     H226745   6.576   6.659   3.170
 8835WAT      O26746   0.823   9.057   6.205
 8835WAT     H126747   0.803   9.063   6.107
 8835WAT     H226748   0.893   8.986   6.221
 8836WAT      O26749   1.027   1.614   2.404
 8836WAT     H126750   0.941   1.596   2.355
 8836WAT     H226751   1.074   1.527   2.420
 8837WAT      O26752   2.750   1.978   9.367
 8837WAT     H126753   2.815   2.053   9.377
 8837WAT     H226754   2.673   2.008   9.310
 8838WAT      O26755   2.288   8.909   7.597
 8838WAT     H126756   2.249   8.994   7.633
 8838WAT     H226757   2.276   8.836   7.665
 8839WAT      O26758   7.204   7.769   1.821
 8839WAT     H126759   7.260   7.693   1.789
 8839WAT     H226760   7.230   7.792   1.915
 8840WAT      O26761   5.307   0.079   9.797
 8840WAT     H126762   5.225   0.102   9.745
 8840WAT     H226763   5.319  -0.020   9.798
 8841WAT      O26764   2.358   1.667   6.620
 8841WAT     H126765   2.404   1.666   6.531
 8841WAT     H226766   2.333   1.761   6.644
 8842WAT      O26767   6.969   0.354   6.050
 8842WAT     H126768   7.019   0.287   6.105
 8842WAT     H226769   7.000   0.446   6.075
 8843WAT      O26770   7.810   6.970   5.640
 8843WAT     H126771   7.788   6.918   5.723
 8843WAT     H226772   7.870   6.916   5.581
 8844WAT      O26773   0.656   3.161   2.407
 8844WAT     H126774   0.648   3.071   2.364
 8844WAT     H226775   0.567   3.191   2.440
 8845WAT      O26776   8.075   5.828   4.740
 8845WAT     H126777   7.997   5.766   4.747
 8845WAT     H226778   8.135   5.815   4.819
 8846WAT      O26779   6.915   6.228   1.705
 8846WAT     H126780   6.936   6.149   1.649
 8846WAT     H226781   6.866   6.297   1.651
 8847WAT      O26782   2.579   3.394   5.621
 8847WAT     H126783   2.641   3.371   5.546
 8847WAT     H226784   2.534   3.311   5.653
 8848WAT      O26785   3.493   7.616   7.080
 8848WAT     H126786   3.508   7.682   7.006
 8848WAT     H226787   3.517   7.524   7.048
 8849WAT      O26788   2.150   2.810   8.604
 8849WAT     H126789   2.111   2.718   8.594
 8849WAT     H226790   2.142   2.859   8.517
 8850WAT      O26791   8.155   7.828   2.466
 8850WAT     H126792   8.218   7.870   2.532
 8850WAT     H226793   8.174   7.730   2.460
 8851WAT      O26794   1.823   0.921   0.192
 8851WAT     H126795   1.739   0.974   0.187
 8851WAT     H226796   1.815   0.853   0.266
 8852WAT      O26797   5.408   4.582   9.615
 8852WAT     H126798   5.420   4.486   9.590
 8852WAT     H226799   5.477   4.607   9.684
 8853WAT      O26800   8.707   5.929   3.644
 8853WAT     H126801   8.610   5.913   3.661
 8853WAT     H226802   8.761   5.874   3.709
 8854WAT      O26803   7.683   8.414   9.198
 8854WAT     H126804   7.653   8.346   9.131
 8854WAT     H226805   7.683   8.504   9.155
 8855WAT      O26806   9.618   4.085   6.608
 8855WAT     H126807   9.579   4.176   6.621
 8855WAT     H226808   9.695   4.073   6.671
 8856WAT      O26809   5.470   6.211   6.443
 8856WAT     H126810   5.421   6.211   6.356
 8856WAT     H226811   5.539   6.283   6.443
 8857WAT      O26812   8.474   7.632   0.515
 8857WAT     H126813   8.453   7.637   0.613
 8857WAT     H226814   8.400   7.584   0.468
 8858WAT      O26815   0.548   7.129   6.641
 8858WAT     H126816   0.595   7.183   6.710
 8858WAT     H226817   0.479   7.186   6.596
 8859WAT      O26818   9.521   1.448   4.810
 8859WAT     H126819   9.589   1.384   4.776
 8859WAT     H226820   9.567   1.522   4.859
 8860WAT      O26821   9.583   8.627   4.149
 8860WAT     H126822   9.579   8.658   4.244
 8860WAT     H226823   9.522   8.550   4.136
 8861WAT      O26824   8.217   4.743   9.279
 8861WAT     H126825   8.169   4.780   9.359
 8861WAT     H226826   8.311   4.722   9.303
 8862WAT      O26827   9.213   9.721   5.832
 8862WAT     H126828   9.176   9.814   5.834
 8862WAT     H226829   9.145   9.657   5.866
 8863WAT      O26830   4.511   5.235   9.794
 8863WAT     H126831   4.419   5.264   9.820
 8863WAT     H226832   4.524   5.139   9.818
 8864WAT      O26833   9.496   4.380   6.132
 8864WAT     H126834   9.563   4.437   6.084
 8864WAT     H226835   9.544   4.314   6.190
 8865WAT      O26836   0.218   7.473   8.189
 8865WAT     H126837   0.267   7.459   8.275
 8865WAT     H226838   0.247   7.559   8.148
 8866WAT      O26839   6.000   8.778   6.942
 8866WAT     H126840   6.038   8.714   6.875
 8866WAT     H226841   5.926   8.733   6.992
 8867WAT      O26842   5.666   6.123   8.914
 8867WAT     H126843   5.752   6.164   8.882
 8867WAT     H226844   5.660   6.028   8.883
 8868WAT      O26845   0.925   4.095   7.203
 8868WAT     H126846   0.936   4.058   7.111
 8868WAT     H226847   0.831   4.082   7.233
 8869WAT      O26848   8.571   6.989   3.009
 8869WAT     H126849   8.527   6.925   3.073
 8869WAT     H226850   8.558   7.082   3.042
 8870WAT      O26851   5.590   5.466   7.620
 8870WAT     H126852   5.568   5.428   7.709
 8870WAT     H226853   5.670   5.419   7.582
 8871WAT      O26854   2.404   0.470   0.929
 8871WAT     H126855   2.412   0.551   0.870
 8871WAT     H226856   2.385   0.390   0.874
 8872WAT      O26857   2.378   6.203   1.838
 8872WAT     H126858   2.409   6.108   1.830
 8872WAT     H226859   2.280   6.204   1.859
 8873WAT      O26860   1.003   2.499   0.239
 8873WAT     H126861   0.956   2.494   0.327
 8873WAT     H226862   1.001   2.593   0.205
 8874WAT      O26863   4.719   8.619   4.200
 8874WAT     H126864   4.731   8.661   4.289
 8874WAT     H226865   4.621   8.604   4.183
 8875WAT      O26866   5.437   8.077   9.405
 8875WAT     H126867   5.437   8.176   9.393
 8875WAT     H226868   5.357   8.037   9.359
 8876WAT      O26869   1.879   3.530   6.656
 8876WAT     H126870   1.880   3.430   6.658
 8876WAT     H226871   1.938   3.562   6.582
 8877WAT      O26872   3.763   7.427   2.293
 8877WAT     H126873   3.692   7.495   2.312
 8877WAT     H226874   3.760   7.401   2.197
 8878WAT      O26875   1.204   5.604   0.018
 8878WAT     H126876   1.188   5.544  -0.061
 8878WAT     H226877   1.300   5.596   0.046
 8879WAT      O26878   6.511   4.669   5.812
 8879WAT     H126879   6.546   4.747   5.760
 8879WAT     H226880   6.588   4.612   5.841
 8880WAT      O26881   5.605   7.720   6.632
 8880WAT     H126882   5.593   7.625   6.661
 8880WAT     H226883   5.572   7.782   6.703
 8881WAT      O26884   3.627   5.851   8.983
 8881WAT     H126885   3.547   5.808   8.940
 8881WAT     H226886   3.688   5.887   8.913
 8882WAT      O26887   5.734   2.241   3.098
 8882WAT     H126888   5.738   2.339   3.080
 8882WAT     H226889   5.812   2.195   3.055
 8883WAT      O26890   3.625   2.008   7.562
 8883WAT     H126891   3.649   1.916   7.530
 8883WAT     H226892   3.544   2.040   7.513
 8884WAT      O26893   5.595   1.270   5.172
 8884WAT     H126894   5.653   1.219   5.235
 8884WAT     H226895   5.620   1.367   5.174
 8885WAT      O26896   4.221   1.387   1.708
 8885WAT     H126897   4.182   1.434   1.787
 8885WAT     H226898   4.150   1.371   1.639
 8886WAT      O26899   9.597   2.885   6.095
 8886WAT     H126900   9.527   2.909   6.027
 8886WAT     H226901   9.676   2.945   6.084
 8887WAT      O26902   1.220   4.479   2.599
 8887WAT     H126903   1.265   4.407   2.652
 8887WAT     H226904   1.139   4.511   2.648
 8888WAT      O26905   7.439   3.258   6.188
 8888WAT     H126906   7.357   3.259   6.245
 8888WAT     H226907   7.414   3.243   6.093
 8889WAT      O26908   9.351   8.920   0.046
 8889WAT     H126909   9.295   8.839   0.065
 8889WAT     H226910   9.394   8.951   0.130
 8890WAT      O26911   9.293   6.151   7.061
 8890WAT     H126912   9.203   6.126   7.096
 8890WAT     H226913   9.295   6.249   7.041
 8891WAT      O26914   0.001   0.421   9.214
 8891WAT     H126915  -0.011   0.516   9.185
 8891WAT     H226916   0.080   0.382   9.166
 8892WAT      O26917   2.275   6.965   0.574
 8892WAT     H126918   2.227   6.878   0.578
 8892WAT     H226919   2.344   6.962   0.502
 8893WAT      O26920   9.452   6.517   4.235
 8893WAT     H126921   9.533   6.513   4.294
 8893WAT     H226922   9.480   6.542   4.142
 8894WAT      O26923   1.425   2.883   0.494
 8894WAT     H126924   1.496   2.849   0.556
 8894WAT     H226925   1.346   2.913   0.548
 8895WAT      O26926   6.212   1.294   6.134
 8895WAT     H126927   6.202   1.195   6.129
 8895WAT     H226928   6.140   1.338   6.081
 8896WAT      O26929   2.406   9.018   6.077
 8896WAT     H126930   2.327   9.061   6.033
 8896WAT     H226931   2.410   8.921   6.052
 8897WAT      O26932   2.109   5.085   9.247
 8897WAT     H126933   2.145   5.046   9.162
 8897WAT     H226934   2.116   5.017   9.321
 8898WAT      O26935   7.889   0.200   7.719
 8898WAT     H126936   7.912   0.265   7.792
 8898WAT     H226937   7.935   0.226   7.635
 8899WAT      O26938   4.456   0.878   3.320
 8899WAT     H126939   4.527   0.946   3.341
 8899WAT     H226940   4.436   0.880   3.222
 8900WAT      O26941   7.472   2.667   7.079
 8900WAT     H126942   7.509   2.575   7.070
 8900WAT     H226943   7.468   2.710   6.989
 8901WAT      O26944   3.860   5.056   4.826
 8901WAT     H126945   3.812   5.144   4.828
 8901WAT     H226946   3.794   4.982   4.820
 8902WAT      O26947   7.574   3.503   3.424
 8902WAT     H126948   7.581   3.596   3.388
 8902WAT     H226949   7.635   3.493   3.502
 8903WAT      O26950   2.449   7.073   7.874
 8903WAT     H126951   2.362   7.078   7.824
 8903WAT     H226952   2.491   6.984   7.860
 8904WAT      O26953   6.689   4.510   5.968
 8904WAT     H126954   6.634   4.429   5.988
 8904WAT     H226955   6.774   4.507   6.020
 8905WAT      O26956   8.284   6.312   6.485
 8905WAT     H126957   8.204   6.252   6.488
 8905WAT     H226958   8.254   6.405   6.464
 8906WAT      O26959   9.853   3.596   5.749
 8906WAT     H126960   9.852   3.630   5.843
 8906WAT     H226961   9.763   3.610   5.707
 8907WAT      O26962   0.624   5.856   6.383
 8907WAT     H126963   0.639   5.901   6.295
 8907WAT     H226964   0.581   5.767   6.368
 8908WAT      O26965   1.955   9.752   8.647
 8908WAT     H126966   1.974   9.831   8.706
 8908WAT     H226967   1.887   9.693   8.692
 8909WAT      O26968   2.676   3.689   1.878
 8909WAT     H126969   2.738   3.753   1.832
 8909WAT     H226970   2.620   3.643   1.809
 8910WAT      O26971   3.299   7.357   9.177
 8910WAT     H126972   3.262   7.422   9.112
 8910WAT     H226973   3.275   7.264   9.149
 8911WAT      O26974   9.780   3.703   1.886
 8911WAT     H126975   9.843   3.644   1.935
 8911WAT     H226976   9.808   3.798   1.896
 8912WAT      O26977   8.892   7.746   0.782
 8912WAT     H126978   8.878   7.844   0.768
 8912WAT     H226979   8.809   7.706   0.820
 8913WAT      O26980   1.251   0.885   7.228
 8913WAT     H126981   1.201   0.968   7.206
 8913WAT     H226982   1.188   0.808   7.235
 8914WAT      O26983   6.502   1.782   8.009
 8914WAT     H126984   6.475   1.869   8.051
 8914WAT     H226985   6.586   1.749   8.052
 8915WAT      O26986   3.349   8.832   6.621
 8915WAT     H126987   3.404   8.750   6.634
 8915WAT     H226988   3.388   8.887   6.547
 8916WAT      O26989   6.214   5.686   0.742
 8916WAT     H126990   6.222   5.676   0.841
 8916WAT     H226991   6.304   5.669   0.700
 8917WAT      O26992   2.308   3.179   8.847
 8917WAT     H126993   2.362   3.259   8.819
 8917WAT     H226994   2.338   3.149   8.938
 8918WAT      O26995   1.028   4.908  -0.003
 8918WAT     H126996   1.035   4.938   0.092
 8918WAT     H226997   1.105   4.849  -0.026
 8919WAT      O26998   0.622   7.680   4.464
 8919WAT     H126999   0.717   7.657   4.486
 8919WAT     H227000   0.591   7.754   4.524
 8920WAT      O27001   9.322   1.858   6.403
 8920WAT     H127002   9.340   1.794   6.478
 8920WAT     H227003   9.335   1.811   6.315
 8921WAT      O27004   8.777   8.295   2.376
 8921WAT     H127005   8.814   8.248   2.456
 8921WAT     H227006   8.696   8.246   2.343
 8922WAT      O27007   2.355   0.729   0.662
 8922WAT     H127008   2.354   0.788   0.582
 8922WAT     H227009   2.387   0.781   0.742
 8923WAT      O27010   0.797   3.361   5.086
 8923WAT     H127011   0.760   3.386   5.175
 8923WAT     H227012   0.764   3.426   5.017
 8924WAT      O27013   9.266   3.516   7.902
 8924WAT     H127014   9.349   3.461   7.906
 8924WAT     H227015   9.290   3.611   7.883
 8925WAT      O27016   5.507   2.027   9.350
 8925WAT     H127017   5.588   2.085   9.349
 8925WAT     H227018   5.535   1.932   9.363
 8926WAT      O27019   3.092   4.897   8.988
 8926WAT     H127020   3.180   4.867   8.952
 8926WAT     H227021   3.023   4.827   8.972
 8927WAT      O27022   9.508   8.705   5.246
 8927WAT     H127023   9.585   8.667   5.297
 8927WAT     H227024   9.427   8.647   5.259
 8928WAT      O27025   0.775   2.466   8.442
 8928WAT     H127026   0.768   2.521   8.359
 8928WAT     H227027   0.829   2.515   8.510
 8929WAT      O27028   2.211   1.582   5.233
 8929WAT     H127029   2.214   1.674   5.193
 8929WAT     H227030   2.287   1.528   5.198
 8930WAT      O27031   5.204   8.547   3.412
 8930WAT     H127032   5.220   8.642   3.437
 8930WAT     H227033   5.144   8.543   3.332
 8931WAT      O27034   0.761   1.699   8.348
 8931WAT     H127035   0.784   1.788   8.308
 8931WAT     H227036   0.668   1.702   8.385
 8932WAT      O27037   4.755   5.786   4.956
 8932WAT     H127038   4.842   5.743   4.981
 8932WAT     H227039   4.718   5.740   4.875
 8933WAT      O27040   2.233   4.319   8.180
 8933WAT     H127041   2.332   4.328   8.190
 8933WAT     H227042   2.212   4.267   8.097
 8934WAT      O27043   7.559   1.505   8.836
 8934WAT     H127044   7.571   1.479   8.740
 8934WAT     H227045   7.589   1.429   8.894
 8935WAT      O27046   7.914   1.324   1.610
 8935WAT     H127047   7.942   1.415   1.640
 8935WAT     H227048   7.816   1.324   1.591
 8936WAT      O27049   1.277   3.906   2.748
 8936WAT     H127050   1.326   3.986   2.714
 8936WAT     H227051   1.190   3.934   2.788
 8937WAT      O27052   3.023   5.282   0.595
 8937WAT     H127053   2.939   5.229   0.611
 8937WAT     H227054   3.074   5.242   0.520
 8938WAT      O27055   2.404   2.742   9.823
 8938WAT     H127056   2.421   2.759   9.726
 8938WAT     H227057   2.492   2.727   9.870
 8939WAT      O27058   8.834   8.605   2.624
 8939WAT     H127059   8.795   8.528   2.674
 8939WAT     H227060   8.806   8.691   2.667
 8940WAT      O27061   2.047   2.077   0.059
 8940WAT     H127062   2.072   2.166   0.099
 8940WAT     H227063   1.971   2.090  -0.004
 8941WAT      O27064   9.615   3.867   7.528
 8941WAT     H127065   9.572   3.919   7.455
 8941WAT     H227066   9.676   3.927   7.581
 8942WAT      O27067   9.523   3.239   3.365
 8942WAT     H127068   9.426   3.266   3.373
 8942WAT     H227069   9.531   3.165   3.299
 8943WAT      O27070   0.302   2.751   3.764
 8943WAT     H127071   0.205   2.727   3.760
 8943WAT     H227072   0.351   2.705   3.690
 8944WAT      O27073   1.354   7.445   3.718
 8944WAT     H127074   1.271   7.412   3.762
 8944WAT     H227075   1.433   7.426   3.777
 8945WAT      O27076   8.779   7.723   2.129
 8945WAT     H127077   8.817   7.815   2.121
 8945WAT     H227078   8.832   7.661   2.071
 8946WAT      O27079   7.983   3.324   2.233
 8946WAT     H127080   8.037   3.370   2.163
 8946WAT     H227081   7.888   3.357   2.229
 8947WAT      O27082   7.165   6.442   8.559
 8947WAT     H127083   7.151   6.449   8.658
 8947WAT     H227084   7.119   6.517   8.513
 8948WAT      O27085   8.956   2.696   0.705
 8948WAT     H127086   8.938   2.711   0.608
 8948WAT     H227087   9.030   2.756   0.735
 8949WAT      O27088   6.300   1.679   9.353
 8949WAT     H127089   6.234   1.725   9.293
 8949WAT     H227090   6.268   1.683   9.448
 8950WAT      O27091   1.560   8.187   3.299
 8950WAT     H127092   1.529   8.279   3.277
 8950WAT     H227093   1.625   8.191   3.375
 8951WAT      O27094   0.505   3.776   3.948
 8951WAT     H127095   0.424   3.796   4.002
 8951WAT     H227096   0.516   3.845   3.876
 8952WAT      O27097   1.451   0.296   0.666
 8952WAT     H127098   1.437   0.202   0.697
 8952WAT     H227099   1.541   0.303   0.622
 8953WAT      O27100   4.458   5.197   0.509
 8953WAT     H127101   4.501   5.107   0.497
 8953WAT     H227102   4.359   5.186   0.518
 8954WAT      O27103   3.978   7.868   3.100
 8954WAT     H127104   3.963   7.769   3.109
 8954WAT     H227105   4.032   7.886   3.019
 8955WAT      O27106   8.924   4.042   4.238
 8955WAT     H127107   8.867   4.123   4.250
 8955WAT     H227108   9.000   4.063   4.177
 8956WAT      O27109   9.602   0.522   2.070
 8956WAT     H127110   9.631   0.541   2.164
 8956WAT     H227111   9.615   0.604   2.015
 8957WAT      O27112   6.149   3.770   3.437
 8957WAT     H127113   6.105   3.855   3.464
 8957WAT     H227114   6.223   3.748   3.501
 8958WAT      O27115   3.296   4.232   6.129
 8958WAT     H127116   3.209   4.260   6.169
 8958WAT     H227117   3.292   4.136   6.104
 8959WAT      O27118   0.585   8.248   0.720
 8959WAT     H127119   0.563   8.210   0.630
 8959WAT     H227120   0.624   8.339   0.710
 8960WAT      O27121   8.306   8.375   0.439
 8960WAT     H127122   8.221   8.421   0.412
 8960WAT     H227123   8.296   8.277   0.427
 8961WAT      O27124   4.996   6.662   8.697
 8961WAT     H127125   4.927   6.726   8.731
 8961WAT     H227126   4.997   6.580   8.755
 8962WAT      O27127   9.846   6.523   4.051
 8962WAT     H127128   9.753   6.521   4.086
 8962WAT     H227129   9.908   6.485   4.119
 8963WAT      O27130   0.427   7.379   3.997
 8963WAT     H127131   0.376   7.334   3.924
 8963WAT     H227132   0.450   7.312   4.068
 8964WAT      O27133   9.348   8.321   5.297
 8964WAT     H127134   9.307   8.412   5.291
 8964WAT     H227135   9.436   8.328   5.345
 8965WAT      O27136   7.469   8.891   2.118
 8965WAT     H127137   7.551   8.905   2.174
 8965WAT     H227138   7.429   8.802   2.139
 8966WAT      O27139   3.564   9.375   4.097
 8966WAT     H127140   3.497   9.405   4.030
 8966WAT     H227141   3.631   9.448   4.112
 8967WAT      O27142   7.476   1.692   3.212
 8967WAT     H127143   7.528   1.607   3.201
 8967WAT     H227144   7.455   1.730   3.122
 8968WAT      O27145   0.480   1.567   8.108
 8968WAT     H127146   0.386   1.601   8.119
 8968WAT     H227147   0.542   1.644   8.092
 8969WAT      O27148   5.887   2.567   5.134
 8969WAT     H127149   5.849   2.607   5.050
 8969WAT     H227150   5.934   2.638   5.187
 8970WAT      O27151   7.155   2.184   7.719
 8970WAT     H127152   7.115   2.125   7.649
 8970WAT     H227153   7.161   2.133   7.805
 8971WAT      O27154   0.972   0.630   4.353
 8971WAT     H127155   0.920   0.715   4.344
 8971WAT     H227156   0.953   0.571   4.275
 8972WAT      O27157   9.402   5.006   8.657
 8972WAT     H127158   9.339   4.958   8.718
 8972WAT     H227159   9.355   5.083   8.614
 8973WAT      O27160   5.713   3.181   3.807
 8973WAT     H127161   5.722   3.174   3.906
 8973WAT     H227162   5.670   3.269   3.783
 8974WAT      O27163   8.930   7.392   3.596
 8974WAT     H127164   8.877   7.430   3.520
 8974WAT     H227165   9.018   7.359   3.562
 8975WAT      O27166   3.537   8.170   7.830
 8975WAT     H127167   3.632   8.152   7.807
 8975WAT     H227168   3.518   8.268   7.818
 8976WAT      O27169   3.977   1.876   2.874
 8976WAT     H127170   3.970   1.785   2.915
 8976WAT     H227171   3.989   1.944   2.947
 8977WAT      O27172   6.866   1.487   7.283
 8977WAT     H127173   6.787   1.548   7.286
 8977WAT     H227174   6.851   1.410   7.345
 8978WAT      O27175   1.349   7.865   5.606
 8978WAT     H127176   1.352   7.796   5.679
 8978WAT     H227177   1.398   7.947   5.636
 8979WAT      O27178   5.188   4.208   3.832
 8979WAT     H127179   5.150   4.179   3.920
 8979WAT     H227180   5.259   4.277   3.847
 8980WAT      O27181   0.918   4.804   4.742
 8980WAT     H127182   0.818   4.803   4.748
 8980WAT     H227183   0.947   4.746   4.665
 8981WAT      O27184   2.588   2.316   7.819
 8981WAT     H127185   2.508   2.374   7.801
 8981WAT     H227186   2.557   2.228   7.855
 8982WAT      O27187   8.679   6.627   1.094
 8982WAT     H127188   8.616   6.598   1.021
 8982WAT     H227189   8.773   6.615   1.064
 8983WAT      O27190   0.279   5.856   7.495
 8983WAT     H127191   0.218   5.831   7.420
 8983WAT     H227192   0.334   5.777   7.522
 8984WAT      O27193   3.170   5.761   3.807
 8984WAT     H127194   3.090   5.703   3.822
 8984WAT     H227195   3.153   5.852   3.843
 8985WAT      O27196   8.043   8.018   5.010
 8985WAT     H127197   8.085   7.928   5.004
 8985WAT     H227198   8.075   8.065   5.092
 8986WAT      O27199   0.307   2.908   6.567
 8986WAT     H127200   0.299   3.003   6.537
 8986WAT     H227201   0.225   2.881   6.617
 8987WAT      O27202   1.253   5.324   5.736
 8987WAT     H127203   1.186   5.300   5.807
 8987WAT     H227204   1.205   5.344   5.651
 8988WAT      O27205   0.385   2.933   0.402
 8988WAT     H127206   0.399   2.889   0.491
 8988WAT     H227207   0.358   2.865   0.335
 8989WAT      O27208   4.068   1.984   1.873
 8989WAT     H127209   4.061   1.906   1.811
 8989WAT     H227210   4.087   1.952   1.966
 8990WAT      O27211   6.059   8.087   0.978
 8990WAT     H127212   5.973   8.124   0.943
 8990WAT     H227213   6.046   7.991   1.004
 8991WAT      O27214   8.507   4.391   2.108
 8991WAT     H127215   8.410   4.411   2.091
 8991WAT     H227216   8.546   4.346   2.027
 8992WAT      O27217   0.051   7.058   1.671
 8992WAT     H127218   0.093   7.034   1.583
 8992WAT     H227219   0.123   7.064   1.741
 8993WAT      O27220   9.562   7.118   2.823
 8993WAT     H127221   9.559   7.019   2.840
 8993WAT     H227222   9.591   7.134   2.729
 8994WAT      O27223   2.082   3.712   7.357
 8994WAT     H127224   2.038   3.791   7.313
 8994WAT     H227225   2.154   3.744   7.419
 8995WAT      O27226   4.004   9.573   1.214
 8995WAT     H127227   3.972   9.520   1.135
 8995WAT     H227228   3.927   9.619   1.257
 8996WAT      O27229   6.204   6.758   3.222
 8996WAT     H127230   6.266   6.837   3.216
 8996WAT     H227231   6.152   6.750   3.137
 8997WAT      O27232   3.225   7.705   8.387
 8997WAT     H127233   3.148   7.727   8.327
 8997WAT     H227234   3.215   7.611   8.421
 8998WAT      O27235   4.184   6.348   0.033
 8998WAT     H127236   4.276   6.387   0.035
 8998WAT     H227237   4.117   6.421   0.045
 8999WAT      O27238   9.692   4.380   3.828
 8999WAT     H127239   9.704   4.450   3.757
 8999WAT     H227240   9.662   4.424   3.913
 9000WAT      O27241   5.907   8.207   3.749
 9000WAT     H127242   5.855   8.166   3.674
 9000WAT     H227243   5.845   8.230   3.824
 9001WAT      O27244   1.645   1.664   6.287
 9001WAT     H127245   1.726   1.670   6.228
 9001WAT     H227246   1.611   1.570   6.289
 9002WAT      O27247   2.997   3.179   3.435
 9002WAT     H127248   2.910   3.131   3.445
 9002WAT     H227249   3.067   3.114   3.403
 9003WAT      O27250   1.146   0.804   6.015
 9003WAT     H127251   1.125   0.707   6.026
 9003WAT     H227252   1.099   0.840   5.935
 9004WAT      O27253   3.328   6.948   0.481
 9004WAT     H127254   3.251   6.974   0.422
 9004WAT     H227255   3.348   7.022   0.544
 9005WAT      O27256   5.243   5.813   1.750
 9005WAT     H127257   5.209   5.755   1.676
 9005WAT     H227258   5.166   5.861   1.793
 9006WAT      O27259   2.044   7.855   2.542
 9006WAT     H127260   2.100   7.774   2.523
 9006WAT     H227261   2.062   7.887   2.635
 9007WAT      O27262   9.287   8.856   5.402
 9007WAT     H127263   9.352   8.856   5.478
 9007WAT     H227264   9.313   8.785   5.336
 9008WAT      O27265   1.579   0.927   9.619
 9008WAT     H127266   1.539   1.007   9.576
 9008WAT     H227267   1.549   0.922   9.714
 9009WAT      O27268   0.797   3.083   2.060
 9009WAT     H127269   0.767   3.179   2.054
 9009WAT     H227270   0.798   3.043   1.968
 9010WAT      O27271   9.331   8.817   4.060
 9010WAT     H127272   9.399   8.747   4.041
 9010WAT     H227273   9.260   8.815   3.990
 9011WAT      O27274   8.474   9.642   1.431
 9011WAT     H127275   8.528   9.694   1.364
 9011WAT     H227276   8.480   9.545   1.410
 9012WAT      O27277   0.755   8.584   8.065
 9012WAT     H127278   0.784   8.499   8.110
 9012WAT     H227279   0.659   8.602   8.087
 9013WAT      O27280   0.605   0.870   1.625
 9013WAT     H127281   0.511   0.897   1.645
 9013WAT     H227282   0.610   0.772   1.609
 9014WAT      O27283   1.522   9.320   9.288
 9014WAT     H127284   1.487   9.320   9.381
 9014WAT     H227285   1.478   9.392   9.235
 9015WAT      O27286   0.634   4.642   0.357
 9015WAT     H127287   0.639   4.738   0.384
 9015WAT     H227288   0.716   4.618   0.305
 9016WAT      O27289   6.613   1.810   4.591
 9016WAT     H127290   6.682   1.738   4.586
 9016WAT     H227291   6.545   1.795   4.519
 9017WAT      O27292   8.388   3.100   2.406
 9017WAT     H127293   8.397   3.115   2.307
 9017WAT     H227294   8.323   3.166   2.443
 9018WAT      O27295   9.070   8.502   5.026
 9018WAT     H127296   8.996   8.567   5.007
 9018WAT     H227297   9.116   8.479   4.940
 9019WAT      O27298   7.807   4.972   9.742
 9019WAT     H127299   7.784   5.056   9.791
 9019WAT     H227300   7.734   4.905   9.754
 9020WAT      O27301   2.791   4.257   9.171
 9020WAT     H127302   2.780   4.288   9.266
 9020WAT     H227303   2.888   4.258   9.147
 9021WAT      O27304   8.280   4.035   4.454
 9021WAT     H127305   8.276   4.111   4.519
 9021WAT     H227306   8.191   4.025   4.409
 9022WAT      O27307   6.387   1.394   4.258
 9022WAT     H127308   6.468   1.342   4.285
 9022WAT     H227309   6.350   1.442   4.338
 9023WAT      O27310   7.291   3.173   7.624
 9023WAT     H127311   7.368   3.115   7.601
 9023WAT     H227312   7.241   3.134   7.701
 9024WAT      O27313   1.919   5.906   2.789
 9024WAT     H127314   1.985   5.848   2.740
 9024WAT     H227315   1.827   5.884   2.757
 9025WAT      O27316   7.134   2.782   3.061
 9025WAT     H127317   7.215   2.782   3.002
 9025WAT     H227318   7.150   2.842   3.139
 9026WAT      O27319   5.688   7.384   8.350
 9026WAT     H127320   5.682   7.451   8.424
 9026WAT     H227321   5.625   7.308   8.369
 9027WAT      O27322   6.389   4.030   6.644
 9027WAT     H127323   6.358   4.101   6.581
 9027WAT     H227324   6.400   4.069   6.735
 9028WAT      O27325   7.397   0.723   9.120
 9028WAT     H127326   7.459   0.780   9.174
 9028WAT     H227327   7.353   0.657   9.180
 9029WAT      O27328   5.837   0.283   6.397
 9029WAT     H127329   5.808   0.188   6.404
 9029WAT     H227330   5.907   0.291   6.325
 9030WAT      O27331   4.741   1.543   8.342
 9030WAT     H127332   4.698   1.479   8.405
 9030WAT     H227333   4.724   1.514   8.248
 9031WAT      O27334   0.509   6.882   7.235
 9031WAT     H127335   0.435   6.909   7.296
 9031WAT     H227336   0.538   6.962   7.181
 9032WAT      O27337   3.171   0.218   8.855
 9032WAT     H127338   3.092   0.279   8.851
 9032WAT     H227339   3.251   0.264   8.818
 9033WAT      O27340   7.451   1.281   9.268
 9033WAT     H127341   7.479   1.259   9.361
 9033WAT     H227342   7.388   1.211   9.234
 9034WAT      O27343   7.258   7.957   4.633
 9034WAT     H127344   7.162   7.975   4.653
 9034WAT     H227345   7.307   8.043   4.622
 9035WAT      O27346   0.860   8.527   4.329
 9035WAT     H127347   0.803   8.607   4.307
 9035WAT     H227348   0.938   8.524   4.267
 9036WAT      O27349   6.483   6.393   1.480
 9036WAT     H127350   6.498   6.426   1.574
 9036WAT     H227351   6.386   6.400   1.458
 9037WAT      O27352   6.810   1.389   6.078
 9037WAT     H127353   6.727   1.370   6.026
 9037WAT     H227354   6.871   1.448   6.024
 9038WAT      O27355   0.367   8.324   7.977
 9038WAT     H127356   0.332   8.388   8.045
 9038WAT     H227357   0.462   8.300   8.000
 9039WAT      O27358   8.785   5.580   9.358
 9039WAT     H127359   8.831   5.493   9.342
 9039WAT     H227360   8.687   5.565   9.369
 9040WAT      O27361   5.977   0.490   5.718
 9040WAT     H127362   6.058   0.437   5.693
 9040WAT     H227363   5.954   0.472   5.814
 9041WAT      O27364   8.770   1.721   4.297
 9041WAT     H127365   8.813   1.642   4.341
 9041WAT     H227366   8.787   1.803   4.351
 9042WAT      O27367   0.176   3.518   7.762
 9042WAT     H127368   0.106   3.588   7.767
 9042WAT     H227369   0.230   3.531   7.679
 9043WAT      O27370   7.897   2.598   8.596
 9043WAT     H127371   7.981   2.652   8.605
 9043WAT     H227372   7.883   2.574   8.500
 9044WAT      O27373   7.981   6.552   9.044
 9044WAT     H127374   8.016   6.639   9.078
 9044WAT     H227375   8.039   6.477   9.076
 9045WAT      O27376   4.843   4.401   0.936
 9045WAT     H127377   4.855   4.500   0.943
 9045WAT     H227378   4.827   4.376   0.841
 9046WAT      O27379   5.267   1.491   5.898
 9046WAT     H127380   5.247   1.573   5.952
 9046WAT     H227381   5.292   1.518   5.805
 9047WAT      O27382   7.838   2.836   1.272
 9047WAT     H127383   7.741   2.853   1.251
 9047WAT     H227384   7.845   2.756   1.331
 9048WAT      O27385   1.428   0.752   7.999
 9048WAT     H127386   1.445   0.665   7.951
 9048WAT     H227387   1.432   0.827   7.933
 9049WAT      O27388   7.526   2.150   3.948
 9049WAT     H127389   7.426   2.145   3.950
 9049WAT     H227390   7.562   2.068   3.902
 9050WAT      O27391   6.379   3.449   3.221
 9050WAT     H127392   6.303   3.507   3.193
 9050WAT     H227393   6.404   3.470   3.315
 9051WAT      O27394   5.710   2.339   4.137
 9051WAT     H127395   5.619   2.381   4.133
 9051WAT     H227396   5.779   2.411   4.135
 9052WAT      O27397   7.830   2.618   1.447
 9052WAT     H127398   7.863   2.534   1.403
 9052WAT     H227399   7.744   2.598   1.495
 9053WAT      O27400   8.264   7.083   0.734
 9053WAT     H127401   8.306   6.994   0.754
 9053WAT     H227402   8.176   7.088   0.781
 9054WAT      O27403   7.375   5.439   3.864
 9054WAT     H127404   7.357   5.340   3.860
 9054WAT     H227405   7.367   5.471   3.958
 9055WAT      O27406   3.855   9.113   8.252
 9055WAT     H127407   3.783   9.182   8.244
 9055WAT     H227408   3.943   9.154   8.228
 9056WAT      O27409   1.064   5.818   9.508
 9056WAT     H127410   1.020   5.738   9.469
 9056WAT     H227411   1.155   5.793   9.542
 9057WAT      O27412   6.080   0.265   3.361
 9057WAT     H127413   6.106   0.190   3.300
 9057WAT     H227414   6.012   0.323   3.316
 9058WAT      O27415   0.904   9.774   3.199
 9058WAT     H127416   0.929   9.856   3.249
 9058WAT     H227417   0.805   9.772   3.185
 9059WAT      O27418   1.149   2.624   9.079
 9059WAT     H127419   1.156   2.618   9.178
 9059WAT     H227420   1.209   2.555   9.037
 9060WAT      O27421   1.059   1.792   8.002
 9060WAT     H127422   0.974   1.775   8.051
 9060WAT     H227423   1.129   1.824   8.067
 9061WAT      O27424   6.835   8.728   6.125
 9061WAT     H127425   6.868   8.798   6.189
 9061WAT     H227426   6.900   8.653   6.121
 9062WAT      O27427   3.992   9.586   3.790
 9062WAT     H127428   3.918   9.523   3.811
 9062WAT     H227429   4.057   9.587   3.866
 9063WAT      O27430   4.125   9.344   4.192
 9063WAT     H127431   4.053   9.297   4.243
 9063WAT     H227432   4.211   9.337   4.242
 9064WAT      O27433   0.160   4.268   0.903
 9064WAT     H127434   0.154   4.195   0.835
 9064WAT     H227435   0.239   4.251   0.962
 9065WAT      O27436   8.939   0.696   7.766
 9065WAT     H127437   8.939   0.749   7.681
 9065WAT     H227438   8.962   0.757   7.842
 9066WAT      O27439   9.027   6.041   7.145
 9066WAT     H127440   8.972   6.102   7.088
 9066WAT     H227441   8.972   6.007   7.221
 9067WAT      O27442   9.361   1.863   6.833
 9067WAT     H127443   9.268   1.863   6.870
 9067WAT     H227444   9.371   1.789   6.767
 9068WAT      O27445   6.096   0.540   7.105
 9068WAT     H127446   6.056   0.581   7.187
 9068WAT     H227447   6.173   0.596   7.074
 9069WAT      O27448   3.314   9.153   6.402
 9069WAT     H127449   3.231   9.142   6.457
 9069WAT     H227450   3.309   9.240   6.352
 9070WAT      O27451   7.409   0.984   3.343
 9070WAT     H127452   7.348   1.037   3.401
 9070WAT     H227453   7.496   0.969   3.390
 9071WAT      O27454   9.719   5.133   0.932
 9071WAT     H127455   9.751   5.059   0.873
 9071WAT     H227456   9.732   5.220   0.886
 9072WAT      O27457   6.654   5.907   8.941
 9072WAT     H127458   6.750   5.879   8.942
 9072WAT     H227459   6.646   5.994   8.893
 9073WAT      O27460   7.226   1.283   4.397
 9073WAT     H127461   7.263   1.357   4.453
 9073WAT     H227462   7.298   1.216   4.379
 9074WAT      O27463   8.105   0.168   0.472
 9074WAT     H127464   8.111   0.236   0.398
 9074WAT     H227465   8.026   0.109   0.456
 9075WAT      O27466   0.690   1.736   2.743
 9075WAT     H127467   0.695   1.769   2.837
 9075WAT     H227468   0.780   1.703   2.714
 9076WAT      O27469   7.296   0.430   7.318
 9076WAT     H127470   7.294   0.411   7.416
 9076WAT     H227471   7.205   0.460   7.288
 9077WAT      O27472   2.981   4.183   4.099
 9077WAT     H127473   2.899   4.166   4.044
 9077WAT     H227474   3.062   4.152   4.050
 9078WAT      O27475   6.123   2.588   8.387
 9078WAT     H127476   6.165   2.498   8.387
 9078WAT     H227477   6.149   2.638   8.304
 9079WAT      O27478   6.240   3.311   1.867
 9079WAT     H127479   6.166   3.337   1.929
 9079WAT     H227480   6.280   3.224   1.898
 9080WAT      O27481   8.046   1.457   0.082
 9080WAT     H127482   8.041   1.538   0.025
 9080WAT     H227483   8.007   1.379   0.033
 9081WAT      O27484   1.645   4.000   9.317
 9081WAT     H127485   1.637   4.086   9.367
 9081WAT     H227486   1.689   4.018   9.228
 9082WAT      O27487   5.213   0.778   7.382
 9082WAT     H127488   5.268   0.798   7.463
 9082WAT     H227489   5.273   0.771   7.302
 9083WAT      O27490   6.262   9.138   5.929
 9083WAT     H127491   6.334   9.070   5.940
 9083WAT     H227492   6.297   9.216   5.878
 9084WAT      O27493   8.227   4.202   3.722
 9084WAT     H127494   8.243   4.236   3.814
 9084WAT     H227495   8.133   4.167   3.715
 9085WAT      O27496   3.153   3.156   4.273
 9085WAT     H127497   3.249   3.128   4.272
 9085WAT     H227498   3.132   3.209   4.191
 9086WAT      O27499   2.570   5.351   0.459
 9086WAT     H127500   2.635   5.392   0.522
 9086WAT     H227501   2.494   5.415   0.443
 9087WAT      O27502   1.754   4.144   7.011
 9087WAT     H127503   1.842   4.184   6.986
 9087WAT     H227504   1.744   4.054   6.967
 9088WAT      O27505   1.209   2.987   1.090
 9088WAT     H127506   1.304   2.962   1.074
 9088WAT     H227507   1.154   2.965   1.009
 9089WAT      O27508   3.984   0.185   4.245
 9089WAT     H127509   3.905   0.132   4.276
 9089WAT     H227510   3.968   0.282   4.265
 9090WAT      O27511   9.683   7.416   9.224
 9090WAT     H127512   9.677   7.386   9.319
 9090WAT     H227513   9.779   7.431   9.200
 9091WAT      O27514   1.834   1.409   7.520
 9091WAT     H127515   1.761   1.407   7.451
 9091WAT     H227516   1.921   1.426   7.474
 9092WAT      O27517   0.324   7.422   8.440
 9092WAT     H127518   0.378   7.497   8.477
 9092WAT     H227519   0.385   7.350   8.406
 9093WAT      O27520   8.222   7.881   8.156
 9093WAT     H127521   8.184   7.875   8.064
 9093WAT     H227522   8.221   7.976   8.187
 9094WAT      O27523   9.558   7.113   2.548
 9094WAT     H127524   9.578   7.208   2.523
 9094WAT     H227525   9.545   7.059   2.465
 9095WAT      O27526   1.096   5.025   7.922
 9095WAT     H127527   1.041   5.026   7.838
 9095WAT     H227528   1.186   4.985   7.902
 9096WAT      O27529   0.832   0.279   3.927
 9096WAT     H127530   0.853   0.219   4.005
 9096WAT     H227531   0.738   0.311   3.934
 9097WAT      O27532   9.848   6.541   6.527
 9097WAT     H127533   9.884   6.496   6.609
 9097WAT     H227534   9.897   6.507   6.446
 9098WAT      O27535   9.347   4.624   8.768
 9098WAT     H127536   9.298   4.575   8.697
 9098WAT     H227537   9.324   4.721   8.764
 9099WAT      O27538   4.911   6.788   6.299
 9099WAT     H127539   4.841   6.737   6.350
 9099WAT     H227540   5.001   6.748   6.316
 9100WAT      O27541   8.127   1.406   6.849
 9100WAT     H127542   8.152   1.315   6.883
 9100WAT     H227543   8.203   1.469   6.866
 9101WAT      O27544   8.625   6.171   0.732
 9101WAT     H127545   8.721   6.145   0.719
 9101WAT     H227546   8.618   6.271   0.734
 9102WAT      O27547   5.568   6.362   6.962
 9102WAT     H127548   5.632   6.301   6.915
 9102WAT     H227549   5.581   6.354   7.061
 9103WAT      O27550   2.024   6.474   7.228
 9103WAT     H127551   1.965   6.408   7.274
 9103WAT     H227552   2.014   6.464   7.129
 9104WAT      O27553   6.349   2.494   7.409
 9104WAT     H127554   6.271   2.439   7.436
 9104WAT     H227555   6.422   2.484   7.477
 9105WAT      O27556   9.298   9.283   5.279
 9105WAT     H127557   9.202   9.294   5.254
 9105WAT     H227558   9.345   9.371   5.274
 9106WAT      O27559   4.191   9.406   6.970
 9106WAT     H127560   4.165   9.359   6.885
 9106WAT     H227561   4.259   9.351   7.018
 9107WAT      O27562   3.936   4.866   1.373
 9107WAT     H127563   4.029   4.873   1.408
 9107WAT     H227564   3.940   4.834   1.278
 9108WAT      O27565   9.834   8.196   3.766
 9108WAT     H127566   9.746   8.174   3.807
 9108WAT     H227567   9.896   8.119   3.778
 9109WAT      O27568   5.316   8.469   7.752
 9109WAT     H127569   5.268   8.414   7.684
 9109WAT     H227570   5.331   8.414   7.835
 9110WAT      O27571   5.986   1.309   2.134
 9110WAT     H127572   6.018   1.311   2.229
 9110WAT     H227573   5.955   1.217   2.112
 9111WAT      O27574   6.919   1.587   1.624
 9111WAT     H127575   6.888   1.544   1.539
 9111WAT     H227576   6.880   1.538   1.702
 9112WAT      O27577   9.002   7.103   0.946
 9112WAT     H127578   8.952   7.136   1.026
 9112WAT     H227579   9.039   7.012   0.965
 9113WAT      O27580   6.224   6.588   9.434
 9113WAT     H127581   6.150   6.652   9.452
 9113WAT     H227582   6.308   6.620   9.477
 9114WAT      O27583   6.548   3.871   5.285
 9114WAT     H127584   6.466   3.816   5.301
 9114WAT     H227585   6.589   3.897   5.373
 9115WAT      O27586   6.062   6.154   0.537
 9115WAT     H127587   6.097   6.087   0.603
 9115WAT     H227588   6.118   6.152   0.454
 9116WAT      O27589   8.998   3.105   5.426
 9116WAT     H127590   8.996   3.159   5.342
 9116WAT     H227591   9.039   3.015   5.408
 9117WAT      O27592   2.801   3.011   6.064
 9117WAT     H127593   2.791   3.111   6.060
 9117WAT     H227594   2.879   2.988   6.123
 9118WAT      O27595   9.744   1.570   8.126
 9118WAT     H127596   9.839   1.586   8.154
 9118WAT     H227597   9.682   1.603   8.197
 9119WAT      O27598   5.721   1.856   0.284
 9119WAT     H127599   5.724   1.905   0.371
 9119WAT     H227600   5.789   1.894   0.222
 9120WAT      O27601   3.217   0.882   4.196
 9120WAT     H127602   3.210   0.880   4.296
 9120WAT     H227603   3.250   0.972   4.167
 9121WAT      O27604   2.448   4.999   2.777
 9121WAT     H127605   2.514   5.011   2.851
 9121WAT     H227606   2.441   4.902   2.753
 9122WAT      O27607   9.602   0.717   8.584
 9122WAT     H127608   9.666   0.791   8.605
 9122WAT     H227609   9.523   0.755   8.534
 9123WAT      O27610   3.121   5.877   1.779
 9123WAT     H127611   3.103   5.876   1.681
 9123WAT     H227612   3.202   5.933   1.797
 9124WAT      O27613   9.654   2.626   7.094
 9124WAT     H127614   9.592   2.638   7.171
 9124WAT     H227615   9.630   2.543   7.044
 9125WAT      O27616   0.257   9.765   1.367
 9125WAT     H127617   0.185   9.834   1.365
 9125WAT     H227618   0.343   9.807   1.397
 9126WAT      O27619   0.194   3.656   1.075
 9126WAT     H127620   0.179   3.647   1.174
 9126WAT     H227621   0.283   3.697   1.058
 9127WAT      O27622   2.816   0.400   2.732
 9127WAT     H127623   2.833   0.457   2.813
 9127WAT     H227624   2.903   0.364   2.699
 9128WAT      O27625   6.549   1.519   8.254
 9128WAT     H127626   6.459   1.513   8.211
 9128WAT     H227627   6.596   1.431   8.245
 9129WAT      O27628   4.426   7.393   8.273
 9129WAT     H127629   4.481   7.310   8.286
 9129WAT     H227630   4.471   7.470   8.319
 9130WAT      O27631   7.244   0.468   4.488
 9130WAT     H127632   7.200   0.555   4.466
 9130WAT     H227633   7.175   0.402   4.515
 9131WAT      O27634   0.436   4.375   3.727
 9131WAT     H127635   0.406   4.469   3.711
 9131WAT     H227636   0.363   4.312   3.700
 9132WAT      O27637   8.061   0.264   1.751
 9132WAT     H127638   8.074   0.210   1.835
 9132WAT     H227639   8.049   0.202   1.673
 9133WAT      O27640   4.067   9.428   2.624
 9133WAT     H127641   3.990   9.458   2.568
 9133WAT     H227642   4.042   9.344   2.671
 9134WAT      O27643   8.819   6.562   7.380
 9134WAT     H127644   8.838   6.496   7.307
 9134WAT     H227645   8.750   6.526   7.441
 9135WAT      O27646   8.591   8.846   3.455
 9135WAT     H127647   8.650   8.774   3.491
 9135WAT     H227648   8.543   8.813   3.374
 9136WAT      O27649   9.076   1.176   4.599
 9136WAT     H127650   9.126   1.250   4.643
 9136WAT     H227651   9.135   1.132   4.531
 9137WAT      O27652   3.114   2.237   2.590
 9137WAT     H127653   3.069   2.290   2.519
 9137WAT     H227654   3.205   2.275   2.608
 9138WAT      O27655   9.386   2.834   6.929
 9138WAT     H127656   9.463   2.798   6.876
 9138WAT     H227657   9.301   2.819   6.879
 9139WAT      O27658   6.517   0.610   9.572
 9139WAT     H127659   6.449   0.537   9.565
 9139WAT     H227660   6.573   0.612   9.489
 9140WAT      O27661   0.404   0.803   2.593
 9140WAT     H127662   0.429   0.734   2.526
 9140WAT     H227663   0.447   0.890   2.569
 9141WAT      O27664   1.369   5.159   9.227
 9141WAT     H127665   1.277   5.130   9.253
 9141WAT     H227666   1.434   5.137   9.299
 9142WAT      O27667   7.911   8.132   4.485
 9142WAT     H127668   7.954   8.097   4.568
 9142WAT     H227669   7.838   8.069   4.456
 9143WAT      O27670   7.534   2.124   3.607
 9143WAT     H127671   7.441   2.090   3.625
 9143WAT     H227672   7.566   2.088   3.519
 9144WAT      O27673   3.042   3.566   9.688
 9144WAT     H127674   3.060   3.602   9.780
 9144WAT     H227675   2.943   3.553   9.677
 9145WAT      O27676   8.348   4.280   5.162
 9145WAT     H127677   8.346   4.247   5.068
 9145WAT     H227678   8.369   4.377   5.163
 9146WAT      O27679   6.624   3.291   3.766
 9146WAT     H127680   6.532   3.301   3.805
 9146WAT     H227681   6.645   3.370   3.708
 9147WAT      O27682   4.313   6.188   0.499
 9147WAT     H127683   4.302   6.155   0.592
 9147WAT     H227684   4.347   6.282   0.500
 9148WAT      O27685   6.635   4.149   1.465
 9148WAT     H127686   6.611   4.245   1.481
 9148WAT     H227687   6.726   4.131   1.502
 9149WAT      O27688   1.570   3.630   1.041
 9149WAT     H127689   1.660   3.669   1.024
 9149WAT     H227690   1.501   3.702   1.038
 9150WAT      O27691   7.809   2.487   4.745
 9150WAT     H127692   7.719   2.444   4.751
 9150WAT     H227693   7.859   2.473   4.830
 9151WAT      O27694   5.233   5.918   7.277
 9151WAT     H127695   5.253   5.902   7.373
 9151WAT     H227696   5.258   5.838   7.223
 9152WAT      O27697   4.753   1.141   4.325
 9152WAT     H127698   4.673   1.131   4.383
 9152WAT     H227699   4.774   1.053   4.281
 9153WAT      O27700   8.236   6.584   9.747
 9153WAT     H127701   8.301   6.545   9.681
 9153WAT     H227702   8.143   6.561   9.720
 9154WAT      O27703   2.755   1.679   6.543
 9154WAT     H127704   2.800   1.768   6.541
 9154WAT     H227705   2.702   1.667   6.459
 9155WAT      O27706   6.624   4.361   1.199
 9155WAT     H127707   6.613   4.433   1.267
 9155WAT     H227708   6.710   4.375   1.149
 9156WAT      O27709   6.549   8.848   5.654
 9156WAT     H127710   6.508   8.763   5.620
 9156WAT     H227711   6.648   8.837   5.660
 9157WAT      O27712   2.669   0.125   4.983
 9157WAT     H127713   2.570   0.129   4.991
 9157WAT     H227714   2.695   0.127   4.887
 9158WAT      O27715   1.190   2.647   8.639
 9158WAT     H127716   1.131   2.704   8.695
 9158WAT     H227717   1.136   2.603   8.567
 9159WAT      O27718   7.569   4.149   5.237
 9159WAT     H127719   7.593   4.199   5.153
 9159WAT     H227720   7.485   4.187   5.276
 9160WAT      O27721   9.557   1.907   5.545
 9160WAT     H127722   9.509   1.991   5.568
 9160WAT     H227723   9.595   1.915   5.452
 9161WAT      O27724   3.369   9.346   4.292
 9161WAT     H127725   3.384   9.339   4.391
 9161WAT     H227726   3.452   9.319   4.244
 9162WAT      O27727   2.076   5.831   4.686
 9162WAT     H127728   2.004   5.764   4.668
 9162WAT     H227729   2.037   5.923   4.687
 9163WAT      O27730   1.676   8.008   4.710
 9163WAT     H127731   1.597   7.953   4.737
 9163WAT     H227732   1.754   7.984   4.767
 9164WAT      O27733   7.325   1.039   1.356
 9164WAT     H127734   7.318   0.992   1.444
 9164WAT     H227735   7.285   1.131   1.363
 9165WAT      O27736   3.393   8.879   4.476
 9165WAT     H127737   3.300   8.915   4.481
 9165WAT     H227738   3.448   8.936   4.415
 9166WAT      O27739   3.210   1.849   8.110
 9166WAT     H127740   3.165   1.827   8.023
 9166WAT     H227741   3.170   1.932   8.148
 9167WAT      O27742   0.630   3.002   5.119
 9167WAT     H127743   0.541   3.011   5.074
 9167WAT     H227744   0.667   2.910   5.103
 9168WAT      O27745   1.275   1.616   9.429
 9168WAT     H127746   1.305   1.712   9.428
 9168WAT     H227747   1.182   1.610   9.392
 9169WAT      O27748   1.819   2.080   8.797
 9169WAT     H127749   1.905   2.038   8.770
 9169WAT     H227750   1.760   2.011   8.840
 9170WAT      O27751   6.657   2.025   0.184
 9170WAT     H127752   6.687   1.947   0.239
 9170WAT     H227753   6.557   2.033   0.190
 9171WAT      O27754   9.253   3.374   6.277
 9171WAT     H127755   9.192   3.295   6.288
 9171WAT     H227756   9.200   3.458   6.286
 9172WAT      O27757   5.595   0.481   9.585
 9172WAT     H127758   5.514   0.539   9.579
 9172WAT     H227759   5.567   0.385   9.582
 9173WAT      O27760   8.909   4.391   8.607
 9173WAT     H127761   8.887   4.458   8.678
 9173WAT     H227762   8.901   4.435   8.517
 9174WAT      O27763   5.366   2.416   2.518
 9174WAT     H127764   5.357   2.316   2.514
 9174WAT     H227765   5.284   2.455   2.558
 9175WAT      O27766   0.249   2.083   3.973
 9175WAT     H127767   0.170   2.027   3.998
 9175WAT     H227768   0.238   2.174   4.012
 9176WAT      O27769   8.668   3.538   9.407
 9176WAT     H127770   8.750   3.572   9.362
 9176WAT     H227771   8.590   3.594   9.379
 9177WAT      O27772   9.456   3.017   1.324
 9177WAT     H127773   9.479   2.930   1.366
 9177WAT     H227774   9.468   3.091   1.391
 9178WAT      O27775   7.377   2.414   7.459
 9178WAT     H127776   7.476   2.427   7.462
 9178WAT     H227777   7.354   2.348   7.387
 9179WAT      O27778   1.931   4.437   6.133
 9179WAT     H127779   1.943   4.352   6.184
 9179WAT     H227780   1.842   4.476   6.153
 9180WAT      O27781   1.956   9.146   4.412
 9180WAT     H127782   1.978   9.241   4.436
 9180WAT     H227783   1.932   9.141   4.315
 9181WAT      O27784   7.005   0.517   1.148
 9181WAT     H127785   6.913   0.510   1.108
 9181WAT     H227786   7.046   0.426   1.153
 9182WAT      O27787   1.658   6.342   8.353
 9182WAT     H127788   1.606   6.296   8.425
 9182WAT     H227789   1.605   6.338   8.268
 9183WAT      O27790   3.780   4.395   2.060
 9183WAT     H127791   3.784   4.470   1.994
 9183WAT     H227792   3.870   4.384   2.103
 9184WAT      O27793   5.700   6.472   4.377
 9184WAT     H127794   5.621   6.421   4.342
 9184WAT     H227795   5.776   6.409   4.393
 9185WAT      O27796   9.511   5.880   3.761
 9185WAT     H127797   9.542   5.786   3.779
 9185WAT     H227798   9.448   5.881   3.684
 9186WAT      O27799   2.918   9.695   5.686
 9186WAT     H127800   2.898   9.787   5.651
 9186WAT     H227801   2.835   9.640   5.684
 9187WAT      O27802   0.359   8.065   2.542
 9187WAT     H127803   0.340   8.147   2.597
 9187WAT     H227804   0.357   7.984   2.601
 9188WAT      O27805   9.525   9.030   3.822
 9188WAT     H127806   9.515   9.024   3.921
 9188WAT     H227807   9.440   9.066   3.782
 9189WAT      O27808   3.738   6.911   3.699
 9189WAT     H127809   3.708   6.996   3.743
 9189WAT     H227810   3.704   6.909   3.606
 9190WAT      O27811   6.549   0.480   8.335
 9190WAT     H127812   6.595   0.546   8.277
 9190WAT     H227813   6.612   0.447   8.406
 9191WAT      O27814   7.119   0.297   5.623
 9191WAT     H127815   7.081   0.372   5.676
 9191WAT     H227816   7.046   0.236   5.593
 9192WAT      O27817   9.022   3.939   7.903
 9192WAT     H127818   8.983   3.858   7.858
 9192WAT     H227819   8.960   4.016   7.893
 9193WAT      O27820   8.039   6.089   1.497
 9193WAT     H127821   8.007   6.004   1.540
 9193WAT     H227822   8.105   6.134   1.558
 9194WAT      O27823   1.283   5.457   7.023
 9194WAT     H127824   1.250   5.512   6.946
 9194WAT     H227825   1.274   5.510   7.107
 9195WAT      O27826   5.630   8.801   3.112
 9195WAT     H127827   5.546   8.822   3.162
 9195WAT     H227828   5.664   8.712   3.141
 9196WAT      O27829   7.624   7.452   4.988
 9196WAT     H127830   7.640   7.375   4.927
 9196WAT     H227831   7.528   7.481   4.980
 9197WAT      O27832   0.516   6.361   8.157
 9197WAT     H127833   0.474   6.437   8.207
 9197WAT     H227834   0.614   6.359   8.176
 9198WAT      O27835   8.621   3.981   2.360
 9198WAT     H127836   8.651   3.908   2.421
 9198WAT     H227837   8.619   3.946   2.266
 9199WAT      O27838   2.133   6.000   0.757
 9199WAT     H127839   2.205   5.931   0.765
 9199WAT     H227840   2.053   5.971   0.810
 9200WAT      O27841   5.587   0.565   6.267
 9200WAT     H127842   5.588   0.598   6.362
 9200WAT     H227843   5.629   0.633   6.208
 9201WAT      O27844   5.905   7.900   4.543
 9201WAT     H127845   5.985   7.956   4.520
 9201WAT     H227846   5.930   7.833   4.612
 9202WAT      O27847   7.949   4.333   3.898
 9202WAT     H127848   8.042   4.305   3.922
 9202WAT     H227849   7.951   4.391   3.817
 9203WAT      O27850   7.750   0.292   2.387
 9203WAT     H127851   7.768   0.391   2.380
 9203WAT     H227852   7.735   0.268   2.483
 9204WAT      O27853   9.542   3.862   1.686
 9204WAT     H127854   9.583   3.900   1.603
 9204WAT     H227855   9.612   3.818   1.742
 9205WAT      O27856   4.798   2.159   6.535
 9205WAT     H127857   4.834   2.240   6.581
 9205WAT     H227858   4.711   2.133   6.577
 9206WAT      O27859   3.727   5.402   0.097
 9206WAT     H127860   3.795   5.475   0.107
 9206WAT     H227861   3.741   5.355   0.010
 9207WAT      O27862   0.793   1.458   2.862
 9207WAT     H127863   0.886   1.449   2.898
 9207WAT     H227864   0.789   1.421   2.770
 9208WAT      O27865   8.340   0.981   2.374
 9208WAT     H127866   8.408   1.047   2.407
 9208WAT     H227867   8.385   0.897   2.346
 9209WAT      O27868   2.513   9.246   7.972
 9209WAT     H127869   2.454   9.294   8.037
 9209WAT     H227870   2.607   9.246   8.005
 9210WAT      O27871   3.003   7.871   2.266
 9210WAT     H127872   3.100   7.887   2.250
 9210WAT     H227873   2.987   7.773   2.278
 9211WAT      O27874   4.864   9.228   0.290
 9211WAT     H127875   4.816   9.193   0.210
 9211WAT     H227876   4.803   9.289   0.342
 9212WAT      O27877   2.230   4.038   8.775
 9212WAT     H127878   2.263   4.117   8.827
 9212WAT     H227879   2.292   4.019   8.699
 9213WAT      O27880   2.481   5.644   5.198
 9213WAT     H127881   2.429   5.687   5.124
 9213WAT     H227882   2.429   5.567   5.235
 9214WAT      O27883   7.053   0.627   6.081
 9214WAT     H127884   6.971   0.668   6.122
 9214WAT     H227885   7.092   0.689   6.013
 9215WAT      O27886   7.010   7.916   3.588
 9215WAT     H127887   6.929   7.969   3.563
 9215WAT     H227888   7.001   7.824   3.552
 9216WAT      O27889   2.726   0.111   0.091
 9216WAT     H127890   2.660   0.082   0.161
 9216WAT     H227891   2.707   0.063   0.006
 9217WAT      O27892   3.761   7.544   5.240
 9217WAT     H127893   3.678   7.559   5.187
 9217WAT     H227894   3.738   7.542   5.337
 9218WAT      O27895   9.830   3.974   1.842
 9218WAT     H127896   9.855   4.025   1.760
 9218WAT     H227897   9.769   4.030   1.899
 9219WAT      O27898   6.060   3.237   6.564
 9219WAT     H127899   6.114   3.231   6.648
 9219WAT     H227900   5.963   3.243   6.586
 9220WAT      O27901   6.929   9.568   0.730
 9220WAT     H127902   6.990   9.640   0.698
 9220WAT     H227903   6.977   9.509   0.795
 9221WAT      O27904   7.761   3.085   3.388
 9221WAT     H127905   7.847   3.050   3.424
 9221WAT     H227906   7.718   3.016   3.331
 9222WAT      O27907   5.369   7.806   3.051
 9222WAT     H127908   5.275   7.810   3.082
 9222WAT     H227909   5.397   7.711   3.038
 9223WAT      O27910   8.227   7.990   1.161
 9223WAT     H127911   8.129   7.975   1.169
 9223WAT     H227912   8.243   8.079   1.117
 9224WAT      O27913   1.678   3.785   1.508
 9224WAT     H127914   1.724   3.698   1.520
 9224WAT     H227915   1.726   3.856   1.559
 9225WAT      O27916   7.456   3.798   9.463
 9225WAT     H127917   7.519   3.722   9.477
 9225WAT     H227918   7.478   3.844   9.376
 9226WAT      O27919   2.442   0.176   2.820
 9226WAT     H127920   2.365   0.125   2.782
 9226WAT     H227921   2.527   0.143   2.779
 9227WAT      O27922   7.820   3.665   1.058
 9227WAT     H127923   7.889   3.713   1.004
 9227WAT     H227924   7.806   3.573   1.020
 9228WAT      O27925   9.821   8.470   3.745
 9228WAT     H127926   9.913   8.508   3.744
 9228WAT     H227927   9.826   8.372   3.763
 9229WAT      O27928   3.979   2.116   5.554
 9229WAT     H127929   3.939   2.052   5.487
 9229WAT     H227930   3.906   2.152   5.612
 9230WAT      O27931   4.444   8.431   5.027
 9230WAT     H127932   4.456   8.461   5.122
 9230WAT     H227933   4.519   8.371   5.001
 9231WAT      O27934   2.035   6.863   2.539
 9231WAT     H127935   2.104   6.795   2.515
 9231WAT     H227936   1.980   6.830   2.616
 9232WAT      O27937   8.968   0.265   6.233
 9232WAT     H127938   9.066   0.270   6.252
 9232WAT     H227939   8.917   0.318   6.300
 9233WAT      O27940   4.655   2.146   5.809
 9233WAT     H127941   4.751   2.171   5.807
 9233WAT     H227942   4.624   2.124   5.716
 9234WAT      O27943   9.181   7.984   5.564
 9234WAT     H127944   9.214   8.078   5.560
 9234WAT     H227945   9.258   7.923   5.584
 9235WAT      O27946   0.999   4.427   8.352
 9235WAT     H127947   0.903   4.419   8.326
 9235WAT     H227948   1.027   4.523   8.344
 9236WAT      O27949   2.417   3.936   5.528
 9236WAT     H127950   2.375   3.857   5.484
 9236WAT     H227951   2.511   3.914   5.554
 9237WAT      O27952   3.916   8.513   3.802
 9237WAT     H127953   3.852   8.439   3.782
 9237WAT     H227954   3.937   8.513   3.900
 9238WAT      O27955   7.861   5.772   6.321
 9238WAT     H127956   7.899   5.763   6.413
 9238WAT     H227957   7.885   5.861   6.283
 9239WAT      O27958   9.119   0.813   3.364
 9239WAT     H127959   9.052   0.878   3.327
 9239WAT     H227960   9.111   0.812   3.464
 9240WAT      O27961   7.808   4.450   0.258
 9240WAT     H127962   7.722   4.442   0.207
 9240WAT     H227963   7.869   4.376   0.231
 9241WAT      O27964   8.419   0.991   6.051
 9241WAT     H127965   8.420   0.897   6.084
 9241WAT     H227966   8.326   1.028   6.058
 9242WAT      O27967   1.834   2.927   9.262
 9242WAT     H127968   1.907   2.912   9.195
 9242WAT     H227969   1.873   2.966   9.346
 9243WAT      O27970   4.364   6.879   6.958
 9243WAT     H127971   4.385   6.943   6.884
 9243WAT     H227972   4.444   6.821   6.976
 9244WAT      O27973   4.823   9.328   9.142
 9244WAT     H127974   4.878   9.318   9.059
 9244WAT     H227975   4.859   9.267   9.213
 9245WAT      O27976   3.548   4.810   2.690
 9245WAT     H127977   3.502   4.883   2.741
 9245WAT     H227978   3.515   4.722   2.722
 9246WAT      O27979   1.602   6.499   1.188
 9246WAT     H127980   1.640   6.582   1.147
 9246WAT     H227981   1.509   6.516   1.218
 9247WAT      O27982   3.509   3.602   4.346
 9247WAT     H127983   3.507   3.674   4.416
 9247WAT     H227984   3.543   3.517   4.387
 9248WAT      O27985   0.783   4.143   5.898
 9248WAT     H127986   0.850   4.072   5.917
 9248WAT     H227987   0.751   4.183   5.984
 9249WAT      O27988   7.475   9.111   5.139
 9249WAT     H127989   7.501   9.015   5.139
 9249WAT     H227990   7.508   9.155   5.222
 9250WAT      O27991   8.695   7.414   8.310
 9250WAT     H127992   8.733   7.467   8.235
 9250WAT     H227993   8.729   7.449   8.397
 9251WAT      O27994   3.520   3.426   6.243
 9251WAT     H127995   3.604   3.375   6.262
 9251WAT     H227996   3.448   3.399   6.307
 9252WAT      O27997   5.830   5.613   9.530
 9252WAT     H127998   5.821   5.549   9.606
 9252WAT     H227999   5.904   5.584   9.470
 9253WAT      O28000   4.099   4.381   0.381
 9253WAT     H128001   4.068   4.475   0.374
 9253WAT     H228002   4.022   4.323   0.409
 9254WAT      O28003   2.007   5.059   6.028
 9254WAT     H128004   2.014   5.040   6.126
 9254WAT     H228005   2.075   5.128   6.002
 9255WAT      O28006   3.719   0.744   3.242
 9255WAT     H128007   3.795   0.798   3.204
 9255WAT     H228008   3.755   0.681   3.311
 9256WAT      O28009   7.675   6.934   7.299
 9256WAT     H128010   7.624   6.857   7.338
 9256WAT     H228011   7.772   6.910   7.294
 9257WAT      O28012   5.061   7.267   1.967
 9257WAT     H128013   5.146   7.283   2.016
 9257WAT     H228014   5.079   7.261   1.869
 9258WAT      O28015   9.080   2.110   5.948
 9258WAT     H128016   9.060   2.013   5.934
 9258WAT     H228017   9.008   2.152   6.002
 9259WAT      O28018   0.246   8.864   8.460
 9259WAT     H128019   0.234   8.766   8.448
 9259WAT     H228020   0.178   8.913   8.406
 9260WAT      O28021   5.565   2.766   8.187
 9260WAT     H128022   5.497   2.712   8.136
 9260WAT     H228023   5.556   2.747   8.285
 9261WAT      O28024   5.491   0.394   7.877
 9261WAT     H128025   5.574   0.341   7.862
 9261WAT     H228026   5.411   0.333   7.876
 9262WAT      O28027   4.065   9.049   2.990
 9262WAT     H128028   4.151   9.069   3.037
 9262WAT     H228029   3.989   9.051   3.056
 9263WAT      O28030   6.642   1.115   3.940
 9263WAT     H128031   6.659   1.068   4.027
 9263WAT     H228032   6.634   1.046   3.867
 9264WAT      O28033   7.672   9.670   0.742
 9264WAT     H128034   7.590   9.663   0.799
 9264WAT     H228035   7.682   9.587   0.688
 9265WAT      O28036   1.969   9.350   3.556
 9265WAT     H128037   1.920   9.281   3.610
 9265WAT     H228038   2.017   9.305   3.481
 9266WAT      O28039   7.040   1.018   9.827
 9266WAT     H128040   7.005   0.928   9.801
 9266WAT     H228041   6.965   1.073   9.866
 9267WAT      O28042   6.057   5.938   9.122
 9267WAT     H128043   6.024   5.903   9.034
 9267WAT     H228044   6.148   5.977   9.110
 9268WAT      O28045   3.747   0.062   4.391
 9268WAT     H128046   3.680   0.069   4.317
 9268WAT     H228047   3.707   0.011   4.467
 9269WAT      O28048   9.031   5.692   4.667
 9269WAT     H128049   9.000   5.753   4.739
 9269WAT     H228050   8.955   5.668   4.607
 9270WAT      O28051   0.899   5.671   7.866
 9270WAT     H128052   0.953   5.604   7.816
 9270WAT     H228053   0.955   5.751   7.886
 9271WAT      O28054   1.881   2.106   4.530
 9271WAT     H128055   1.965   2.123   4.582
 9271WAT     H228056   1.896   2.033   4.464
 9272WAT      O28057   1.153   4.538   1.724
 9272WAT     H128058   1.107   4.586   1.649
 9272WAT     H228059   1.122   4.574   1.811
 9273WAT      O28060   0.773   5.824   0.473
 9273WAT     H128061   0.843   5.876   0.425
 9273WAT     H228062   0.809   5.793   0.562
 9274WAT      O28063   2.706   5.334   0.958
 9274WAT     H128064   2.663   5.422   0.939
 9274WAT     H228065   2.790   5.325   0.904
 9275WAT      O28066   4.808   8.073   6.189
 9275WAT     H128067   4.745   7.998   6.171
 9275WAT     H228068   4.789   8.149   6.126
 9276WAT      O28069   7.917   5.549   4.184
 9276WAT     H128070   7.911   5.450   4.194
 9276WAT     H228071   8.013   5.577   4.195
 9277WAT      O28072   4.056   4.626   4.977
 9277WAT     H128073   4.144   4.675   4.979
 9277WAT     H228074   4.054   4.566   4.897
 9278WAT      O28075   3.804   8.942   5.679
 9278WAT     H128076   3.717   8.906   5.647
 9278WAT     H228077   3.843   8.881   5.748
 9279WAT      O28078   2.400   0.511   5.834
 9279WAT     H128079   2.304   0.517   5.862
 9279WAT     H228080   2.443   0.600   5.848
 9280WAT      O28081   7.700   8.850   4.055
 9280WAT     H128082   7.680   8.762   4.099
 9280WAT     H228083   7.745   8.834   3.967
 9281WAT      O28084   6.042   8.274   7.313
 9281WAT     H128085   6.055   8.271   7.412
 9281WAT     H228086   6.016   8.366   7.285
 9282WAT      O28087   6.443   9.466   4.106
 9282WAT     H128088   6.464   9.372   4.081
 9282WAT     H228089   6.505   9.496   4.179
 9283WAT      O28090   8.115   8.899   6.419
 9283WAT     H128091   8.167   8.921   6.501
 9283WAT     H228092   8.147   8.812   6.381
 9284WAT      O28093   2.315   4.423   6.350
 9284WAT     H128094   2.239   4.486   6.333
 9284WAT     H228095   2.384   4.468   6.408
 9285WAT      O28096   6.520   8.385   5.036
 9285WAT     H128097   6.438   8.361   4.985
 9285WAT     H228098   6.501   8.463   5.095
 9286WAT      O28099   2.182   0.798   6.959
 9286WAT     H128100   2.170   0.745   6.875
 9286WAT     H228101   2.271   0.775   7.000
 9287WAT      O28102   2.527   9.416   3.101
 9287WAT     H128103   2.592   9.439   3.174
 9287WAT     H228104   2.546   9.325   3.066
 9288WAT      O28105   8.762   7.997   7.119
 9288WAT     H128106   8.758   7.924   7.188
 9288WAT     H228107   8.710   8.076   7.152
 9289WAT      O28108   3.146   9.191   6.165
 9289WAT     H128109   3.115   9.100   6.191
 9289WAT     H228110   3.186   9.188   6.073
 9290WAT      O28111   3.925   8.902   6.269
 9290WAT     H128112   3.894   8.810   6.294
 9290WAT     H228113   3.851   8.952   6.224
 9291WAT      O28114   6.801   6.514   8.502
 9291WAT     H128115   6.811   6.605   8.542
 9291WAT     H228116   6.827   6.517   8.405
 9292WAT      O28117   1.890   9.528   9.658
 9292WAT     H128118   1.830   9.538   9.579
 9292WAT     H228119   1.835   9.509   9.740
 9293WAT      O28120   3.153   3.549   6.986
 9293WAT     H128121   3.131   3.615   6.913
 9293WAT     H228122   3.229   3.584   7.040
 9294WAT      O28123   1.184   7.887   8.169
 9294WAT     H128124   1.206   7.984   8.164
 9294WAT     H228125   1.129   7.860   8.090
 9295WAT      O28126   3.453   5.547   8.480
 9295WAT     H128127   3.416   5.639   8.487
 9295WAT     H228128   3.431   5.495   8.562
 9296WAT      O28129   4.200   5.115   5.142
 9296WAT     H128130   4.165   5.071   5.059
 9296WAT     H228131   4.214   5.213   5.124
 9297WAT      O28132   2.865   5.758   8.478
 9297WAT     H128133   2.946   5.791   8.526
 9297WAT     H228134   2.798   5.724   8.544
 9298WAT      O28135   7.473   0.149   2.352
 9298WAT     H128136   7.401   0.200   2.399
 9298WAT     H228137   7.561   0.194   2.366
 9299WAT      O28138   6.655   9.385   8.412
 9299WAT     H128139   6.631   9.428   8.499
 9299WAT     H228140   6.578   9.331   8.379
 9300WAT      O28141   7.120   8.000   4.040
 9300WAT     H128142   7.162   7.989   3.950
 9300WAT     H228143   7.026   8.033   4.030
 9301WAT      O28144   2.743   0.603   6.476
 9301WAT     H128145   2.727   0.694   6.516
 9301WAT     H228146   2.822   0.561   6.522
 9302WAT      O28147   8.488   8.221   8.068
 9302WAT     H128148   8.517   8.296   8.128
 9302WAT     H228149   8.399   8.186   8.099
 9303WAT      O28150   2.431   9.796   8.709
 9303WAT     H128151   2.459   9.872   8.650
 9303WAT     H228152   2.362   9.741   8.662
 9304WAT      O28153   6.660   8.301   6.006
 9304WAT     H128154   6.741   8.319   6.062
 9304WAT     H228155   6.663   8.359   5.924
 9305WAT      O28156   6.351   0.767   7.608
 9305WAT     H128157   6.409   0.771   7.690
 9305WAT     H228158   6.408   0.748   7.528
 9306WAT      O28159   3.167   6.047   5.566
 9306WAT     H128160   3.215   5.962   5.589
 9306WAT     H228161   3.211   6.124   5.612
 9307WAT      O28162   2.116   1.074   7.066
 9307WAT     H128163   2.029   1.110   7.033
 9307WAT     H228164   2.134   0.986   7.022
 9308WAT      O28165   6.531   0.356   6.116
 9308WAT     H128166   6.564   0.269   6.080
 9308WAT     H228167   6.519   0.348   6.215
 9309WAT      O28168   6.331   3.842   9.815
 9309WAT     H128169   6.292   3.780   9.883
 9309WAT     H228170   6.278   3.836   9.730
 9310WAT      O28171   5.739   1.192   2.957
 9310WAT     H128172   5.807   1.256   2.920
 9310WAT     H228173   5.658   1.191   2.899
 9311WAT      O28174   3.789   7.836   9.255
 9311WAT     H128175   3.885   7.807   9.257
 9311WAT     H228176   3.737   7.783   9.321
 9312WAT      O28177   6.788   9.249   5.387
 9312WAT     H128178   6.763   9.205   5.301
 9312WAT     H228179   6.765   9.188   5.463
 9313WAT      O28180   0.613   5.367   7.960
 9313WAT     H128181   0.681   5.435   7.987
 9313WAT     H228182   0.637   5.330   7.871
 9314WAT      O28183   4.521   3.405   3.535
 9314WAT     H128184   4.599   3.371   3.481
 9314WAT     H228185   4.483   3.486   3.491
 9315WAT      O28186   5.075   1.493   4.230
 9315WAT     H128187   4.981   1.462   4.240
 9315WAT     H228188   5.110   1.464   4.140
 9316WAT      O28189   6.178   9.801   6.367
 9316WAT     H128190   6.255   9.765   6.314
 9316WAT     H228191   6.203   9.804   6.464
 9317WAT      O28192   0.300   1.800   7.019
 9317WAT     H128193   0.256   1.871   6.965
 9317WAT     H228194   0.363   1.843   7.085
 9318WAT      O28195   8.683   8.308   4.437
 9318WAT     H128196   8.760   8.278   4.494
 9318WAT     H228197   8.664   8.238   4.368
 9319WAT      O28198   4.295   2.124   7.947
 9319WAT     H128199   4.356   2.162   7.878
 9319WAT     H228200   4.251   2.199   7.997
 9320WAT      O28201   7.398   9.198   2.316
 9320WAT     H128202   7.426   9.106   2.288
 9320WAT     H228203   7.423   9.263   2.244
 9321WAT      O28204   5.438   9.824   5.502
 9321WAT     H128205   5.359   9.877   5.470
 9321WAT     H228206   5.407   9.751   5.563
 9322WAT      O28207   7.175   7.714   6.692
 9322WAT     H128208   7.201   7.752   6.603
 9322WAT     H228209   7.128   7.626   6.678
 9323WAT      O28210   9.565   9.361   0.302
 9323WAT     H128211   9.526   9.391   0.215
 9323WAT     H228212   9.537   9.424   0.375
 9324WAT      O28213   2.576   3.639   3.681
 9324WAT     H128214   2.585   3.555   3.734
 9324WAT     H228215   2.666   3.671   3.652
 9325WAT      O28216   2.270   0.014   1.132
 9325WAT     H128217   2.229   0.101   1.158
 9325WAT     H228218   2.213  -0.061   1.167
 9326WAT      O28219   6.665   7.633   6.373
 9326WAT     H128220   6.645   7.704   6.305
 9326WAT     H228221   6.734   7.666   6.437
 9327WAT      O28222   5.424   3.834   1.584
 9327WAT     H128223   5.372   3.780   1.649
 9327WAT     H228224   5.429   3.786   1.496
 9328WAT      O28225   4.279   6.195   9.042
 9328WAT     H128226   4.357   6.137   9.062
 9328WAT     H228227   4.289   6.233   8.950
 9329WAT      O28228   6.652   6.296   8.173
 9329WAT     H128229   6.653   6.357   8.094
 9329WAT     H228230   6.588   6.221   8.158
 9330WAT      O28231   7.803   7.116   7.970
 9330WAT     H128232   7.799   7.122   8.070
 9330WAT     H228233   7.710   7.106   7.934
 9331WAT      O28234   0.110   6.835   4.781
 9331WAT     H128235   0.049   6.795   4.713
 9331WAT     H228236   0.068   6.829   4.871
 9332WAT      O28237   4.872   0.211   7.651
 9332WAT     H128238   4.846   0.209   7.748
 9332WAT     H228239   4.931   0.134   7.631
 9333WAT      O28240   8.681   1.606   3.582
 9333WAT     H128241   8.713   1.701   3.578
 9333WAT     H228242   8.733   1.556   3.651
 9334WAT      O28243   7.951   2.712   0.677
 9334WAT     H128244   7.950   2.812   0.679
 9334WAT     H228245   7.914   2.680   0.590
 9335WAT      O28246   9.019   7.933   0.033
 9335WAT     H128247   8.987   7.976  -0.052
 9335WAT     H228248   9.073   7.999   0.085
 9336WAT      O28249   8.010   3.390   0.231
 9336WAT     H128250   7.913   3.373   0.250
 9336WAT     H228251   8.038   3.474   0.277
 9337WAT      O28252   4.425   2.982   7.979
 9337WAT     H128253   4.434   3.075   8.014
 9337WAT     H228254   4.333   2.948   7.999
 9338WAT      O28255   0.322   2.933   4.436
 9338WAT     H128256   0.420   2.953   4.435
 9338WAT     H228257   0.303   2.858   4.373
 9339WAT      O28258   2.715   2.158   4.514
 9339WAT     H128259   2.680   2.244   4.475
 9339WAT     H228260   2.689   2.082   4.455
 9340WAT      O28261   8.818   8.433   9.366
 9340WAT     H128262   8.847   8.500   9.434
 9340WAT     H228263   8.843   8.341   9.396
 9341WAT      O28264   2.226   2.520   2.451
 9341WAT     H128265   2.304   2.582   2.454
 9341WAT     H228266   2.239   2.446   2.517
 9342WAT      O28267   4.245   3.069   5.297
 9342WAT     H128268   4.229   3.165   5.321
 9342WAT     H228269   4.342   3.049   5.307
 9343WAT      O28270   1.349   3.619   3.644
 9343WAT     H128271   1.408   3.669   3.581
 9343WAT     H228272   1.404   3.579   3.718
 9344WAT      O28273   1.481   4.991   7.470
 9344WAT     H128274   1.405   5.013   7.408
 9344WAT     H228275   1.563   5.039   7.439
 9345WAT      O28276   3.570   0.315   7.485
 9345WAT     H128277   3.536   0.266   7.405
 9345WAT     H228278   3.631   0.256   7.538
 9346WAT      O28279   9.552   9.715   7.744
 9346WAT     H128280   9.644   9.676   7.737
 9346WAT     H228281   9.537   9.779   7.668
 9347WAT      O28282   3.734   5.856   1.528
 9347WAT     H128283   3.682   5.888   1.448
 9347WAT     H228284   3.723   5.757   1.537
 9348WAT      O28285   4.938   4.572   7.988
 9348WAT     H128286   4.962   4.557   8.084
 9348WAT     H228287   4.921   4.670   7.973
 9349WAT      O28288   2.712   3.413   1.340
 9349WAT     H128289   2.652   3.335   1.356
 9349WAT     H228290   2.713   3.436   1.243
 9350WAT      O28291   5.010   8.555   6.223
 9350WAT     H128292   4.926   8.551   6.278
 9350WAT     H228293   5.067   8.476   6.245
 9351WAT      O28294   8.008   1.758   8.694
 9351WAT     H128295   7.923   1.715   8.724
 9351WAT     H228296   8.047   1.811   8.770
 9352WAT      O28297   2.715   0.446   7.984
 9352WAT     H128298   2.805   0.433   7.942
 9352WAT     H228299   2.643   0.432   7.916
 9353WAT      O28300   1.693   3.295   8.315
 9353WAT     H128301   1.615   3.247   8.275
 9353WAT     H228302   1.754   3.326   8.241
 9354WAT      O28303   8.232   0.920   3.907
 9354WAT     H128304   8.255   0.980   3.830
 9354WAT     H228305   8.133   0.914   3.916
 9355WAT      O28306   0.467   0.863   7.997
 9355WAT     H128307   0.400   0.807   7.947
 9355WAT     H228308   0.543   0.886   7.936
 9356WAT      O28309   2.275   1.103   8.545
 9356WAT     H128310   2.210   1.164   8.591
 9356WAT     H228311   2.290   1.022   8.602
 9357WAT      O28312   7.689   0.043   8.155
 9357WAT     H128313   7.756   0.034   8.229
 9357WAT     H228314   7.676  -0.046   8.111
 9358WAT      O28315   9.806   7.461   1.561
 9358WAT     H128316   9.796   7.460   1.660
 9358WAT     H228317   9.846   7.375   1.530
 9359WAT      O28318   0.711   7.354   5.536
 9359WAT     H128319   0.705   7.267   5.486
 9359WAT     H228320   0.620   7.393   5.547
 9360WAT      O28321   9.468   0.804   9.476
 9360WAT     H128322   9.494   0.779   9.383
 9360WAT     H228323   9.548   0.795   9.536
 9361WAT      O28324   7.479   8.872   7.422
 9361WAT     H128325   7.420   8.808   7.373
 9361WAT     H228326   7.531   8.926   7.356
 9362WAT      O28327   7.372   1.961   1.635
 9362WAT     H128328   7.351   1.932   1.542
 9362WAT     H228329   7.399   1.882   1.689
 9363WAT      O28330   8.642   1.765   7.121
 9363WAT     H128331   8.683   1.770   7.212
 9363WAT     H228332   8.572   1.694   7.119
 9364WAT      O28333   4.742   4.271   5.597
 9364WAT     H128334   4.684   4.321   5.533
 9364WAT     H228335   4.836   4.270   5.563
 9365WAT      O28336   5.330   9.147   5.853
 9365WAT     H128337   5.251   9.161   5.912
 9365WAT     H228338   5.411   9.129   5.908
 9366WAT      O28339   3.185   6.170   8.095
 9366WAT     H128340   3.214   6.263   8.119
 9366WAT     H228341   3.121   6.176   8.017
 9367WAT      O28342   2.839   0.497   1.166
 9367WAT     H128343   2.756   0.460   1.123
 9367WAT     H228344   2.824   0.592   1.192
 9368WAT      O28345   6.218   5.091   7.152
 9368WAT     H128346   6.193   5.047   7.066
 9368WAT     H228347   6.310   5.128   7.145
 9369WAT      O28348   2.046   5.831   1.576
 9369WAT     H128349   2.098   5.914   1.553
 9369WAT     H228350   2.018   5.786   1.491
 9370WAT      O28351   0.226   3.023   3.500
 9370WAT     H128352   0.289   2.995   3.428
 9370WAT     H228353   0.270   3.014   3.589
 9371WAT      O28354   0.808   4.987   3.686
 9371WAT     H128355   0.891   5.001   3.632
 9371WAT     H228356   0.806   5.053   3.761
 9372WAT      O28357   9.252   6.119   5.939
 9372WAT     H128358   9.246   6.092   6.035
 9372WAT     H228359   9.282   6.041   5.884
 9373WAT      O28360   3.395   2.807   6.048
 9373WAT     H128361   3.438   2.871   6.113
 9373WAT     H228362   3.338   2.742   6.098
 9374WAT      O28363   3.448   3.739   3.444
 9374WAT     H128364   3.389   3.813   3.411
 9374WAT     H228365   3.487   3.690   3.366
 9375WAT      O28366   6.337   8.013   1.592
 9375WAT     H128367   6.332   7.941   1.523
 9375WAT     H228368   6.254   8.069   1.589
 9376WAT      O28369   7.977   5.059   6.843
 9376WAT     H128370   7.905   5.030   6.906
 9376WAT     H228371   7.936   5.087   6.756
 9377WAT      O28372   5.159   2.126   0.913
 9377WAT     H128373   5.190   2.033   0.896
 9377WAT     H228374   5.237   2.189   0.908
 9378WAT      O28375   4.215   8.265   3.272
 9378WAT     H128376   4.261   8.311   3.196
 9378WAT     H228377   4.193   8.171   3.246
 9379WAT      O28378   5.789   0.019   6.861
 9379WAT     H128379   5.757   0.012   6.956
 9379WAT     H228380   5.711   0.010   6.799
 9380WAT      O28381   7.353   3.071   2.245
 9380WAT     H128382   7.422   3.139   2.220
 9380WAT     H228383   7.394   2.979   2.239
 9381WAT      O28384   7.730   9.049   4.956
 9381WAT     H128385   7.656   8.983   4.946
 9381WAT     H228386   7.705   9.136   4.914
 9382WAT      O28387   0.648   9.104   2.544
 9382WAT     H128388   0.585   9.175   2.512
 9382WAT     H228389   0.735   9.146   2.569
 9383WAT      O28390   4.467   4.568   2.449
 9383WAT     H128391   4.534   4.609   2.387
 9383WAT     H228392   4.509   4.550   2.537
 9384WAT      O28393   4.742   3.215   7.779
 9384WAT     H128394   4.696   3.302   7.796
 9384WAT     H228395   4.702   3.144   7.836
 9385WAT      O28396   1.371   3.925   7.638
 9385WAT     H128397   1.432   3.961   7.567
 9385WAT     H228398   1.304   3.994   7.663
 9386WAT      O28399   4.397   3.899   5.487
 9386WAT     H128400   4.445   3.914   5.400
 9386WAT     H228401   4.438   3.956   5.558
 9387WAT      O28402   5.155   0.668   0.182
 9387WAT     H128403   5.080   0.618   0.138
 9387WAT     H228404   5.158   0.761   0.146
 9388WAT      O28405   8.016   2.548   9.674
 9388WAT     H128406   7.919   2.531   9.660
 9388WAT     H228407   8.069   2.475   9.630
 9389WAT      O28408   2.974   8.933   8.302
 9389WAT     H128409   3.032   8.963   8.378
 9389WAT     H228410   2.984   8.997   8.226
 9390WAT      O28411   0.369   5.371   5.785
 9390WAT     H128412   0.415   5.446   5.737
 9390WAT     H228413   0.286   5.406   5.830
 9391WAT      O28414   5.235   1.799   5.926
 9391WAT     H128415   5.206   1.865   5.996
 9391WAT     H228416   5.332   1.810   5.908
 9392WAT      O28417   6.988   2.009   2.758
 9392WAT     H128418   7.064   1.975   2.814
 9392WAT     H228419   6.995   1.970   2.666
 9393WAT      O28420   6.042   9.527   3.115
 9393WAT     H128421   6.010   9.595   3.182
 9393WAT     H228422   6.031   9.563   3.023
 9394WAT      O28423   8.236   2.082   5.897
 9394WAT     H128424   8.216   2.155   5.963
 9394WAT     H228425   8.334   2.064   5.895
 9395WAT      O28426   2.030   0.800   4.076
 9395WAT     H128427   1.984   0.744   4.007
 9395WAT     H228428   1.997   0.894   4.070
 9396WAT      O28429   4.095   5.370   8.288
 9396WAT     H128430   4.149   5.448   8.321
 9396WAT     H228431   4.028   5.402   8.221
 9397WAT      O28432   5.387   0.861   7.615
 9397WAT     H128433   5.353   0.955   7.610
 9397WAT     H228434   5.480   0.861   7.650
 9398WAT      O28435   3.482   4.808   7.100
 9398WAT     H128436   3.560   4.748   7.116
 9398WAT     H228437   3.501   4.867   7.022
 9399WAT      O28438   7.491   6.424   5.225
 9399WAT     H128439   7.484   6.523   5.235
 9399WAT     H228440   7.518   6.383   5.312
 9400WAT      O28441   3.820   4.870   0.751
 9400WAT     H128442   3.862   4.798   0.695
 9400WAT     H228443   3.727   4.843   0.777
 9401WAT      O28444   1.975   3.334   1.362
 9401WAT     H128445   2.017   3.382   1.284
 9401WAT     H228446   1.972   3.236   1.342
 9402WAT      O28447   3.218   6.329   4.352
 9402WAT     H128448   3.226   6.297   4.446
 9402WAT     H228449   3.143   6.282   4.307
 9403WAT      O28450   6.398   6.168   3.398
 9403WAT     H128451   6.395   6.191   3.496
 9403WAT     H228452   6.331   6.223   3.349
 9404WAT      O28453   7.645   3.353   5.322
 9404WAT     H128454   7.697   3.342   5.238
 9404WAT     H228455   7.650   3.268   5.375
 9405WAT      O28456   6.358   7.171   1.107
 9405WAT     H128457   6.267   7.134   1.123
 9405WAT     H228458   6.360   7.218   1.019
 9406WAT      O28459   1.889   1.588   6.773
 9406WAT     H128460   1.939   1.637   6.844
 9406WAT     H228461   1.864   1.652   6.700
 9407WAT      O28462   4.241   9.485   1.331
 9407WAT     H128463   4.158   9.514   1.284
 9407WAT     H228464   4.294   9.424   1.272
 9408WAT      O28465   7.550   4.582   5.060
 9408WAT     H128466   7.465   4.579   5.007
 9408WAT     H228467   7.596   4.493   5.055
 9409WAT      O28468   7.914   2.120   2.975
 9409WAT     H128469   7.906   2.030   2.933
 9409WAT     H228470   8.009   2.150   2.973
 9410WAT      O28471   2.504   0.473   6.526
 9410WAT     H128472   2.426   0.499   6.468
 9410WAT     H228473   2.585   0.524   6.497
 9411WAT      O28474   2.767   7.513   4.571
 9411WAT     H128475   2.805   7.422   4.589
 9411WAT     H228476   2.841   7.577   4.551
 9412WAT      O28477   6.344   7.338   9.133
 9412WAT     H128478   6.318   7.256   9.082
 9412WAT     H228479   6.410   7.391   9.079
 9413WAT      O28480   2.140   0.464   8.520
 9413WAT     H128481   2.087   0.485   8.602
 9413WAT     H228482   2.234   0.496   8.532
 9414WAT      O28483   0.030   4.167   6.375
 9414WAT     H128484   0.012   4.213   6.462
 9414WAT     H228485   0.068   4.076   6.393
 9415WAT      O28486   7.549   2.125   3.321
 9415WAT     H128487   7.639   2.116   3.278
 9415WAT     H228488   7.518   2.220   3.314
 9416WAT      O28489   1.798   8.915   2.180
 9416WAT     H128490   1.742   8.977   2.235
 9416WAT     H228491   1.767   8.917   2.085
 9417WAT      O28492   8.972   9.107   9.298
 9417WAT     H128493   8.932   9.186   9.344
 9417WAT     H228494   9.060   9.085   9.341
 9418WAT      O28495   5.804   6.541   2.971
 9418WAT     H128496   5.859   6.466   2.934
 9418WAT     H228497   5.755   6.587   2.897
 9419WAT      O28498   0.740   5.730   2.064
 9419WAT     H128499   0.651   5.690   2.085
 9419WAT     H228500   0.781   5.683   1.986
 9420WAT      O28501   3.310   8.456   2.758
 9420WAT     H128502   3.299   8.401   2.675
 9420WAT     H228503   3.379   8.414   2.817
 9421WAT      O28504   4.205   4.563   8.035
 9421WAT     H128505   4.280   4.603   8.088
 9421WAT     H228506   4.136   4.526   8.097
 9422WAT      O28507   4.423   8.971   7.328
 9422WAT     H128508   4.508   9.023   7.331
 9422WAT     H228509   4.402   8.945   7.234
 9423WAT      O28510   8.257   4.540   7.608
 9423WAT     H128511   8.325   4.484   7.655
 9423WAT     H228512   8.303   4.611   7.554
 9424WAT      O28513   0.513   8.129   1.176
 9424WAT     H128514   0.484   8.136   1.272
 9424WAT     H228515   0.580   8.056   1.168
 9425WAT      O28516   9.091   6.497   7.189
 9425WAT     H128517   9.160   6.514   7.118
 9425WAT     H228518   9.095   6.401   7.217
 9426WAT      O28519   4.331   6.768   2.548
 9426WAT     H128520   4.251   6.733   2.598
 9426WAT     H228521   4.306   6.853   2.501
 9427WAT      O28522   3.920   4.817   6.999
 9427WAT     H128523   3.884   4.909   7.017
 9427WAT     H228524   3.848   4.749   7.016
 9428WAT      O28525   1.383   4.402   2.315
 9428WAT     H128526   1.354   4.420   2.409
 9428WAT     H228527   1.318   4.443   2.251
 9429WAT      O28528   2.728   0.684   3.270
 9429WAT     H128529   2.708   0.621   3.345
 9429WAT     H228530   2.761   0.771   3.308
 9430WAT      O28531   0.312   7.641   5.705
 9430WAT     H128532   0.403   7.681   5.698
 9430WAT     H228533   0.269   7.673   5.790
 9431WAT      O28534   4.021   1.479   6.788
 9431WAT     H128535   4.059   1.572   6.792
 9431WAT     H228536   3.926   1.481   6.819
 9432WAT      O28537   8.560   2.046   3.361
 9432WAT     H128538   8.646   1.998   3.348
 9432WAT     H228539   8.552   2.120   3.295
 9433WAT      O28540   6.875   4.132   1.597
 9433WAT     H128541   6.917   4.048   1.630
 9433WAT     H228542   6.945   4.194   1.563
 9434WAT      O28543   1.966   4.703   2.021
 9434WAT     H128544   1.880   4.716   1.972
 9434WAT     H228545   1.969   4.612   2.061
 9435WAT      O28546   9.023   2.796   1.143
 9435WAT     H128547   8.949   2.784   1.077
 9435WAT     H228548   9.062   2.707   1.167
 9436WAT      O28549   7.870   0.433   8.585
 9436WAT     H128550   7.802   0.488   8.536
 9436WAT     H228551   7.916   0.372   8.521
 9437WAT      O28552   7.549   4.831   9.678
 9437WAT     H128553   7.544   4.928   9.653
 9437WAT     H228554   7.457   4.798   9.699
 9438WAT      O28555   6.636   0.637   8.132
 9438WAT     H128556   6.645   0.727   8.174
 9438WAT     H228557   6.726   0.593   8.129
 9439WAT      O28558   5.318   1.511   7.390
 9439WAT     H128559   5.352   1.581   7.327
 9439WAT     H228560   5.360   1.524   7.480
 9440WAT      O28561   3.726   3.063   0.861
 9440WAT     H128562   3.737   3.035   0.766
 9440WAT     H228563   3.731   2.982   0.920
 9441WAT      O28564   2.689   5.104   2.132
 9441WAT     H128565   2.649   5.013   2.145
 9441WAT     H228566   2.692   5.126   2.035
 9442WAT      O28567   9.090   7.840   9.020
 9442WAT     H128568   9.063   7.862   8.927
 9442WAT     H228569   9.078   7.742   9.036
 9443WAT      O28570   2.457   6.361   5.276
 9443WAT     H128571   2.551   6.393   5.267
 9443WAT     H228572   2.457   6.272   5.321
 9444WAT      O28573   4.188   1.498   6.527
 9444WAT     H128574   4.180   1.399   6.517
 9444WAT     H228575   4.211   1.521   6.621
 9445WAT      O28576   7.492   1.428   4.970
 9445WAT     H128577   7.469   1.332   4.953
 9445WAT     H228578   7.585   1.434   5.007
 9446WAT      O28579   8.951   6.353   4.323
 9446WAT     H128580   9.014   6.281   4.351
 9446WAT     H228581   8.952   6.427   4.390
 9447WAT      O28582   0.045   3.834   8.241
 9447WAT     H128583   0.057   3.905   8.311
 9447WAT     H228584  -0.000   3.872   8.161
 9448WAT      O28585   0.204   6.397   9.772
 9448WAT     H128586   0.293   6.366   9.807
 9448WAT     H228587   0.189   6.361   9.680
 9449WAT      O28588   9.762   7.065   3.177
 9449WAT     H128589   9.759   7.004   3.256
 9449WAT     H228590   9.819   7.144   3.199
 9450WAT      O28591   6.887   2.618   7.440
 9450WAT     H128592   6.894   2.655   7.347
 9450WAT     H228593   6.910   2.521   7.439
 9451WAT      O28594   4.231   4.584   0.873
 9451WAT     H128595   4.164   4.545   0.809
 9451WAT     H228596   4.243   4.681   0.852
 9452WAT      O28597   8.970   9.569   5.944
 9452WAT     H128598   8.912   9.632   5.893
 9452WAT     H228599   8.943   9.567   6.040
 9453WAT      O28600   7.079   4.970   6.532
 9453WAT     H128601   6.993   4.923   6.511
 9453WAT     H228602   7.156   4.911   6.510
 9454WAT      O28603   0.237   1.917   2.534
 9454WAT     H128604   0.192   1.993   2.488
 9454WAT     H228605   0.335   1.919   2.514
 9455WAT      O28606   4.510   3.432   2.066
 9455WAT     H128607   4.470   3.480   2.144
 9455WAT     H228608   4.587   3.377   2.098
 9456WAT      O28609   3.608   5.862   3.218
 9456WAT     H128610   3.629   5.954   3.185
 9456WAT     H228611   3.516   5.836   3.189
 9457WAT      O28612   0.460   4.065   2.572
 9457WAT     H128613   0.395   3.999   2.535
 9457WAT     H228614   0.505   4.114   2.497
 9458WAT      O28615   3.833   2.281   8.472
 9458WAT     H128616   3.737   2.255   8.467
 9458WAT     H228617   3.845   2.372   8.432
 9459WAT      O28618   4.470   1.093   9.265
 9459WAT     H128619   4.568   1.113   9.265
 9459WAT     H228620   4.434   1.101   9.172
 9460WAT      O28621   8.580   9.580   1.812
 9460WAT     H128622   8.658   9.521   1.791
 9460WAT     H228623   8.496   9.538   1.778
 9461WAT      O28624   4.795   5.762   1.762
 9461WAT     H128625   4.702   5.793   1.744
 9461WAT     H228626   4.794   5.692   1.833
 9462WAT      O28627   3.464   4.961   2.034
 9462WAT     H128628   3.427   5.024   1.966
 9462WAT     H228629   3.561   4.980   2.048
 9463WAT      O28630   5.798   8.922   3.487
 9463WAT     H128631   5.825   8.983   3.413
 9463WAT     H228632   5.835   8.955   3.574
 9464WAT      O28633   8.055   1.628   3.458
 9464WAT     H128634   7.993   1.554   3.434
 9464WAT     H228635   8.015   1.685   3.530
 9465WAT      O28636   8.885   6.045   8.495
 9465WAT     H128637   8.881   6.139   8.529
 9465WAT     H228638   8.827   5.986   8.552
 9466WAT      O28639   0.344   4.623   2.363
 9466WAT     H128640   0.359   4.538   2.313
 9466WAT     H228641   0.420   4.638   2.426
 9467WAT      O28642   6.730   9.811   2.568
 9467WAT     H128643   6.763   9.723   2.534
 9467WAT     H228644   6.780   9.885   2.523
 9468WAT      O28645   9.310   6.304   6.640
 9468WAT     H128646   9.374   6.342   6.706
 9468WAT     H228647   9.313   6.357   6.555
 9469WAT      O28648   2.179   5.720   6.158
 9469WAT     H128649   2.227   5.795   6.113
 9469WAT     H228650   2.081   5.740   6.158
 9470WAT      O28651   5.123   0.514   5.700
 9470WAT     H128652   5.039   0.568   5.699
 9470WAT     H228653   5.104   0.421   5.730
 9471WAT      O28654   1.093   3.913   1.897
 9471WAT     H128655   1.157   3.885   1.826
 9471WAT     H228656   1.123   3.999   1.937
 9472WAT      O28657   8.358   0.744   3.307
 9472WAT     H128658   8.391   0.715   3.396
 9472WAT     H228659   8.343   0.664   3.249
 9473WAT      O28660   9.293   8.401   0.984
 9473WAT     H128661   9.351   8.333   0.939
 9473WAT     H228662   9.334   8.427   1.072
 9474WAT      O28663   8.589   2.317   0.074
 9474WAT     H128664   8.552   2.312  -0.019
 9474WAT     H228665   8.687   2.339   0.069
 9475WAT      O28666   9.856   5.805   2.537
 9475WAT     H128667   9.760   5.810   2.509
 9475WAT     H228668   9.897   5.722   2.499
 9476WAT      O28669   9.035   8.451   3.723
 9476WAT     H128670   9.054   8.354   3.733
 9476WAT     H228671   9.120   8.503   3.734
 9477WAT      O28672   2.082   7.218   5.643
 9477WAT     H128673   2.175   7.253   5.633
 9477WAT     H228674   2.055   7.172   5.558
 9478WAT      O28675   7.085   9.620   6.216
 9478WAT     H128676   7.045   9.540   6.261
 9478WAT     H228677   7.182   9.603   6.197
 9479WAT      O28678   0.980   3.800   5.458
 9479WAT     H128679   0.902   3.841   5.413
 9479WAT     H228680   1.057   3.864   5.459
 9480WAT      O28681   3.139   3.402   2.137
 9480WAT     H128682   3.198   3.327   2.167
 9480WAT     H228683   3.173   3.489   2.173
 9481WAT      O28684   4.001   7.736   5.630
 9481WAT     H128685   3.930   7.797   5.594
 9481WAT     H228686   3.982   7.716   5.726
 9482WAT      O28687   8.560   9.801   4.383
 9482WAT     H128688   8.601   9.715   4.412
 9482WAT     H228689   8.616   9.841   4.310
 9483WAT      O28690   0.991   7.384   6.878
 9483WAT     H128691   0.922   7.314   6.896
 9483WAT     H228692   1.072   7.365   6.934
 9484WAT      O28693   7.610   3.143   8.516
 9484WAT     H128694   7.654   3.177   8.432
 9484WAT     H228695   7.526   3.095   8.492
 9485WAT      O28696   4.926   7.178   6.033
 9485WAT     H128697   4.926   7.269   6.076
 9485WAT     H228698   5.016   7.136   6.046
 9486WAT      O28699   6.604   1.669   6.467
 9486WAT     H128700   6.644   1.754   6.501
 9486WAT     H228701   6.656   1.638   6.388
 9487WAT      O28702   1.636   5.440   4.807
 9487WAT     H128703   1.566   5.406   4.870
 9487WAT     H228704   1.710   5.482   4.859
 9488WAT      O28705   1.243   4.861   0.715
 9488WAT     H128706   1.254   4.961   0.709
 9488WAT     H228707   1.189   4.838   0.796
 9489WAT      O28708   2.250   8.405   0.621
 9489WAT     H128709   2.204   8.380   0.707
 9489WAT     H228710   2.314   8.480   0.638
 9490WAT      O28711   9.591   5.693   7.206
 9490WAT     H128712   9.634   5.692   7.296
 9490WAT     H228713   9.567   5.787   7.181
 9491WAT      O28714   7.743   4.676   3.592
 9491WAT     H128715   7.691   4.653   3.510
 9491WAT     H228716   7.757   4.775   3.595
 9492WAT      O28717   6.917   2.541   4.742
 9492WAT     H128718   7.009   2.579   4.739
 9492WAT     H228719   6.888   2.515   4.650
 9493WAT      O28720   7.908   5.828   9.492
 9493WAT     H128721   7.890   5.783   9.579
 9493WAT     H228722   7.987   5.889   9.502
 9494WAT      O28723   0.041   1.244   5.178
 9494WAT     H128724  -0.002   1.325   5.139
 9494WAT     H228725  -0.023   1.199   5.240
 9495WAT      O28726   6.937   0.339   4.954
 9495WAT     H128727   6.947   0.335   4.855
 9495WAT     H228728   7.028   0.342   4.997
 9496WAT      O28729   7.695   0.139   1.817
 9496WAT     H128730   7.649   0.208   1.761
 9496WAT     H228731   7.668   0.152   1.913
 9497WAT      O28732   4.942   0.595   7.984
 9497WAT     H128733   4.997   0.648   7.919
 9497WAT     H228734   4.930   0.648   8.068
 9498WAT      O28735   1.594   0.159   0.072
 9498WAT     H128736   1.663   0.182   0.141
 9498WAT     H228737   1.572   0.062   0.077
 9499WAT      O28738   1.237   8.453   3.798
 9499WAT     H128739   1.218   8.358   3.822
 9499WAT     H228740   1.250   8.460   3.699
 9500WAT      O28741   9.096   5.199   4.138
 9500WAT     H128742   9.061   5.222   4.047
 9500WAT     H228743   9.153   5.117   4.133
 9501WAT      O28744   0.534   2.133   6.599
 9501WAT     H128745   0.630   2.152   6.579
 9501WAT     H228746   0.477   2.206   6.562
 9502WAT      O28747   2.435   0.183   5.413
 9502WAT     H128748   2.455   0.240   5.493
 9502WAT     H228749   2.482   0.096   5.421
 9503WAT      O28750   5.574   3.042   1.645
 9503WAT     H128751   5.475   3.049   1.654
 9503WAT     H228752   5.618   3.093   1.720
 9504WAT      O28753   7.704   4.262   0.587
 9504WAT     H128754   7.687   4.259   0.686
 9504WAT     H228755   7.801   4.279   0.570
 9505WAT      O28756   4.505   4.281   1.726
 9505WAT     H128757   4.487   4.193   1.682
 9505WAT     H228758   4.421   4.335   1.728
 9506WAT      O28759   5.690   6.574   9.541
 9506WAT     H128760   5.717   6.483   9.508
 9506WAT     H228761   5.650   6.566   9.632
 9507WAT      O28762   8.780   0.302   7.786
 9507WAT     H128763   8.868   0.311   7.831
 9507WAT     H228764   8.770   0.210   7.748
 9508WAT      O28765   5.657   4.096   2.380
 9508WAT     H128766   5.694   4.159   2.448
 9508WAT     H228767   5.559   4.084   2.395
 9509WAT      O28768   0.096   1.081   0.844
 9509WAT     H128769   0.108   0.981   0.841
 9509WAT     H228770   0.021   1.107   0.783
 9510WAT      O28771   5.040   5.401   8.074
 9510WAT     H128772   5.106   5.385   8.147
 9510WAT     H228773   4.987   5.483   8.095
 9511WAT      O28774   3.100   4.259   0.430
 9511WAT     H128775   3.104   4.159   0.419
 9511WAT     H228776   3.079   4.281   0.526
 9512WAT      O28777   7.676   1.861   5.809
 9512WAT     H128778   7.685   1.874   5.710
 9512WAT     H228779   7.701   1.946   5.856
 9513WAT      O28780   0.522   6.146   3.941
 9513WAT     H128781   0.542   6.231   3.989
 9513WAT     H228782   0.448   6.161   3.875
 9514WAT      O28783   9.034   0.273   0.402
 9514WAT     H128784   9.076   0.344   0.458
 9514WAT     H228785   8.961   0.313   0.347
 9515WAT      O28786   9.216   0.598   4.022
 9515WAT     H128787   9.209   0.696   4.035
 9515WAT     H228788   9.144   0.552   4.074
 9516WAT      O28789   6.437   0.331   4.879
 9516WAT     H128790   6.525   0.378   4.869
 9516WAT     H228791   6.366   0.397   4.903
 9517WAT      O28792   3.758   6.054   5.828
 9517WAT     H128793   3.771   5.969   5.777
 9517WAT     H228794   3.724   6.033   5.919
 9518WAT      O28795   5.150   4.521   4.077
 9518WAT     H128796   5.235   4.478   4.109
 9518WAT     H228797   5.099   4.557   4.155
 9519WAT      O28798   8.403   0.036   8.730
 9519WAT     H128799   8.414   0.093   8.649
 9519WAT     H228800   8.488  -0.014   8.748
 9520WAT      O28801   9.755   6.421   8.400
 9520WAT     H128802   9.838   6.367   8.386
 9520WAT     H228803   9.745   6.487   8.325
 9521WAT      O28804   3.151   1.869   0.189
 9521WAT     H128805   3.142   1.966   0.212
 9521WAT     H228806   3.243   1.851   0.155
 9522WAT      O28807   1.704   7.576   1.008
 9522WAT     H128808   1.726   7.549   1.102
 9522WAT     H228809   1.625   7.525   0.975
 9523WAT      O28810   5.473   5.966   8.679
 9523WAT     H128811   5.407   5.937   8.749
 9523WAT     H228812   5.448   6.058   8.646
 9524WAT      O28813   6.991   7.667   3.500
 9524WAT     H128814   7.035   7.615   3.427
 9524WAT     H228815   6.900   7.630   3.518
 9525WAT      O28816   9.195   6.917   4.093
 9525WAT     H128817   9.244   6.830   4.083
 9525WAT     H228818   9.220   6.960   4.180
 9526WAT      O28819   0.326   0.243   2.283
 9526WAT     H128820   0.329   0.146   2.306
 9526WAT     H228821   0.250   0.286   2.331
 9527WAT      O28822   0.718   1.597   3.881
 9527WAT     H128823   0.808   1.569   3.915
 9527WAT     H228824   0.646   1.553   3.934
 9528WAT      O28825   1.937   4.489   0.340
 9528WAT     H128826   1.970   4.569   0.390
 9528WAT     H228827   1.943   4.408   0.399
 9529WAT      O28828   8.242   5.271   7.406
 9529WAT     H128829   8.303   5.238   7.478
 9529WAT     H228830   8.257   5.369   7.391
 9530WAT      O28831   4.061   5.659   6.263
 9530WAT     H128832   4.126   5.619   6.327
 9530WAT     H228833   4.099   5.744   6.226
 9531WAT      O28834   5.804   2.495   7.146
 9531WAT     H128835   5.882   2.449   7.189
 9531WAT     H228836   5.731   2.428   7.129
 9532WAT      O28837   8.420   1.260   9.150
 9532WAT     H128838   8.454   1.170   9.123
 9532WAT     H228839   8.327   1.273   9.114
 9533WAT      O28840   0.699   0.432   0.707
 9533WAT     H128841   0.788   0.466   0.737
 9533WAT     H228842   0.698   0.332   0.715
 9534WAT      O28843   7.084   8.877   9.176
 9534WAT     H128844   7.090   8.930   9.260
 9534WAT     H228845   7.175   8.846   9.149
 9535WAT      O28846   7.411   3.288   9.487
 9535WAT     H128847   7.412   3.189   9.504
 9535WAT     H228848   7.326   3.326   9.523
 9536WAT      O28849   1.575   3.864   0.842
 9536WAT     H128850   1.492   3.823   0.880
 9536WAT     H228851   1.564   3.963   0.837
 9537WAT      O28852   1.488   6.554   4.110
 9537WAT     H128853   1.565   6.529   4.168
 9537WAT     H228854   1.402   6.534   4.158
 9538WAT      O28855   2.225   4.952   5.666
 9538WAT     H128856   2.305   5.012   5.672
 9538WAT     H228857   2.236   4.875   5.728
 9539WAT      O28858   4.712   2.221   8.992
 9539WAT     H128859   4.681   2.311   8.961
 9539WAT     H228860   4.658   2.149   8.946
 9540WAT      O28861   8.781   2.510   5.954
 9540WAT     H128862   8.812   2.488   5.862
 9540WAT     H228863   8.859   2.524   6.014
 9541WAT      O28864   8.965   2.980   6.475
 9541WAT     H128865   8.867   2.961   6.478
 9541WAT     H228866   9.016   2.894   6.480
 9542WAT      O28867   6.060   1.235   8.197
 9542WAT     H128868   6.075   1.185   8.282
 9542WAT     H228869   6.045   1.171   8.123
 9543WAT      O28870   4.518   1.168   7.721
 9543WAT     H128871   4.442   1.200   7.664
 9543WAT     H228872   4.497   1.076   7.757
 9544WAT      O28873   1.274   3.160   9.065
 9544WAT     H128874   1.332   3.148   8.984
 9544WAT     H228875   1.223   3.076   9.082
 9545WAT      O28876   8.963   4.456   3.909
 9545WAT     H128877   8.958   4.544   3.862
 9545WAT     H228878   8.887   4.398   3.878
 9546WAT      O28879   0.204   1.679   4.198
 9546WAT     H128880   0.269   1.732   4.144
 9546WAT     H228881   0.249   1.643   4.279
 9547WAT      O28882   5.554   3.815   4.908
 9547WAT     H128883   5.616   3.745   4.943
 9547WAT     H228884   5.499   3.777   4.834
 9548WAT      O28885   9.450   9.597   2.795
 9548WAT     H128886   9.381   9.586   2.867
 9548WAT     H228887   9.409   9.576   2.706
 9549WAT      O28888   9.368   2.109   6.501
 9549WAT     H128889   9.378   2.022   6.453
 9549WAT     H228890   9.390   2.096   6.597
 9550WAT      O28891   2.626   0.374   1.067
 9550WAT     H128892   2.603   0.277   1.080
 9550WAT     H228893   2.556   0.418   1.011
 9551WAT      O28894   1.394   1.580   4.428
 9551WAT     H128895   1.402   1.575   4.329
 9551WAT     H228896   1.305   1.543   4.456
 9552WAT      O28897   5.795   8.177   6.306
 9552WAT     H128898   5.734   8.178   6.386
 9552WAT     H228899   5.741   8.183   6.222
 9553WAT      O28900   4.245   1.778   0.667
 9553WAT     H128901   4.154   1.738   0.654
 9553WAT     H228902   4.275   1.820   0.581
 9554WAT      O28903   2.755   9.653   6.539
 9554WAT     H128904   2.719   9.619   6.453
 9554WAT     H228905   2.841   9.701   6.523
 9555WAT      O28906   7.449   7.195   3.578
 9555WAT     H128907   7.505   7.258   3.525
 9555WAT     H228908   7.493   7.105   3.580
 9556WAT      O28909   5.665   4.900   1.319
 9556WAT     H128910   5.733   4.955   1.271
 9556WAT     H228911   5.693   4.804   1.317
 9557WAT      O28912   8.704   6.952   8.419
 9557WAT     H128913   8.604   6.955   8.421
 9557WAT     H228914   8.741   6.970   8.510
 9558WAT      O28915   7.699   5.129   9.405
 9558WAT     H128916   7.628   5.059   9.402
 9558WAT     H228917   7.752   5.127   9.320
 9559WAT      O28918   3.266   6.458   5.532
 9559WAT     H128919   3.244   6.372   5.579
 9559WAT     H228920   3.188   6.520   5.538
 9560WAT      O28921   4.344   7.682   5.004
 9560WAT     H128922   4.368   7.661   5.098
 9560WAT     H228923   4.248   7.657   4.987
 9561WAT      O28924   9.391   6.788   6.449
 9561WAT     H128925   9.297   6.766   6.426
 9561WAT     H228926   9.438   6.706   6.484
 9562WAT      O28927   1.148   9.437   4.122
 9562WAT     H128928   1.211   9.360   4.113
 9562WAT     H228929   1.163   9.501   4.046
 9563WAT      O28930   0.662   2.822   4.248
 9563WAT     H128931   0.659   2.792   4.153
 9563WAT     H228932   0.618   2.911   4.257
 9564WAT      O28933   7.290   0.212   7.980
 9564WAT     H128934   7.199   0.172   7.985
 9564WAT     H228935   7.308   0.264   8.064
 9565WAT      O28936   9.155   4.837   1.957
 9565WAT     H128937   9.072   4.830   1.901
 9565WAT     H228938   9.206   4.919   1.931
 9566WAT      O28939   2.948   8.756   0.360
 9566WAT     H128940   2.983   8.838   0.406
 9566WAT     H228941   2.919   8.690   0.429
 9567WAT      O28942   7.540   1.731   3.575
 9567WAT     H128943   7.503   1.806   3.520
 9567WAT     H228944   7.547   1.760   3.670
 9568WAT      O28945   9.642   3.476   6.248
 9568WAT     H128946   9.583   3.427   6.313
 9568WAT     H228947   9.586   3.540   6.195
 9569WAT      O28948   5.660   3.210   7.992
 9569WAT     H128949   5.576   3.169   7.957
 9569WAT     H228950   5.710   3.253   7.917
 9570WAT      O28951   4.570   5.786   4.062
 9570WAT     H128952   4.646   5.846   4.039
 9570WAT     H228953   4.532   5.746   3.979
 9571WAT      O28954   9.814   2.627   0.400
 9571WAT     H128955   9.743   2.562   0.429
 9571WAT     H228956   9.881   2.637   0.473
 9572WAT      O28957   3.601   2.857   7.979
 9572WAT     H128958   3.605   2.757   7.990
 9572WAT     H228959   3.677   2.899   8.029
 9573WAT      O28960   0.393   2.115   3.663
 9573WAT     H128961   0.391   2.182   3.589
 9573WAT     H228962   0.411   2.161   3.750
 9574WAT      O28963   4.266   4.452   3.434
 9574WAT     H128964   4.286   4.524   3.368
 9574WAT     H228965   4.174   4.416   3.418
 9575WAT      O28966   0.851   3.063   6.090
 9575WAT     H128967   0.861   3.155   6.129
 9575WAT     H228968   0.801   3.069   6.003
 9576WAT      O28969   0.599   6.860   1.056
 9576WAT     H128970   0.627   6.769   1.024
 9576WAT     H228971   0.517   6.889   1.005
 9577WAT      O28972   0.659   5.224   8.201
 9577WAT     H128973   0.603   5.238   8.283
 9577WAT     H228974   0.627   5.284   8.128
 9578WAT      O28975   1.236   5.018   9.716
 9578WAT     H128976   1.188   4.931   9.718
 9578WAT     H228977   1.171   5.092   9.699
 9579WAT      O28978   3.744   4.919   5.718
 9579WAT     H128979   3.774   5.001   5.669
 9579WAT     H228980   3.713   4.850   5.652
 9580WAT      O28981   3.121   7.112   4.758
 9580WAT     H128982   3.186   7.089   4.830
 9580WAT     H228983   3.162   7.091   4.669
 9581WAT      O28984   8.705   9.720   4.043
 9581WAT     H128985   8.723   9.818   4.046
 9581WAT     H228986   8.608   9.704   4.025
 9582WAT      O28987   4.788   9.751   5.126
 9582WAT     H128988   4.852   9.685   5.167
 9582WAT     H228989   4.806   9.758   5.028
 9583WAT      O28990   5.235   4.417   5.939
 9583WAT     H128991   5.275   4.333   5.977
 9583WAT     H228992   5.299   4.458   5.875
 9584WAT      O28993   3.420   7.636   3.600
 9584WAT     H128994   3.424   7.537   3.592
 9584WAT     H228995   3.401   7.661   3.695
 9585WAT      O28996   5.020   4.985   1.209
 9585WAT     H128997   4.972   5.004   1.295
 9585WAT     H228998   5.043   4.888   1.204
 9586WAT      O28999   1.072   5.904   1.308
 9586WAT     H129000   1.006   5.932   1.378
 9586WAT     H229001   1.048   5.946   1.221
 9587WAT      O29002   8.967   4.309   1.098
 9587WAT     H129003   8.878   4.329   1.140
 9587WAT     H229004   9.039   4.323   1.166
 9588WAT      O29005   7.740   9.784   3.781
 9588WAT     H129006   7.761   9.753   3.874
 9588WAT     H229007   7.767   9.713   3.716
 9589WAT      O29008   2.935   8.407   7.567
 9589WAT     H129009   3.028   8.377   7.550
 9589WAT     H229010   2.918   8.410   7.666
 9590WAT      O29011   7.292   0.496   5.536
 9590WAT     H129012   7.218   0.433   5.556
 9590WAT     H229013   7.322   0.483   5.441
 9591WAT      O29014   2.395   8.826   2.678
 9591WAT     H129015   2.318   8.781   2.722
 9591WAT     H229016   2.415   8.780   2.591
 9592WAT      O29017   5.387   7.560   7.592
 9592WAT     H129018   5.417   7.509   7.673
 9592WAT     H229019   5.353   7.650   7.620
 9593WAT      O29020   6.653   7.128   0.084
 9593WAT     H129021   6.678   7.221   0.055
 9593WAT     H229022   6.674   7.118   0.182
 9594WAT      O29023   5.016   2.692   6.593
 9594WAT     H129024   5.054   2.625   6.656
 9594WAT     H229025   4.937   2.737   6.634
 9595WAT      O29026   8.415   3.006   2.663
 9595WAT     H129027   8.394   3.054   2.578
 9595WAT     H229028   8.352   2.929   2.674
 9596WAT      O29029   0.907   8.418   0.013
 9596WAT     H129030   0.871   8.326   0.001
 9596WAT     H229031   0.846   8.470   0.074
 9597WAT      O29032   0.089   9.532   3.443
 9597WAT     H129033   0.163   9.558   3.504
 9597WAT     H229034   0.018   9.485   3.495
 9598WAT      O29035   3.225   6.446   1.339
 9598WAT     H129036   3.190   6.535   1.370
 9598WAT     H229037   3.166   6.411   1.266
 9599WAT      O29038   7.045   6.883   7.644
 9599WAT     H129039   6.973   6.887   7.714
 9599WAT     H229040   7.031   6.957   7.578
 9600WAT      O29041   4.144   0.521   2.022
 9600WAT     H129042   4.112   0.604   1.975
 9600WAT     H229043   4.086   0.444   1.995
 9601WAT      O29044   7.554   0.511   0.197
 9601WAT     H129045   7.562   0.511   0.097
 9601WAT     H229046   7.561   0.417   0.231
 9602WAT      O29047   8.160   2.396   3.809
 9602WAT     H129048   8.205   2.312   3.840
 9602WAT     H229049   8.197   2.474   3.860
 9603WAT      O29050   6.011   7.011   3.186
 9603WAT     H129051   5.970   6.928   3.225
 9603WAT     H229052   5.988   7.017   3.089
 9604WAT      O29053   6.417   5.738   9.729
 9604WAT     H129054   6.480   5.792   9.785
 9604WAT     H229055   6.350   5.799   9.686
 9605WAT      O29056   3.606   8.397   5.251
 9605WAT     H129057   3.688   8.366   5.300
 9605WAT     H229058   3.525   8.370   5.302
 9606WAT      O29059   3.289   5.092   9.758
 9606WAT     H129060   3.334   5.034   9.691
 9606WAT     H229061   3.274   5.041   9.842
 9607WAT      O29062   7.314   0.501   6.570
 9607WAT     H129063   7.240   0.518   6.505
 9607WAT     H229064   7.300   0.556   6.652
 9608WAT      O29065   7.568   2.921   3.252
 9608WAT     H129066   7.499   2.986   3.222
 9608WAT     H229067   7.601   2.869   3.173
 9609WAT      O29068   6.514   5.488   6.095
 9609WAT     H129069   6.421   5.451   6.090
 9609WAT     H229070   6.527   5.554   6.021
 9610WAT      O29071   2.267   8.321   5.422
 9610WAT     H129072   2.345   8.262   5.401
 9610WAT     H229073   2.299   8.413   5.443
 9611WAT      O29074   2.425   4.732   9.047
 9611WAT     H129075   2.482   4.675   9.106
 9611WAT     H229076   2.461   4.825   9.045
 9612WAT      O29077   8.471   2.571   0.187
 9612WAT     H129078   8.524   2.486   0.183
 9612WAT     H229079   8.411   2.569   0.267
 9613WAT      O29080   0.335   5.807   8.113
 9613WAT     H129081   0.309   5.758   8.030
 9613WAT     H229082   0.412   5.760   8.156
 9614WAT      O29083   4.990   6.860   3.509
 9614WAT     H129084   5.010   6.921   3.586
 9614WAT     H229085   5.048   6.883   3.431
 9615WAT      O29086   9.454   0.564   5.228
 9615WAT     H129087   9.460   0.608   5.139
 9615WAT     H229088   9.496   0.473   5.223
 9616WAT      O29089   1.517   7.281   4.608
 9616WAT     H129090   1.445   7.325   4.661
 9616WAT     H229091   1.496   7.184   4.598
 9617WAT      O29092   1.825   3.024   1.889
 9617WAT     H129093   1.876   3.042   1.804
 9617WAT     H229094   1.886   2.980   1.955
 9618WAT      O29095   3.314   3.330   6.390
 9618WAT     H129096   3.285   3.423   6.368
 9618WAT     H229097   3.291   3.310   6.485
 9619WAT      O29098   0.643   1.793   6.880
 9619WAT     H129099   0.574   1.842   6.827
 9619WAT     H229100   0.599   1.723   6.936
 9620WAT      O29101   4.721   3.218   4.186
 9620WAT     H129102   4.763   3.271   4.112
 9620WAT     H229103   4.792   3.171   4.237
 9621WAT      O29104   9.351   2.761   8.176
 9621WAT     H129105   9.325   2.778   8.271
 9621WAT     H229106   9.288   2.693   8.137
 9622WAT      O29107   4.071   1.519   4.910
 9622WAT     H129108   4.119   1.469   4.981
 9622WAT     H229109   4.119   1.606   4.892
 9623WAT      O29110   7.591   6.807   2.075
 9623WAT     H129111   7.668   6.853   2.031
 9623WAT     H229112   7.523   6.875   2.102
 9624WAT      O29113   1.173   1.823   3.401
 9624WAT     H129114   1.182   1.726   3.378
 9624WAT     H229115   1.171   1.834   3.500
 9625WAT      O29116   7.458   7.839   4.116
 9625WAT     H129117   7.402   7.810   4.039
 9625WAT     H229118   7.414   7.812   4.202
 9626WAT      O29119   1.618   9.482   5.776
 9626WAT     H129120   1.708   9.524   5.772
 9626WAT     H229121   1.599   9.451   5.870
 9627WAT      O29122   0.396   1.528   5.551
 9627WAT     H129123   0.492   1.507   5.532
 9627WAT     H229124   0.364   1.598   5.486
 9628WAT      O29125   6.820   7.008   4.031
 9628WAT     H129126   6.872   6.923   4.044
 9628WAT     H229127   6.849   7.076   4.098
 9629WAT      O29128   4.508   8.307   8.678
 9629WAT     H129129   4.424   8.313   8.732
 9629WAT     H229130   4.490   8.337   8.584
 9630WAT      O29131   0.092   8.968   4.603
 9630WAT     H129132   0.026   9.043   4.591
 9630WAT     H229133   0.121   8.934   4.514
 9631WAT      O29134   2.781   1.144   3.819
 9631WAT     H129135   2.769   1.047   3.839
 9631WAT     H229136   2.750   1.163   3.726
 9632WAT      O29137   2.732   0.275   8.198
 9632WAT     H129138   2.739   0.338   8.120
 9632WAT     H229139   2.636   0.267   8.225
 9633WAT      O29140   7.328   4.393   8.326
 9633WAT     H129141   7.362   4.344   8.406
 9633WAT     H229142   7.390   4.469   8.305
 9634WAT      O29143   2.409   6.460   3.921
 9634WAT     H129144   2.499   6.450   3.878
 9634WAT     H229145   2.339   6.466   3.850
 9635WAT      O29146   5.461   2.653   7.355
 9635WAT     H129147   5.435   2.606   7.271
 9635WAT     H229148   5.379   2.676   7.407
 9636WAT      O29149   9.229   2.206   0.563
 9636WAT     H129150   9.154   2.239   0.505
 9636WAT     H229151   9.294   2.155   0.508
 9637WAT      O29152   3.199   8.544   7.710
 9637WAT     H129153   3.190   8.487   7.792
 9637WAT     H229154   3.191   8.486   7.629
 9638WAT      O29155   3.308   4.498   0.583
 9638WAT     H129156   3.380   4.566   0.571
 9638WAT     H229157   3.328   4.417   0.528
 9639WAT      O29158   1.329   6.190   8.377
 9639WAT     H129159   1.371   6.220   8.462
 9639WAT     H229160   1.310   6.269   8.319
 9640WAT      O29161   0.620   3.817   6.139
 9640WAT     H129162   0.579   3.735   6.179
 9640WAT     H229163   0.552   3.890   6.137
 9641WAT      O29164   6.235   8.932   9.188
 9641WAT     H129165   6.135   8.928   9.197
 9641WAT     H229166   6.259   8.942   9.092
 9642WAT      O29167   6.657   2.241   4.799
 9642WAT     H129168   6.677   2.145   4.779
 9642WAT     H229169   6.743   2.292   4.810
 9643WAT      O29170   2.134   5.143   9.768
 9643WAT     H129171   2.126   5.044   9.758
 9643WAT     H229172   2.231   5.169   9.769
 9644WAT      O29173   8.831   0.349   9.669
 9644WAT     H129174   8.781   0.276   9.623
 9644WAT     H229175   8.874   0.314   9.752
 9645WAT      O29176   1.223   6.181   0.686
 9645WAT     H129177   1.147   6.237   0.654
 9645WAT     H229178   1.275   6.232   0.755
 9646WAT      O29179   5.557   5.005   5.799
 9646WAT     H129180   5.605   4.990   5.713
 9646WAT     H229181   5.480   4.942   5.806
 9647WAT      O29182   8.500   6.172   9.637
 9647WAT     H129183   8.474   6.153   9.542
 9647WAT     H229184   8.533   6.088   9.680
 9648WAT      O29185   8.307   9.258   4.755
 9648WAT     H129186   8.356   9.213   4.830
 9648WAT     H229187   8.258   9.338   4.789
 9649WAT      O29188   2.215   8.277   8.817
 9649WAT     H129189   2.220   8.200   8.754
 9649WAT     H229190   2.228   8.245   8.911
 9650WAT      O29191   1.169   3.843   5.798
 9650WAT     H129192   1.125   3.911   5.857
 9650WAT     H229193   1.186   3.883   5.708
 9651WAT      O29194   6.235   7.699   3.620
 9651WAT     H129195   6.188   7.644   3.552
 9651WAT     H229196   6.259   7.642   3.699
 9652WAT      O29197   2.948   2.806   3.584
 9652WAT     H129198   2.979   2.856   3.665
 9652WAT     H229199   2.882   2.863   3.535
 9653WAT      O29200   7.614   3.015   9.615
 9653WAT     H129201   7.528   3.016   9.565
 9653WAT     H229202   7.686   2.975   9.558
 9654WAT      O29203   5.569   9.156   1.345
 9654WAT     H129204   5.524   9.239   1.380
 9654WAT     H229205   5.668   9.166   1.352
 9655WAT      O29206   5.172   3.908   8.680
 9655WAT     H129207   5.112   3.855   8.619
 9655WAT     H229208   5.145   4.004   8.678
 9656WAT      O29209   9.104   9.414   8.473
 9656WAT     H129210   9.189   9.397   8.423
 9656WAT     H229211   9.117   9.395   8.570
 9657WAT      O29212   9.627   2.990   6.728
 9657WAT     H129213   9.628   2.895   6.760
 9657WAT     H229214   9.570   3.045   6.789
 9658WAT      O29215   8.429   0.811   5.354
 9658WAT     H129216   8.375   0.749   5.297
 9658WAT     H229217   8.524   0.781   5.354
 9659WAT      O29218   6.458   5.076   6.325
 9659WAT     H129219   6.474   5.108   6.419
 9659WAT     H229220   6.535   5.104   6.267
 9660WAT      O29221   7.763   9.378   1.469
 9660WAT     H129222   7.811   9.292   1.486
 9660WAT     H229223   7.666   9.368   1.492
 9661WAT      O29224   3.395   7.946   0.028
 9661WAT     H129225   3.435   7.860   0.058
 9661WAT     H229226   3.357   7.994   0.107
 9662WAT      O29227   1.269   9.755   4.911
 9662WAT     H129228   1.214   9.832   4.880
 9662WAT     H229229   1.364   9.766   4.880
 9663WAT      O29230   8.308   3.195   0.688
 9663WAT     H129231   8.383   3.177   0.752
 9663WAT     H229232   8.342   3.253   0.613
 9664WAT      O29233   1.357   7.886   1.880
 9664WAT     H129234   1.375   7.882   1.979
 9664WAT     H229235   1.433   7.844   1.831
 9665WAT      O29236   6.260   0.770   9.017
 9665WAT     H129237   6.311   0.846   8.978
 9665WAT     H229238   6.242   0.787   9.114
 9666WAT      O29239   4.608   1.488   2.818
 9666WAT     H129240   4.567   1.553   2.753
 9666WAT     H229241   4.628   1.535   2.903
 9667WAT      O29242   9.122   7.622   7.493
 9667WAT     H129243   9.135   7.644   7.590
 9667WAT     H229244   9.025   7.629   7.470
 9668WAT      O29245   7.213   2.156   1.678
 9668WAT     H129246   7.132   2.098   1.685
 9668WAT     H229247   7.293   2.100   1.658
 9669WAT      O29248   1.463   6.533   0.621
 9669WAT     H129249   1.558   6.565   0.621
 9669WAT     H229250   1.409   6.587   0.557
 9670WAT      O29251   6.075   8.145   7.090
 9670WAT     H129252   6.082   8.197   7.175
 9670WAT     H229253   6.120   8.056   7.101
 9671WAT      O29254   8.381   3.154   7.662
 9671WAT     H129255   8.420   3.200   7.741
 9671WAT     H229256   8.453   3.105   7.612
 9672WAT      O29257   6.861   1.264   3.811
 9672WAT     H129258   6.810   1.347   3.789
 9672WAT     H229259   6.798   1.186   3.816
 9673WAT      O29260   7.678   0.019   5.075
 9673WAT     H129261   7.657  -0.001   5.170
 9673WAT     H229262   7.664   0.117   5.058
 9674WAT      O29263   5.368   3.146   4.158
 9674WAT     H129264   5.323   3.070   4.110
 9674WAT     H229265   5.405   3.112   4.245
 9675WAT      O29266   3.799   1.068   3.552
 9675WAT     H129267   3.843   1.153   3.581
 9675WAT     H229268   3.786   1.009   3.631
 9676WAT      O29269   5.711   3.910   7.180
 9676WAT     H129270   5.635   3.973   7.193
 9676WAT     H229271   5.704   3.835   7.246
 9677WAT      O29272   0.552   8.128   8.525
 9677WAT     H129273   0.626   8.178   8.482
 9677WAT     H229274   0.554   8.144   8.624
 9678WAT      O29275   2.507   4.010   2.354
 9678WAT     H129276   2.575   3.938   2.364
 9678WAT     H229277   2.417   3.969   2.342
 9679WAT      O29278   5.574   2.617   4.320
 9679WAT     H129279   5.517   2.596   4.399
 9679WAT     H229280   5.544   2.561   4.242
 9680WAT      O29281   9.494   2.244   2.843
 9680WAT     H129282   9.430   2.307   2.798
 9680WAT     H229283   9.520   2.172   2.778
 9681WAT      O29284   4.388   9.350   1.831
 9681WAT     H129285   4.387   9.373   1.734
 9681WAT     H229286   4.329   9.413   1.881
 9682WAT      O29287   8.522   1.215   3.383
 9682WAT     H129288   8.602   1.159   3.363
 9682WAT     H229289   8.441   1.176   3.339
 9683WAT      O29290   7.210   4.747   3.732
 9683WAT     H129291   7.244   4.765   3.825
 9683WAT     H229292   7.285   4.760   3.667
 9684WAT      O29293   0.069   3.372   6.638
 9684WAT     H129294   0.117   3.400   6.721
 9684WAT     H229295   0.133   3.326   6.576
 9685WAT      O29296   6.536   8.721   4.365
 9685WAT     H129297   6.623   8.689   4.402
 9685WAT     H229298   6.508   8.803   4.414
 9686WAT      O29299   4.879   8.055   4.269
 9686WAT     H129300   4.884   7.964   4.228
 9686WAT     H229301   4.804   8.058   4.335
 9687WAT      O29302   2.628   1.340   3.964
 9687WAT     H129303   2.663   1.252   3.932
 9687WAT     H229304   2.621   1.339   4.064
 9688WAT      O29305   9.226   3.951   3.453
 9688WAT     H129306   9.130   3.948   3.482
 9688WAT     H229307   9.233   3.916   3.359
 9689WAT      O29308   6.835   1.856   1.187
 9689WAT     H129309   6.852   1.757   1.193
 9689WAT     H229310   6.769   1.874   1.114
 9690WAT      O29311   7.467   4.683   1.783
 9690WAT     H129312   7.543   4.664   1.844
 9690WAT     H229313   7.381   4.677   1.833
 9691WAT      O29314   3.504   7.220   7.287
 9691WAT     H129315   3.410   7.256   7.287
 9691WAT     H229316   3.537   7.212   7.381
 9692WAT      O29317   3.088   1.233   2.610
 9692WAT     H129318   3.140   1.262   2.529
 9692WAT     H229319   3.090   1.307   2.678
 9693WAT      O29320   8.347   8.567   1.751
 9693WAT     H129321   8.436   8.557   1.795
 9693WAT     H229322   8.343   8.655   1.703
 9694WAT      O29323   8.439   1.865   6.050
 9694WAT     H129324   8.381   1.817   5.984
 9694WAT     H229325   8.404   1.957   6.065
 9695WAT      O29326   6.122   4.067   0.511
 9695WAT     H129327   6.187   4.038   0.441
 9695WAT     H229328   6.070   4.146   0.477
 9696WAT      O29329   5.073   6.929   1.628
 9696WAT     H129330   5.075   6.872   1.546
 9696WAT     H229331   5.099   6.874   1.707
 9697WAT      O29332   2.674   3.210   9.631
 9697WAT     H129333   2.698   3.208   9.728
 9697WAT     H229334   2.757   3.209   9.576
 9698WAT      O29335   8.710   6.122   2.541
 9698WAT     H129336   8.766   6.148   2.620
 9698WAT     H229337   8.764   6.064   2.480
 9699WAT      O29338   1.905   2.534   1.715
 9699WAT     H129339   1.819   2.495   1.682
 9699WAT     H229340   1.899   2.634   1.713
 9700WAT      O29341   0.078   1.997   8.098
 9700WAT     H129342   0.171   1.963   8.112
 9700WAT     H229343   0.031   1.939   8.031
 9701WAT      O29344   6.350   1.233   8.874
 9701WAT     H129345   6.273   1.285   8.837
 9701WAT     H229346   6.360   1.252   8.971
 9702WAT      O29347   6.284   2.289   6.126
 9702WAT     H129348   6.235   2.333   6.051
 9702WAT     H229349   6.246   2.198   6.142
 9703WAT      O29350   7.400   0.815   6.274
 9703WAT     H129351   7.417   0.809   6.372
 9703WAT     H229352   7.311   0.858   6.258
 9704WAT      O29353   2.494   9.602   0.270
 9704WAT     H129354   2.398   9.596   0.244
 9704WAT     H229355   2.540   9.516   0.249
 9705WAT      O29356   6.197   7.973   7.557
 9705WAT     H129357   6.148   7.912   7.620
 9705WAT     H229358   6.161   8.066   7.566
 9706WAT      O29359   7.949   8.397   6.874
 9706WAT     H129360   7.946   8.343   6.958
 9706WAT     H229361   7.891   8.354   6.805
 9707WAT      O29362   7.876   5.381   1.551
 9707WAT     H129363   7.889   5.479   1.561
 9707WAT     H229364   7.965   5.335   1.551
 9708WAT      O29365   9.368   1.582   2.875
 9708WAT     H129366   9.366   1.658   2.810
 9708WAT     H229367   9.278   1.539   2.880
 9709WAT      O29368   4.674   9.461   5.676
 9709WAT     H129369   4.617   9.398   5.623
 9709WAT     H229370   4.673   9.551   5.633
 9710WAT      O29371   2.999   4.092   7.546
 9710WAT     H129372   2.977   3.995   7.558
 9710WAT     H229373   2.991   4.140   7.633
 9711WAT      O29374   8.071   5.097   9.596
 9711WAT     H129375   8.092   5.174   9.536
 9711WAT     H229376   7.973   5.096   9.615
 9712WAT      O29377   7.772   7.184   7.183
 9712WAT     H129378   7.772   7.102   7.241
 9712WAT     H229379   7.760   7.265   7.239
 9713WAT      O29380   9.227   7.278   0.153
 9713WAT     H129381   9.262   7.371   0.164
 9713WAT     H229382   9.243   7.247   0.059
 9714WAT      O29383   7.084   1.904   0.634
 9714WAT     H129384   7.079   1.961   0.552
 9714WAT     H229385   7.171   1.855   0.635
 9715WAT      O29386   1.047   7.236   9.419
 9715WAT     H129387   1.007   7.314   9.467
 9715WAT     H229388   1.000   7.224   9.331
 9716WAT      O29389   5.674   6.168   1.245
 9716WAT     H129390   5.734   6.089   1.235
 9716WAT     H229391   5.586   6.138   1.282
 9717WAT      O29392   1.014   5.017   4.149
 9717WAT     H129393   1.033   5.109   4.115
 9717WAT     H229394   0.925   5.017   4.196
 9718WAT      O29395   3.402   6.827   8.720
 9718WAT     H129396   3.462   6.813   8.799
 9718WAT     H229397   3.389   6.925   8.705
 9719WAT      O29398   0.795   0.727   6.693
 9719WAT     H129399   0.854   0.807   6.694
 9719WAT     H229400   0.806   0.678   6.606
 9720WAT      O29401   5.550   4.916   7.564
 9720WAT     H129402   5.537   4.977   7.486
 9720WAT     H229403   5.460   4.884   7.596
 9721WAT      O29404   3.648   8.115   7.425
 9721WAT     H129405   3.573   8.106   7.490
 9721WAT     H229406   3.612   8.115   7.332
 9722WAT      O29407   7.923   6.599   4.523
 9722WAT     H129408   7.887   6.579   4.431
 9722WAT     H229409   7.848   6.595   4.589
 9723WAT      O29410   5.710   2.795   4.036
 9723WAT     H129411   5.725   2.697   4.047
 9723WAT     H229412   5.658   2.811   3.952
 9724WAT      O29413   5.906   3.198   7.422
 9724WAT     H129414   5.987   3.254   7.442
 9724WAT     H229415   5.852   3.242   7.351
 9725WAT      O29416   1.167   6.305   7.678
 9725WAT     H129417   1.246   6.252   7.648
 9725WAT     H229418   1.104   6.317   7.601
 9726WAT      O29419   6.542   0.165   9.159
 9726WAT     H129420   6.542   0.185   9.257
 9726WAT     H229421   6.453   0.130   9.131
 9727WAT      O29422   3.710   3.096   7.761
 9727WAT     H129423   3.717   3.195   7.751
 9727WAT     H229424   3.764   3.066   7.840
 9728WAT      O29425   9.345   1.211   1.148
 9728WAT     H129426   9.271   1.269   1.183
 9728WAT     H229427   9.316   1.168   1.063
 9729WAT      O29428   5.178   1.862   2.057
 9729WAT     H129429   5.252   1.922   2.028
 9729WAT     H229430   5.137   1.898   2.141
 9730WAT      O29431   9.327   1.559   5.324
 9730WAT     H129432   9.389   1.549   5.245
 9730WAT     H229433   9.233   1.542   5.295
 9731WAT      O29434   8.351   2.277   7.370
 9731WAT     H129435   8.449   2.286   7.387
 9731WAT     H229436   8.304   2.260   7.456
 9732WAT      O29437   6.887   9.489   7.146
 9732WAT     H129438   6.889   9.448   7.238
 9732WAT     H229439   6.872   9.587   7.154
 9733WAT      O29440   3.849   8.272   0.599
 9733WAT     H129441   3.802   8.306   0.517
 9733WAT     H229442   3.948   8.272   0.583
 9734WAT      O29443   9.115   5.218   5.329
 9734WAT     H129444   9.084   5.131   5.368
 9734WAT     H229445   9.054   5.245   5.255
 9735WAT      O29446   1.330   8.886   2.894
 9735WAT     H129447   1.404   8.836   2.939
 9735WAT     H229448   1.300   8.962   2.952
 9736WAT      O29449   3.691   9.327   2.596
 9736WAT     H129450   3.744   9.390   2.539
 9736WAT     H229451   3.606   9.303   2.549
 9737WAT      O29452   2.615   1.139   0.516
 9737WAT     H129453   2.539   1.103   0.570
 9737WAT     H229454   2.641   1.071   0.447
 9738WAT      O29455   2.067   6.532   7.574
 9738WAT     H129456   2.130   6.603   7.605
 9738WAT     H229457   2.120   6.454   7.540
 9739WAT      O29458   9.803   4.239   3.357
 9739WAT     H129459   9.784   4.182   3.436
 9739WAT     H229460   9.753   4.204   3.277
 9740WAT      O29461   0.117   9.380   2.981
 9740WAT     H129462   0.053   9.415   3.049
 9740WAT     H229463   0.206   9.364   3.023
 9741WAT      O29464   9.692   2.065   8.208
 9741WAT     H129465   9.644   2.007   8.274
 9741WAT     H229466   9.790   2.058   8.224
 9742WAT      O29467   6.782   0.338   2.570
 9742WAT     H129468   6.750   0.430   2.591
 9742WAT     H229469   6.881   0.333   2.586
 9743WAT      O29470   4.673   2.817   1.291
 9743WAT     H129471   4.648   2.913   1.276
 9743WAT     H229472   4.711   2.807   1.382
 9744WAT      O29473   0.353   2.475   7.240
 9744WAT     H129474   0.397   2.563   7.226
 9744WAT     H229475   0.300   2.450   7.158
 9745WAT      O29476   7.730   2.489   4.149
 9745WAT     H129477   7.734   2.439   4.062
 9745WAT     H229478   7.799   2.561   4.149
 9746WAT      O29479   4.595   6.789   0.163
 9746WAT     H129480   4.609   6.808   0.066
 9746WAT     H229481   4.497   6.788   0.183
 9747WAT      O29482   4.548   7.315   3.692
 9747WAT     H129483   4.543   7.409   3.657
 9747WAT     H229484   4.560   7.317   3.791
 9748WAT      O29485   5.776   4.812   4.617
 9748WAT     H129486   5.841   4.783   4.546
 9748WAT     H229487   5.827   4.849   4.695
 9749WAT      O29488   0.907   8.929   0.366
 9749WAT     H129489   0.940   8.886   0.451
 9749WAT     H229490   0.831   8.876   0.330
 9750WAT      O29491   8.091   3.098   4.717
 9750WAT     H129492   8.020   3.165   4.734
 9750WAT     H229493   8.052   3.006   4.723
 9751WAT      O29494   1.771   2.200   5.016
 9751WAT     H129495   1.817   2.287   5.000
 9751WAT     H229496   1.749   2.156   4.929
 9752WAT      O29497   3.822   3.429   7.432
 9752WAT     H129498   3.755   3.498   7.405
 9752WAT     H229499   3.775   3.345   7.459
 9753WAT      O29500   9.366   5.216   0.556
 9753WAT     H129501   9.370   5.307   0.599
 9753WAT     H229502   9.373   5.146   0.627
 9754WAT      O29503   7.877   3.689   5.556
 9754WAT     H129504   7.799   3.748   5.533
 9754WAT     H229505   7.880   3.674   5.654
 9755WAT      O29506   2.834   8.407   3.690
 9755WAT     H129507   2.763   8.336   3.691
 9755WAT     H229508   2.792   8.494   3.665
 9756WAT      O29509   8.522   3.300   8.743
 9756WAT     H129510   8.433   3.279   8.702
 9756WAT     H229511   8.594   3.280   8.677
 9757WAT      O29512   2.886   0.086   8.684
 9757WAT     H129513   2.842   0.016   8.627
 9757WAT     H229514   2.919   0.160   8.626
 9758WAT      O29515   8.249   7.209   2.460
 9758WAT     H129516   8.155   7.226   2.490
 9758WAT     H229517   8.311   7.215   2.538
 9759WAT      O29518   8.637   5.981   6.702
 9759WAT     H129519   8.652   5.888   6.736
 9759WAT     H229520   8.724   6.018   6.669
 9760WAT      O29521   2.808   3.794   9.811
 9760WAT     H129522   2.791   3.721   9.744
 9760WAT     H229523   2.746   3.782   9.889
 9761WAT      O29524   2.976   7.942   4.272
 9761WAT     H129525   3.045   8.015   4.267
 9761WAT     H229526   2.946   7.930   4.367
 9762WAT      O29527   3.350   8.655   2.548
 9762WAT     H129528   3.384   8.747   2.570
 9762WAT     H229529   3.363   8.596   2.628
 9763WAT      O29530   2.737   5.314   3.424
 9763WAT     H129531   2.737   5.236   3.361
 9763WAT     H229532   2.808   5.300   3.494
 9764WAT      O29533   5.700   1.927   4.254
 9764WAT     H129534   5.796   1.954   4.248
 9764WAT     H229535   5.645   2.005   4.283
 9765WAT      O29536   9.651   1.657   4.350
 9765WAT     H129537   9.595   1.596   4.293
 9765WAT     H229538   9.614   1.660   4.443
 9766WAT      O29539   8.780   9.085   8.864
 9766WAT     H129540   8.697   9.110   8.913
 9766WAT     H229541   8.852   9.059   8.929
 9767WAT      O29542   9.885   1.491   9.801
 9767WAT     H129543   9.831   1.409   9.782
 9767WAT     H229544   9.961   1.467   9.862
 9768WAT      O29545   9.757   7.150   8.107
 9768WAT     H129546   9.717   7.232   8.065
 9768WAT     H229547   9.716   7.069   8.066
 9769WAT      O29548   2.077   0.846   4.884
 9769WAT     H129549   2.019   0.908   4.832
 9769WAT     H229550   2.021   0.798   4.952
 9770WAT      O29551   3.608   6.690   5.710
 9770WAT     H129552   3.602   6.605   5.657
 9770WAT     H229553   3.603   6.768   5.647
 9771WAT      O29554   3.200   4.721   5.240
 9771WAT     H129555   3.256   4.801   5.219
 9771WAT     H229556   3.257   4.639   5.237
 9772WAT      O29557   7.738   3.004   0.456
 9772WAT     H129558   7.837   3.007   0.458
 9772WAT     H229559   7.702   3.002   0.549
 9773WAT      O29560   0.449   0.115   3.738
 9773WAT     H129561   0.457   0.053   3.816
 9773WAT     H229562   0.485   0.205   3.763
 9774WAT      O29563   1.827   4.885   0.118
 9774WAT     H129564   1.794   4.966   0.068
 9774WAT     H229565   1.859   4.913   0.208
 9775WAT      O29566   7.681   7.409   5.982
 9775WAT     H129567   7.724   7.485   6.031
 9775WAT     H229568   7.751   7.359   5.930
 9776WAT      O29569   2.721   5.531   5.289
 9776WAT     H129570   2.679   5.448   5.327
 9776WAT     H229571   2.650   5.587   5.247
 9777WAT      O29572   7.484   9.473   7.622
 9777WAT     H129573   7.523   9.553   7.578
 9777WAT     H229574   7.388   9.491   7.644
 9778WAT      O29575   9.580   0.427   7.841
 9778WAT     H129576   9.569   0.498   7.771
 9778WAT     H229577   9.509   0.357   7.829
 9779WAT      O29578   5.646   3.926   7.736
 9779WAT     H129579   5.558   3.942   7.782
 9779WAT     H229580   5.682   4.012   7.703
 9780WAT      O29581   6.944   0.936   3.090
 9780WAT     H129582   6.997   0.906   3.169
 9780WAT     H229583   6.887   0.861   3.057
 9781WAT      O29584   0.185   5.562   7.457
 9781WAT     H129585   0.256   5.598   7.518
 9781WAT     H229586   0.095   5.593   7.488
 9782WAT      O29587   8.773   2.137   8.261
 9782WAT     H129588   8.817   2.103   8.344
 9782WAT     H229589   8.735   2.061   8.209
 9783WAT      O29590   8.810   8.972   3.328
 9783WAT     H129591   8.872   8.908   3.375
 9783WAT     H229592   8.723   8.926   3.311
 9784WAT      O29593   3.755   8.434   6.914
 9784WAT     H129594   3.668   8.403   6.876
 9784WAT     H229595   3.791   8.366   6.978
 9785WAT      O29596   1.662   6.050   3.994
 9785WAT     H129597   1.673   6.079   4.089
 9785WAT     H229598   1.564   6.048   3.972
 9786WAT      O29599   4.743   0.185   5.162
 9786WAT     H129600   4.656   0.186   5.114
 9786WAT     H229601   4.786   0.095   5.152
 9787WAT      O29602   7.001   5.310   1.697
 9787WAT     H129603   7.081   5.310   1.638
 9787WAT     H229604   6.937   5.240   1.667
 9788WAT      O29605   1.891   3.570   8.728
 9788WAT     H129606   1.876   3.658   8.683
 9788WAT     H229607   1.951   3.583   8.807
 9789WAT      O29608   6.596   5.952   5.686
 9789WAT     H129609   6.577   5.999   5.772
 9789WAT     H229610   6.510   5.930   5.641
 9790WAT      O29611   7.029   3.031   7.107
 9790WAT     H129612   6.994   3.051   7.198
 9790WAT     H229613   7.073   2.941   7.107
 9791WAT      O29614   3.266   1.938   3.932
 9791WAT     H129615   3.264   1.897   4.024
 9791WAT     H229616   3.175   1.974   3.910
 9792WAT      O29617   2.730   4.527   5.943
 9792WAT     H129618   2.639   4.485   5.935
 9792WAT     H229619   2.799   4.462   5.911
 9793WAT      O29620   3.579   6.918   5.578
 9793WAT     H129621   3.537   6.986   5.519
 9793WAT     H229622   3.675   6.941   5.593
 9794WAT      O29623   5.003   9.250   9.752
 9794WAT     H129624   4.937   9.323   9.771
 9794WAT     H229625   5.027   9.203   9.837
 9795WAT      O29626   6.599   3.209   6.783
 9795WAT     H129627   6.539   3.261   6.843
 9795WAT     H229628   6.694   3.220   6.813
 9796WAT      O29629   3.792   0.116   8.045
 9796WAT     H129630   3.788   0.215   8.035
 9796WAT     H229631   3.723   0.073   7.987
 9797WAT      O29632   4.822   5.067   7.595
 9797WAT     H129633   4.852   5.153   7.636
 9797WAT     H229634   4.735   5.040   7.635
 9798WAT      O29635   2.788   8.648   7.808
 9798WAT     H129636   2.786   8.729   7.749
 9798WAT     H229637   2.694   8.616   7.822
 9799WAT      O29638   1.001   5.978   0.769
 9799WAT     H129639   1.087   6.005   0.726
 9799WAT     H229640   0.986   5.880   0.756
 9800WAT      O29641   9.444   8.090   7.828
 9800WAT     H129642   9.374   8.150   7.866
 9800WAT     H229643   9.427   8.076   7.730
 9801WAT      O29644   2.179   3.435   2.002
 9801WAT     H129645   2.108   3.367   2.017
 9801WAT     H229646   2.229   3.450   2.088
 9802WAT      O29647   8.697   7.171   0.274
 9802WAT     H129648   8.663   7.093   0.327
 9802WAT     H229649   8.698   7.252   0.332
 9803WAT      O29650   8.360   7.587   9.381
 9803WAT     H129651   8.340   7.634   9.467
 9803WAT     H229652   8.274   7.563   9.336
 9804WAT      O29653   3.556   4.559   5.158
 9804WAT     H129654   3.652   4.565   5.183
 9804WAT     H229655   3.547   4.523   5.065
 9805WAT      O29656   6.660   6.982   9.736
 9805WAT     H129657   6.657   7.030   9.823
 9805WAT     H229658   6.568   6.982   9.695
 9806WAT      O29659   6.528   7.685   5.997
 9806WAT     H129660   6.549   7.594   6.032
 9806WAT     H229661   6.547   7.754   6.068
 9807WAT      O29662   6.179   1.357   8.723
 9807WAT     H129663   6.187   1.351   8.623
 9807WAT     H229664   6.158   1.452   8.749
 9808WAT      O29665   6.375   1.978   8.443
 9808WAT     H129666   6.419   1.889   8.430
 9808WAT     H229667   6.420   2.026   8.518
 9809WAT      O29668   3.433   2.633   5.451
 9809WAT     H129669   3.381   2.714   5.479
 9809WAT     H229670   3.495   2.658   5.377
 9810WAT      O29671   4.578   9.259   3.835
 9810WAT     H129672   4.608   9.278   3.928
 9810WAT     H229673   4.649   9.288   3.770
 9811WAT      O29674   7.591   8.465   8.688
 9811WAT     H129675   7.581   8.484   8.785
 9811WAT     H229676   7.551   8.540   8.635
 9812WAT      O29677   7.682   2.406   5.584
 9812WAT     H129678   7.742   2.470   5.536
 9812WAT     H229679   7.617   2.457   5.640
 9813WAT      O29680   1.613   7.949   5.276
 9813WAT     H129681   1.699   7.979   5.234
 9813WAT     H229682   1.602   7.993   5.365
 9814WAT      O29683   7.080   5.993   8.014
 9814WAT     H129684   7.137   5.923   7.971
 9814WAT     H229685   7.127   6.081   8.011
 9815WAT      O29686   8.090   8.471   3.600
 9815WAT     H129687   8.160   8.543   3.593
 9815WAT     H229688   8.008   8.509   3.643
 9816WAT      O29689   6.744   1.910   6.198
 9816WAT     H129690   6.838   1.944   6.207
 9816WAT     H229691   6.745   1.811   6.184
 9817WAT      O29692   2.159   2.227   3.997
 9817WAT     H129693   2.217   2.277   4.060
 9817WAT     H229694   2.091   2.289   3.957
 9818WAT      O29695   4.883   3.270   2.596
 9818WAT     H129696   4.810   3.293   2.661
 9818WAT     H229697   4.882   3.172   2.578
 9819WAT      O29698   3.062   1.527   0.534
 9819WAT     H129699   3.097   1.467   0.462
 9819WAT     H229700   3.010   1.602   0.492
 9820WAT      O29701   6.539   3.790   1.524
 9820WAT     H129702   6.590   3.805   1.440
 9820WAT     H229703   6.556   3.865   1.588
 9821WAT      O29704   9.460   2.685   8.707
 9821WAT     H129705   9.429   2.646   8.620
 9821WAT     H229706   9.381   2.706   8.764
 9822WAT      O29707   2.949   8.250   3.993
 9822WAT     H129708   2.950   8.294   3.903
 9822WAT     H229709   2.959   8.320   4.064
 9823WAT      O29710   6.670   4.835   0.870
 9823WAT     H129711   6.669   4.748   0.921
 9823WAT     H229712   6.609   4.900   0.916
 9824WAT      O29713   9.080   3.556   2.573
 9824WAT     H129714   9.158   3.528   2.628
 9824WAT     H229715   9.002   3.576   2.632
 9825WAT      O29716   8.535   1.864   4.876
 9825WAT     H129717   8.479   1.785   4.853
 9825WAT     H229718   8.622   1.834   4.913
 9826WAT      O29719   9.322   3.017   8.511
 9826WAT     H129720   9.291   2.997   8.418
 9826WAT     H229721   9.252   3.070   8.559
 9827WAT      O29722   1.553   7.647   2.325
 9827WAT     H129723   1.469   7.680   2.367
 9827WAT     H229724   1.545   7.653   2.225
 9828WAT      O29725   1.376   9.270   4.074
 9828WAT     H129726   1.407   9.296   3.983
 9828WAT     H229727   1.348   9.174   4.074
 9829WAT      O29728   5.205   5.616   2.427
 9829WAT     H129729   5.204   5.642   2.330
 9829WAT     H229730   5.187   5.517   2.435
 9830WAT      O29731   6.272   3.252   3.509
 9830WAT     H129732   6.220   3.274   3.426
 9830WAT     H229733   6.339   3.323   3.526
 9831WAT      O29734   9.227   2.361   1.767
 9831WAT     H129735   9.220   2.289   1.698
 9831WAT     H229736   9.259   2.446   1.725
 9832WAT      O29737   7.251   1.427   7.484
 9832WAT     H129738   7.204   1.341   7.499
 9832WAT     H229739   7.184   1.502   7.482
 9833WAT      O29740   8.841   2.997   5.609
 9833WAT     H129741   8.894   3.048   5.542
 9833WAT     H229742   8.780   3.059   5.658
 9834WAT      O29743   9.543   2.067   4.499
 9834WAT     H129744   9.551   2.161   4.465
 9834WAT     H229745   9.452   2.053   4.538
 9835WAT      O29746   3.298   3.083   6.234
 9835WAT     H129747   3.376   3.031   6.269
 9835WAT     H229748   3.296   3.174   6.276
 9836WAT      O29749   0.119   8.435   5.618
 9836WAT     H129750   0.124   8.357   5.681
 9836WAT     H229751   0.197   8.496   5.636
 9837WAT      O29752   4.972   7.901   6.054
 9837WAT     H129753   4.912   7.975   6.086
 9837WAT     H229754   5.063   7.912   6.096
 9838WAT      O29755   3.721   8.630   1.411
 9838WAT     H129756   3.793   8.693   1.384
 9838WAT     H229757   3.746   8.537   1.385
 9839WAT      O29758   1.525   2.045   2.268
 9839WAT     H129759   1.428   2.042   2.291
 9839WAT     H229760   1.563   2.134   2.295
 9840WAT      O29761   6.256   6.205   7.563
 9840WAT     H129762   6.218   6.290   7.528
 9840WAT     H229763   6.183   6.138   7.575
 9841WAT      O29764   7.630   2.775   2.543
 9841WAT     H129765   7.644   2.874   2.531
 9841WAT     H229766   7.699   2.726   2.490
 9842WAT      O29767   8.302   4.023   3.205
 9842WAT     H129768   8.244   3.978   3.136
 9842WAT     H229769   8.247   4.088   3.257
 9843WAT      O29770   6.885   9.677   9.014
 9843WAT     H129771   6.948   9.680   8.937
 9843WAT     H229772   6.830   9.761   9.017
 9844WAT      O29773   2.076   8.449   6.584
 9844WAT     H129774   2.152   8.387   6.603
 9844WAT     H229775   2.102   8.542   6.607
 9845WAT      O29776   2.893   8.090   7.415
 9845WAT     H129777   2.977   8.135   7.446
 9845WAT     H229778   2.821   8.158   7.404
 9846WAT      O29779   6.461   0.830   9.277
 9846WAT     H129780   6.368   0.838   9.240
 9846WAT     H229781   6.470   0.892   9.356
 9847WAT      O29782   2.028   2.816   4.917
 9847WAT     H129783   2.049   2.737   4.858
 9847WAT     H229784   2.109   2.872   4.927
 9848WAT      O29785   7.734   1.082   3.024
 9848WAT     H129786   7.696   1.014   2.960
 9848WAT     H229787   7.664   1.150   3.045
 9849WAT      O29788   9.694   4.564   6.017
 9849WAT     H129789   9.758   4.488   6.026
 9849WAT     H229790   9.726   4.626   5.945
 9850WAT      O29791   5.241   9.238   9.372
 9850WAT     H129792   5.178   9.172   9.411
 9850WAT     H229793   5.235   9.235   9.272
 9851WAT      O29794   0.901   1.726   6.313
 9851WAT     H129795   0.935   1.765   6.398
 9851WAT     H229796   0.916   1.627   6.313
 9852WAT      O29797   1.566   0.141   7.954
 9852WAT     H129798   1.578   0.173   8.048
 9852WAT     H229799   1.473   0.109   7.941
 9853WAT      O29800   0.941   7.801   5.522
 9853WAT     H129801   0.868   7.758   5.467
 9853WAT     H229802   0.925   7.899   5.527
 9854WAT      O29803   0.444   5.236   6.933
 9854WAT     H129804   0.400   5.151   6.963
 9854WAT     H229805   0.375   5.300   6.901
 9855WAT      O29806   4.131   0.896   6.199
 9855WAT     H129807   4.137   0.796   6.193
 9855WAT     H229808   4.116   0.933   6.108
 9856WAT      O29809   2.708   1.766   3.929
 9856WAT     H129810   2.749   1.777   3.838
 9856WAT     H229811   2.641   1.692   3.926
 9857WAT      O29812   7.904   1.537   2.506
 9857WAT     H129813   7.828   1.575   2.559
 9857WAT     H229814   7.949   1.611   2.457
 9858WAT      O29815   6.060   0.386   6.133
 9858WAT     H129816   6.107   0.472   6.151
 9858WAT     H229817   6.127   0.313   6.118
 9859WAT      O29818   1.565   2.265   6.863
 9859WAT     H129819   1.549   2.283   6.766
 9859WAT     H229820   1.487   2.298   6.917
 9860WAT      O29821   6.943   2.860   8.141
 9860WAT     H129822   7.025   2.870   8.197
 9860WAT     H229823   6.932   2.942   8.084
 9861WAT      O29824   8.585   7.477   4.724
 9861WAT     H129825   8.672   7.486   4.675
 9861WAT     H229826   8.565   7.380   4.738
 9862WAT      O29827   1.628   2.948   5.469
 9862WAT     H129828   1.599   3.027   5.523
 9862WAT     H229829   1.568   2.870   5.489
 9863WAT      O29830   6.166   4.941   8.087
 9863WAT     H129831   6.129   4.973   8.000
 9863WAT     H229832   6.112   4.863   8.119
 9864WAT      O29833   4.384   1.276   5.389
 9864WAT     H129834   4.367   1.363   5.436
 9864WAT     H229835   4.431   1.293   5.302
 9865WAT      O29836   0.721   2.598   8.214
 9865WAT     H129837   0.771   2.575   8.130
 9865WAT     H229838   0.648   2.662   8.193
 9866WAT      O29839   0.163   7.637   2.648
 9866WAT     H129840   0.228   7.563   2.630
 9866WAT     H229841   0.148   7.690   2.565
 9867WAT      O29842   2.938   2.822   9.342
 9867WAT     H129843   3.024   2.815   9.393
 9867WAT     H229844   2.919   2.919   9.323
 9868WAT      O29845   2.209   7.581   2.576
 9868WAT     H129846   2.238   7.513   2.643
 9868WAT     H229847   2.110   7.571   2.561
 9869WAT      O29848   8.904   5.484   7.422
 9869WAT     H129849   8.920   5.422   7.346
 9869WAT     H229850   8.872   5.432   7.501
 9870WAT      O29851   3.812   1.170   4.401
 9870WAT     H129852   3.866   1.087   4.393
 9870WAT     H229853   3.868   1.249   4.374
 9871WAT      O29854   3.244   7.178   2.432
 9871WAT     H129855   3.232   7.275   2.411
 9871WAT     H229856   3.302   7.136   2.362
 9872WAT      O29857   6.907   8.635   8.735
 9872WAT     H129858   6.858   8.704   8.789
 9872WAT     H229859   6.998   8.670   8.713
 9873WAT      O29860   5.048   6.985   1.178
 9873WAT     H129861   5.056   6.893   1.215
 9873WAT     H229862   5.104   7.048   1.233
 9874WAT      O29863   1.427   7.979   3.236
 9874WAT     H129864   1.460   7.894   3.278
 9874WAT     H229865   1.478   8.056   3.273
 9875WAT      O29866   0.854   7.074   0.915
 9875WAT     H129867   0.885   7.155   0.965
 9875WAT     H229868   0.923   7.048   0.847
 9876WAT      O29869   0.686   6.115   2.226
 9876WAT     H129870   0.682   6.105   2.325
 9876WAT     H229871   0.622   6.052   2.183
 9877WAT      O29872   9.020   1.349   0.830
 9877WAT     H129873   8.975   1.392   0.751
 9877WAT     H229874   9.107   1.396   0.847
 9878WAT      O29875   3.911   2.626   8.582
 9878WAT     H129876   3.908   2.587   8.490
 9878WAT     H229877   4.003   2.657   8.603
 9879WAT      O29878   5.549   2.594   7.714
 9879WAT     H129879   5.562   2.524   7.784
 9879WAT     H229880   5.621   2.663   7.722
 9880WAT      O29881   1.165   8.566   0.599
 9880WAT     H129882   1.193   8.612   0.515
 9880WAT     H229883   1.071   8.592   0.621
 9881WAT      O29884   0.700   7.702   5.451
 9881WAT     H129885   0.653   7.770   5.394
 9881WAT     H229886   0.655   7.698   5.540
 9882WAT      O29887   9.386   7.716   2.793
 9882WAT     H129888   9.394   7.661   2.711
 9882WAT     H229889   9.476   7.729   2.834
 9883WAT      O29890   5.005   3.440   1.053
 9883WAT     H129891   5.065   3.415   1.129
 9883WAT     H229892   4.923   3.384   1.055
 9884WAT      O29893   1.899   9.757   5.198
 9884WAT     H129894   1.816   9.760   5.254
 9884WAT     H229895   1.900   9.835   5.136
 9885WAT      O29896   0.026   0.599   5.423
 9885WAT     H129897   0.094   0.544   5.373
 9885WAT     H229898  -0.039   0.538   5.468
 9886WAT      O29899   9.883   6.222   2.504
 9886WAT     H129900   9.931   6.149   2.553
 9886WAT     H229901   9.945   6.298   2.488
 9887WAT      O29902   1.835   8.332   0.682
 9887WAT     H129903   1.791   8.284   0.605
 9887WAT     H229904   1.827   8.276   0.764
 9888WAT      O29905   7.384   8.013   1.396
 9888WAT     H129906   7.449   8.079   1.433
 9888WAT     H229907   7.396   8.006   1.297
 9889WAT      O29908   0.847   7.738   1.504
 9889WAT     H129909   0.757   7.774   1.477
 9889WAT     H229910   0.915   7.811   1.498
 9890WAT      O29911   9.511   2.068   6.757
 9890WAT     H129912   9.458   1.999   6.806
 9890WAT     H229913   9.586   2.100   6.814
 9891WAT      O29914   7.973   1.972   5.844
 9891WAT     H129915   7.928   2.051   5.802
 9891WAT     H229916   8.056   2.003   5.891
 9892WAT      O29917   9.565   4.670   9.810
 9892WAT     H129918   9.467   4.668   9.827
 9892WAT     H229919   9.595   4.765   9.800
 9893WAT      O29920   8.802   7.456   6.486
 9893WAT     H129921   8.708   7.473   6.454
 9893WAT     H229922   8.840   7.378   6.435
 9894WAT      O29923   2.906   5.547   6.341
 9894WAT     H129924   2.982   5.598   6.380
 9894WAT     H229925   2.933   5.509   6.252
 9895WAT      O29926   9.760   0.182   1.756
 9895WAT     H129927   9.761   0.084   1.735
 9895WAT     H229928   9.670   0.220   1.735
 9896WAT      O29929   9.390   4.139   3.558
 9896WAT     H129930   9.336   4.064   3.519
 9896WAT     H229931   9.485   4.109   3.568
 9897WAT      O29932   8.308   2.698   1.593
 9897WAT     H129933   8.367   2.619   1.610
 9897WAT     H229934   8.319   2.728   1.499
 9898WAT      O29935   3.110   6.861   8.675
 9898WAT     H129936   3.068   6.776   8.646
 9898WAT     H229937   3.203   6.867   8.638
 9899WAT      O29938   0.133   7.268   9.810
 9899WAT     H129939   0.075   7.244   9.731
 9899WAT     H229940   0.075   7.297   9.886
 9900WAT      O29941   7.722   4.086   2.960
 9900WAT     H129942   7.630   4.097   2.997
 9900WAT     H229943   7.777   4.166   2.982
 9901WAT      O29944   5.843   1.542   9.842
 9901WAT     H129945   5.771   1.594   9.795
 9901WAT     H229946   5.907   1.505   9.775
 9902WAT      O29947   8.457   2.793   5.376
 9902WAT     H129948   8.446   2.792   5.475
 9902WAT     H229949   8.469   2.700   5.342
 9903WAT      O29950   2.747   3.711   0.675
 9903WAT     H129951   2.785   3.782   0.616
 9903WAT     H229952   2.737   3.626   0.623
 9904WAT      O29953   0.523   5.787   1.069
 9904WAT     H129954   0.531   5.867   1.010
 9904WAT     H229955   0.458   5.805   1.142
 9905WAT      O29956   2.502   2.842   1.412
 9905WAT     H129957   2.427   2.785   1.378
 9905WAT     H229958   2.549   2.886   1.336
 9906WAT      O29959   6.271   9.053   1.922
 9906WAT     H129960   6.213   9.073   2.000
 9906WAT     H229961   6.304   9.138   1.881
 9907WAT      O29962   7.691   6.116   5.637
 9907WAT     H129963   7.689   6.021   5.667
 9907WAT     H229964   7.745   6.170   5.702
 9908WAT      O29965   7.758   7.488   0.304
 9908WAT     H129966   7.843   7.518   0.262
 9908WAT     H229967   7.748   7.531   0.394
 9909WAT      O29968   6.574   0.552   7.803
 9909WAT     H129969   6.579   0.644   7.842
 9909WAT     H229970   6.520   0.494   7.864
 9910WAT      O29971   5.494   9.476   5.839
 9910WAT     H129972   5.586   9.483   5.878
 9910WAT     H229973   5.428   9.460   5.912
 9911WAT      O29974   3.412   3.290   3.570
 9911WAT     H129975   3.482   3.219   3.565
 9911WAT     H229976   3.450   3.371   3.615
 9912WAT      O29977   2.132   0.522   5.892
 9912WAT     H129978   2.119   0.603   5.834
 9912WAT     H229979   2.043   0.479   5.908
 9913WAT      O29980   6.374   6.221   0.795
 9913WAT     H129981   6.380   6.177   0.706
 9913WAT     H229982   6.319   6.165   0.857
 9914WAT      O29983   2.929   3.937   3.304
 9914WAT     H129984   2.835   3.903   3.301
 9914WAT     H229985   2.938   4.017   3.244
 9915WAT      O29986   7.676   4.065   0.154
 9915WAT     H129987   7.603   4.007   0.117
 9915WAT     H229988   7.683   4.051   0.252
 9916WAT      O29989   5.877   1.273   4.592
 9916WAT     H129990   5.865   1.300   4.688
 9916WAT     H229991   5.794   1.228   4.559
 9917WAT      O29992   7.714   0.586   2.046
 9917WAT     H129993   7.681   0.572   2.139
 9917WAT     H229994   7.658   0.533   1.982
 9918WAT      O29995   5.442   6.545   2.830
 9918WAT     H129996   5.513   6.488   2.788
 9918WAT     H229997   5.400   6.496   2.906
 9919WAT      O29998   4.611   8.619   9.251
 9919WAT     H129999   4.633   8.605   9.155
 9919WAT     H230000   4.547   8.549   9.281
 9920WAT      O30001   7.680   5.274   0.669
 9920WAT     H130002   7.626   5.350   0.706
 9920WAT     H230003   7.776   5.301   0.664
 9921WAT      O30004   0.102   8.727   5.673
 9921WAT     H130005   0.191   8.683   5.660
 9921WAT     H230006   0.055   8.684   5.750
 9922WAT      O30007   1.978   4.432   3.217
 9922WAT     H130008   1.897   4.443   3.274
 9922WAT     H230009   1.997   4.335   3.204
 9923WAT      O30010   0.529   2.559   0.799
 9923WAT     H130011   0.594   2.626   0.836
 9923WAT     H230012   0.453   2.607   0.756
 9924WAT      O30013   6.185   9.329   2.541
 9924WAT     H130014   6.168   9.393   2.466
 9924WAT     H230015   6.279   9.340   2.574
 9925WAT      O30016   8.848   2.187   1.243
 9925WAT     H130017   8.923   2.125   1.218
 9925WAT     H230018   8.847   2.265   1.181
 9926WAT      O30019   6.032   0.093   2.306
 9926WAT     H130020   5.955   0.048   2.262
 9926WAT     H230021   6.078   0.028   2.367
 9927WAT      O30022   7.301   8.865   7.912
 9927WAT     H130023   7.365   8.920   7.965
 9927WAT     H230024   7.329   8.865   7.816
 9928WAT      O30025   5.861   6.162   2.680
 9928WAT     H130026   5.852   6.062   2.678
 9928WAT     H230027   5.920   6.188   2.756
 9929WAT      O30028   4.426   5.916   4.580
 9929WAT     H130029   4.372   5.984   4.531
 9929WAT     H230030   4.443   5.838   4.519
 9930WAT      O30031   2.490   6.679   6.790
 9930WAT     H130032   2.563   6.611   6.778
 9930WAT     H230033   2.443   6.662   6.877
 9931WAT      O30034   6.702   0.198   0.186
 9931WAT     H130035   6.706   0.103   0.157
 9931WAT     H230036   6.778   0.249   0.145
 9932WAT      O30037   0.373   7.586   7.831
 9932WAT     H130038   0.343   7.491   7.827
 9932WAT     H230039   0.327   7.633   7.906
 9933WAT      O30040   1.307   8.294   6.194
 9933WAT     H130041   1.370   8.354   6.243
 9933WAT     H230042   1.297   8.208   6.245
 9934WAT      O30043   2.813   6.505   4.803
 9934WAT     H130044   2.890   6.510   4.740
 9934WAT     H230045   2.732   6.547   4.762
 9935WAT      O30046   4.611   3.666   7.958
 9935WAT     H130047   4.697   3.697   7.919
 9935WAT     H230048   4.537   3.726   7.927
 9936WAT      O30049   2.834   7.698   1.171
 9936WAT     H130050   2.829   7.682   1.270
 9936WAT     H230051   2.741   7.699   1.133
 9937WAT      O30052   2.869   8.544   6.517
 9937WAT     H130053   2.870   8.445   6.527
 9937WAT     H230054   2.962   8.580   6.529
 9938WAT      O30055   1.024   5.214   5.889
 9938WAT     H130056   1.076   5.167   5.959
 9938WAT     H230057   0.926   5.199   5.903
 9939WAT      O30058   1.738   8.043   7.915
 9939WAT     H130059   1.658   8.013   7.967
 9939WAT     H230060   1.788   8.111   7.968
 9940WAT      O30061   1.270   4.237   6.298
 9940WAT     H130062   1.201   4.172   6.329
 9940WAT     H230063   1.255   4.325   6.343
 9941WAT      O30064   3.291   7.427   9.878
 9941WAT     H130065   3.206   7.379   9.856
 9941WAT     H230066   3.270   7.515   9.921
 9942WAT      O30067   5.833   7.430   1.659
 9942WAT     H130068   5.843   7.405   1.755
 9942WAT     H230069   5.920   7.415   1.612
 9943WAT      O30070   2.100   2.889   2.314
 9943WAT     H130071   2.063   2.917   2.403
 9943WAT     H230072   2.141   2.969   2.269
 9944WAT      O30073   9.191   2.729   3.399
 9944WAT     H130074   9.106   2.766   3.362
 9944WAT     H230075   9.174   2.639   3.440
 9945WAT      O30076   4.678   5.155   8.863
 9945WAT     H130077   4.640   5.073   8.822
 9945WAT     H230078   4.723   5.133   8.950
 9946WAT      O30079   5.520   6.543   6.364
 9946WAT     H130080   5.517   6.622   6.425
 9946WAT     H230081   5.603   6.490   6.382
 9947WAT      O30082   4.603   3.591   2.875
 9947WAT     H130083   4.565   3.631   2.792
 9947WAT     H230084   4.682   3.645   2.905
 9948WAT      O30085   1.228   5.235   4.783
 9948WAT     H130086   1.286   5.309   4.751
 9948WAT     H230087   1.203   5.176   4.706
 9949WAT      O30088   5.441   8.015   3.651
 9949WAT     H130089   5.372   8.046   3.717
 9949WAT     H230090   5.477   8.094   3.601
 9950WAT      O30091   1.202   6.959   1.088
 9950WAT     H130092   1.140   7.008   1.148
 9950WAT     H230093   1.173   6.970   0.993
 9951WAT      O30094   8.333   1.984   0.745
 9951WAT     H130095   8.331   1.884   0.746
 9951WAT     H230096   8.370   2.018   0.831
 9952WAT      O30097   4.531   1.610   7.616
 9952WAT     H130098   4.491   1.606   7.524
 9952WAT     H230099   4.630   1.597   7.609
 9953WAT      O30100   7.522   6.290   7.979
 9953WAT     H130101   7.542   6.383   8.010
 9953WAT     H230102   7.502   6.292   7.881
 9954WAT      O30103   7.755   6.547   5.002
 9954WAT     H130104   7.744   6.450   5.024
 9954WAT     H230105   7.852   6.572   5.003
 9955WAT      O30106   6.676   1.197   5.364
 9955WAT     H130107   6.702   1.214   5.269
 9955WAT     H230108   6.721   1.113   5.396
 9956WAT      O30109   5.600   3.384   6.050
 9956WAT     H130110   5.607   3.478   6.018
 9956WAT     H230111   5.584   3.323   5.972
 9957WAT      O30112   3.588   0.107   6.536
 9957WAT     H130113   3.599   0.158   6.621
 9957WAT     H230114   3.672   0.056   6.516
 9958WAT      O30115   0.923   7.050   8.111
 9958WAT     H130116   0.939   7.016   8.019
 9958WAT     H230117   0.958   7.144   8.118
 9959WAT      O30118   3.462   3.760   4.137
 9959WAT     H130119   3.498   3.699   4.208
 9959WAT     H230120   3.383   3.810   4.173
 9960WAT      O30121   2.618   6.364   3.669
 9960WAT     H130122   2.663   6.290   3.720
 9960WAT     H230123   2.688   6.425   3.631
 9961WAT      O30124   3.067   5.760   9.577
 9961WAT     H130125   3.082   5.816   9.659
 9961WAT     H230126   2.970   5.760   9.553
 9962WAT      O30127   3.334   1.164   9.136
 9962WAT     H130128   3.430   1.153   9.109
 9962WAT     H230129   3.308   1.091   9.199
 9963WAT      O30130   1.919   7.555   2.566
 9963WAT     H130131   1.853   7.481   2.549
 9963WAT     H230132   1.877   7.624   2.625
 9964WAT      O30133   0.573   5.866   2.863
 9964WAT     H130134   0.482   5.826   2.860
 9964WAT     H230135   0.566   5.966   2.852
 9965WAT      O30136   0.230   3.370   7.989
 9965WAT     H130137   0.329   3.356   7.998
 9965WAT     H230138   0.212   3.430   7.911
 9966WAT      O30139   5.249   5.041   0.536
 9966WAT     H130140   5.253   4.942   0.524
 9966WAT     H230141   5.179   5.079   0.475
 9967WAT      O30142   2.480   1.310   8.171
 9967WAT     H130143   2.536   1.394   8.177
 9967WAT     H230144   2.474   1.281   8.076
 9968WAT      O30145   3.040   0.959   3.834
 9968WAT     H130146   2.941   0.959   3.849
 9968WAT     H230147   3.079   1.045   3.866
 9969WAT      O30148   5.900   3.114   5.429
 9969WAT     H130149   5.904   3.046   5.356
 9969WAT     H230150   5.918   3.069   5.517
 9970WAT      O30151   7.800   6.938   0.777
 9970WAT     H130152   7.832   6.887   0.697
 9970WAT     H230153   7.708   6.972   0.761
 9971WAT      O30154   6.888   8.840   3.213
 9971WAT     H130155   6.789   8.848   3.224
 9971WAT     H230156   6.926   8.930   3.191
 9972WAT      O30157   6.771   7.795   5.932
 9972WAT     H130158   6.836   7.730   5.892
 9972WAT     H230159   6.677   7.766   5.909
 9973WAT      O30160   2.715   3.112   5.050
 9973WAT     H130161   2.790   3.167   5.015
 9973WAT     H230162   2.676   3.156   5.131
 9974WAT      O30163   8.758   2.105   5.063
 9974WAT     H130164   8.804   2.025   5.101
 9974WAT     H230165   8.664   2.110   5.098
 9975WAT      O30166   3.069   3.749   1.087
 9975WAT     H130167   2.998   3.820   1.092
 9975WAT     H230168   3.139   3.766   1.155
 9976WAT      O30169   4.942   3.757   9.716
 9976WAT     H130170   4.854   3.791   9.685
 9976WAT     H230171   5.016   3.810   9.674
 9977WAT      O30172   0.945   9.273   2.892
 9977WAT     H130173   1.028   9.288   2.946
 9977WAT     H230174   0.924   9.175   2.891
 9978WAT      O30175   4.950   1.906   3.224
 9978WAT     H130176   4.873   1.909   3.160
 9978WAT     H230177   5.035   1.892   3.173
 9979WAT      O30178   6.272   8.908   6.323
 9979WAT     H130179   6.318   8.851   6.391
 9979WAT     H230180   6.274   9.004   6.353
 9980WAT      O30181   3.379   3.037   9.713
 9980WAT     H130182   3.381   3.022   9.614
 9980WAT     H230183   3.319   2.969   9.755
 9981WAT      O30184   9.281   3.561   5.241
 9981WAT     H130185   9.246   3.511   5.162
 9981WAT     H230186   9.261   3.658   5.230
 9982WAT      O30187   6.438   3.193   4.100
 9982WAT     H130188   6.380   3.153   4.171
 9982WAT     H230189   6.485   3.120   4.051
 9983WAT      O30190   3.826   6.387   7.397
 9983WAT     H130191   3.835   6.377   7.298
 9983WAT     H230192   3.858   6.477   7.425
 9984WAT      O30193   6.036   1.031   8.418
 9984WAT     H130194   6.014   1.005   8.512
 9984WAT     H230195   6.125   0.992   8.393
 9985WAT      O30196   4.639   4.978   0.491
 9985WAT     H130197   4.679   5.036   0.420
 9985WAT     H230198   4.706   4.912   0.522
 9986WAT      O30199   5.070   7.396   1.023
 9986WAT     H130200   5.155   7.368   1.067
 9986WAT     H230201   5.046   7.330   0.952
 9987WAT      O30202   2.932   0.467   6.627
 9987WAT     H130203   3.008   0.522   6.594
 9987WAT     H230204   2.951   0.436   6.720
 9988WAT      O30205   4.582   8.177   6.056
 9988WAT     H130206   4.610   8.127   5.974
 9988WAT     H230207   4.605   8.273   6.045
 9989WAT      O30208   5.375   0.791   7.126
 9989WAT     H130209   5.436   0.862   7.091
 9989WAT     H230210   5.427   0.707   7.140
 9990WAT      O30211   4.445   9.358   7.115
 9990WAT     H130212   4.396   9.336   7.200
 9990WAT     H230213   4.531   9.403   7.137
 9991WAT      O30214   7.199   6.996   0.132
 9991WAT     H130215   7.265   6.922   0.120
 9991WAT     H230216   7.244   7.083   0.110
 9992WAT      O30217   0.702   9.599   3.898
 9992WAT     H130218   0.758   9.641   3.970
 9992WAT     H230219   0.721   9.501   3.894
 9993WAT      O30220   3.188   6.453   9.469
 9993WAT     H130221   3.148   6.484   9.555
 9993WAT     H230222   3.125   6.470   9.394
 9994WAT      O30223   8.144   1.489   3.703
 9994WAT     H130224   8.233   1.493   3.748
 9994WAT     H230225   8.144   1.549   3.624
 9995WAT      O30226   0.226   5.976   9.814
 9995WAT     H130227   0.304   5.931   9.858
 9995WAT     H230228   0.149   5.979   9.877
 9996WAT      O30229   2.095   9.408   0.836
 9996WAT     H130230   2.044   9.493   0.849
 9996WAT     H230231   2.137   9.380   0.922
 9997WAT      O30232   1.538   6.950   4.835
 9997WAT     H130233   1.612   6.902   4.787
 9997WAT     H230234   1.578   7.022   4.892
 9998WAT      O30235   4.871   5.367   9.602
 9998WAT     H130236   4.872   5.427   9.522
 9998WAT     H230237   4.824   5.282   9.579
 9999WAT      O30238   4.562   3.986   6.303
 9999WAT     H130239   4.642   3.928   6.319
 9999WAT     H230240   4.479   3.932   6.315
10000WAT      O30241   7.742   0.340   7.462
10000WAT     H130242   7.662   0.398   7.478
10000WAT     H230243   7.825   0.395   7.471
10001WAT      O30244   4.504   4.913   0.882
10001WAT     H130245   4.469   4.929   0.974
10001WAT     H230246   4.503   4.815   0.862
10002WAT      O30247   0.163   3.075   8.950
10002WAT     H130248   0.140   3.170   8.972
10002WAT     H230249   0.083   3.030   8.911
10003WAT      O30250   6.133   4.879   0.871
10003WAT     H130251   6.139   4.966   0.822
10003WAT     H230252   6.057   4.883   0.936
10004WAT      O30253   4.312   3.221   3.505
10004WAT     H130254   4.264   3.239   3.420
10004WAT     H230255   4.388   3.285   3.515
10005WAT      O30256   1.565   4.162   0.109
10005WAT     H130257   1.653   4.187   0.067
10005WAT     H230258   1.492   4.170   0.040
10006WAT      O30259   0.621   8.510   7.550
10006WAT     H130260   0.642   8.486   7.645
10006WAT     H230261   0.683   8.582   7.520
10007WAT      O30262   7.442   9.477   6.493
10007WAT     H130263   7.493   9.392   6.505
10007WAT     H230264   7.505   9.555   6.491
10008WAT      O30265   5.345   1.076   9.287
10008WAT     H130266   5.351   1.171   9.256
10008WAT     H230267   5.291   1.072   9.371
10009WAT      O30268   9.036   4.780   2.415
10009WAT     H130269   8.954   4.754   2.467
10009WAT     H230270   9.115   4.781   2.476
10010WAT      O30271   6.570   6.536   5.544
10010WAT     H130272   6.625   6.582   5.614
10010WAT     H230273   6.542   6.446   5.578
10011WAT      O30274   7.392   1.625   7.998
10011WAT     H130275   7.323   1.578   8.053
10011WAT     H230276   7.480   1.620   8.046
10012WAT      O30277   7.668   6.823   0.979
10012WAT     H130278   7.741   6.855   0.919
10012WAT     H230279   7.606   6.898   1.001
10013WAT      O30280   8.662   2.818   4.602
10013WAT     H130281   8.595   2.768   4.657
10013WAT     H230282   8.707   2.886   4.659
10014WAT      O30283   6.216   2.733   7.338
10014WAT     H130284   6.274   2.814   7.343
10014WAT     H230285   6.269   2.652   7.363
10015WAT      O30286   6.808   8.912   2.196
10015WAT     H130287   6.778   8.849   2.267
10015WAT     H230288   6.841   8.860   2.117
10016WAT      O30289   4.642   2.251   1.579
10016WAT     H130290   4.583   2.330   1.564
10016WAT     H230291   4.595   2.186   1.639
10017WAT      O30292   6.551   5.885   0.460
10017WAT     H130293   6.472   5.834   0.424
10017WAT     H230294   6.591   5.836   0.537
10018WAT      O30295   9.617   2.745   1.746
10018WAT     H130296   9.710   2.773   1.771
10018WAT     H230297   9.588   2.670   1.805
10019WAT      O30298   4.207   0.668   5.854
10019WAT     H130299   4.171   0.655   5.947
10019WAT     H230300   4.158   0.609   5.790
10020WAT      O30301   6.899   8.766   1.986
10020WAT     H130302   6.830   8.749   1.915
10020WAT     H230303   6.989   8.771   1.945
10021WAT      O30304   5.668   3.828   1.908
10021WAT     H130305   5.595   3.779   1.955
10021WAT     H230306   5.628   3.901   1.852
10022WAT      O30307   8.826   7.553   3.795
10022WAT     H130308   8.874   7.505   3.721
10022WAT     H230309   8.889   7.566   3.872
10023WAT      O30310   9.596   5.307   9.765
10023WAT     H130311   9.639   5.227   9.723
10023WAT     H230312   9.515   5.278   9.817
10024WAT      O30313   5.694   9.560   6.915
10024WAT     H130314   5.743   9.644   6.888
10024WAT     H230315   5.746   9.513   6.986
10025WAT      O30316   2.220   8.801   4.391
10025WAT     H130317   2.132   8.760   4.368
10025WAT     H230318   2.292   8.732   4.388
10026WAT      O30319   2.553   0.793   1.679
10026WAT     H130320   2.578   0.712   1.627
10026WAT     H230321   2.589   0.874   1.634
10027WAT      O30322   6.000   0.863   0.649
10027WAT     H130323   5.958   0.906   0.729
10027WAT     H230324   6.024   0.768   0.671
10028WAT      O30325   1.874   1.431   8.414
10028WAT     H130326   1.915   1.355   8.365
10028WAT     H230327   1.830   1.397   8.497
10029WAT      O30328   1.208   6.228   9.859
10029WAT     H130329   1.250   6.143   9.889
10029WAT     H230330   1.189   6.285   9.939
10030WAT      O30331   3.651   6.128   1.724
10030WAT     H130332   3.635   6.164   1.631
10030WAT     H230333   3.665   6.029   1.719
10031WAT      O30334   5.030   7.544   5.252
10031WAT     H130335   5.027   7.467   5.316
10031WAT     H230336   4.937   7.566   5.223
10032WAT      O30337   2.252   6.335   8.051
10032WAT     H130338   2.180   6.389   8.095
10032WAT     H230339   2.328   6.395   8.025
10033WAT      O30340   6.511   4.733   6.669
10033WAT     H130341   6.418   4.707   6.641
10033WAT     H230342   6.577   4.680   6.616
10034WAT      O30343   8.682   6.904   0.771
10034WAT     H130344   8.729   6.827   0.728
10034WAT     H230345   8.729   6.930   0.855
10035WAT      O30346   2.710   4.205   0.971
10035WAT     H130347   2.711   4.218   1.070
10035WAT     H230348   2.674   4.288   0.928
10036WAT      O30349   6.478   5.867   5.145
10036WAT     H130350   6.395   5.902   5.190
10036WAT     H230351   6.548   5.851   5.215
10037WAT      O30352   4.331   7.721   5.299
10037WAT     H130353   4.386   7.640   5.317
10037WAT     H230354   4.242   7.711   5.342
10038WAT      O30355   7.779   3.835   4.512
10038WAT     H130356   7.814   3.743   4.531
10038WAT     H230357   7.830   3.902   4.565
10039WAT      O30358   2.300   4.925   7.775
10039WAT     H130359   2.372   4.867   7.737
10039WAT     H230360   2.250   4.876   7.846
10040WAT      O30361   8.734   7.717   5.356
10040WAT     H130362   8.823   7.711   5.311
10040WAT     H230363   8.674   7.777   5.302
10041WAT      O30364   8.114   3.979   7.074
10041WAT     H130365   8.205   3.939   7.086
10041WAT     H230366   8.103   4.008   6.979
10042WAT      O30367   1.736   9.197   6.829
10042WAT     H130368   1.668   9.126   6.846
10042WAT     H230369   1.693   9.273   6.780
10043WAT      O30370   7.041   8.709   0.915
10043WAT     H130371   7.073   8.640   0.980
10043WAT     H230372   6.947   8.687   0.887
10044WAT      O30373   2.409   7.286   0.482
10044WAT     H130374   2.458   7.215   0.432
10044WAT     H230375   2.314   7.259   0.495
10045WAT      O30376   6.290   0.247   4.645
10045WAT     H130377   6.321   0.299   4.566
10045WAT     H230378   6.344   0.273   4.725
10046WAT      O30379   2.389   5.599   5.930
10046WAT     H130380   2.298   5.577   5.895
10046WAT     H230381   2.382   5.675   5.995
10047WAT      O30382   9.163   9.824   0.115
10047WAT     H130383   9.128   9.780   0.197
10047WAT     H230384   9.170   9.923   0.131
10048WAT      O30385   9.768   5.940   0.771
10048WAT     H130386   9.776   6.029   0.816
10048WAT     H230387   9.808   5.946   0.679
10049WAT      O30388   2.488   7.049   6.842
10049WAT     H130389   2.569   7.079   6.792
10049WAT     H230390   2.436   6.984   6.787
10050WAT      O30391   5.016   2.095   7.571
10050WAT     H130392   5.046   2.014   7.623
10050WAT     H230393   5.011   2.072   7.474
10051WAT      O30394   4.274   2.535   2.923
10051WAT     H130395   4.300   2.477   2.846
10051WAT     H230396   4.350   2.543   2.986
10052WAT      O30397   1.209   3.902   3.498
10052WAT     H130398   1.146   3.971   3.464
10052WAT     H230399   1.164   3.813   3.501
10053WAT      O30400   5.009   4.659   3.683
10053WAT     H130401   5.020   4.709   3.769
10053WAT     H230402   5.069   4.698   3.613
10054WAT      O30403   0.241   6.269   0.748
10054WAT     H130404   0.263   6.238   0.841
10054WAT     H230405   0.280   6.206   0.681
10055WAT      O30406   1.492   5.890   1.180
10055WAT     H130407   1.438   5.968   1.211
10055WAT     H230408   1.446   5.805   1.207
10056WAT      O30409   2.188   9.238   2.957
10056WAT     H130410   2.234   9.185   3.028
10056WAT     H230411   2.089   9.239   2.975
10057WAT      O30412   6.009   2.025   7.563
10057WAT     H130413   6.030   2.120   7.539
10057WAT     H230414   6.057   1.963   7.501
10058WAT      O30415   3.128   7.754   6.705
10058WAT     H130416   3.036   7.718   6.693
10058WAT     H230417   3.151   7.755   6.803
10059WAT      O30418   4.902   7.995   3.082
10059WAT     H130419   4.986   7.948   3.105
10059WAT     H230420   4.824   7.944   3.118
10060WAT      O30421   0.484   9.566   7.381
10060WAT     H130422   0.409   9.506   7.356
10060WAT     H230423   0.555   9.563   7.310
10061WAT      O30424   6.742   5.108   0.295
10061WAT     H130425   6.756   5.101   0.393
10061WAT     H230426   6.663   5.053   0.268
10062WAT      O30427   5.429   8.418   4.826
10062WAT     H130428   5.501   8.371   4.774
10062WAT     H230429   5.419   8.376   4.916
10063WAT      O30430   7.181   1.819   8.713
10063WAT     H130431   7.089   1.816   8.753
10063WAT     H230432   7.174   1.815   8.613
10064WAT      O30433   0.919   8.305   2.382
10064WAT     H130434   0.913   8.253   2.297
10064WAT     H230435   1.011   8.345   2.390
10065WAT      O30436   2.441   9.340   1.246
10065WAT     H130437   2.477   9.431   1.267
10065WAT     H230438   2.518   9.276   1.237
10066WAT      O30439   5.348   5.056   8.024
10066WAT     H130440   5.363   5.074   8.121
10066WAT     H230441   5.362   4.959   8.005
10067WAT      O30442   4.249   6.690   4.910
10067WAT     H130443   4.317   6.748   4.954
10067WAT     H230444   4.157   6.723   4.933
10068WAT      O30445   9.015   0.873   1.870
10068WAT     H130446   9.050   0.787   1.905
10068WAT     H230447   8.924   0.890   1.908
10069WAT      O30448   9.832   8.831   8.235
10069WAT     H130449   9.741   8.864   8.209
10069WAT     H230450   9.884   8.907   8.274
10070WAT      O30451   3.363   9.637   5.945
10070WAT     H130452   3.279   9.634   5.892
10070WAT     H230453   3.341   9.655   6.041
10071WAT      O30454   7.834   5.197   2.199
10071WAT     H130455   7.823   5.184   2.100
10071WAT     H230456   7.865   5.112   2.241
10072WAT      O30457   6.296   0.698   3.818
10072WAT     H130458   6.336   0.715   3.728
10072WAT     H230459   6.290   0.600   3.834
10073WAT      O30460   0.969   6.685   0.608
10073WAT     H130461   1.030   6.679   0.687
10073WAT     H230462   1.004   6.753   0.544
10074WAT      O30463   0.634   8.968   5.958
10074WAT     H130464   0.610   9.065   5.949
10074WAT     H230465   0.733   8.958   5.950
10075WAT      O30466   5.709   2.432   5.282
10075WAT     H130467   5.683   2.488   5.361
10075WAT     H230468   5.766   2.487   5.220
10076WAT      O30469   4.894   9.476   2.435
10076WAT     H130470   4.905   9.568   2.472
10076WAT     H230471   4.869   9.481   2.338
10077WAT      O30472   0.628   7.900   2.192
10077WAT     H130473   0.619   7.923   2.289
10077WAT     H230474   0.539   7.874   2.155
10078WAT      O30475   4.801   3.214   8.162
10078WAT     H130476   4.785   3.204   8.260
10078WAT     H230477   4.811   3.124   8.121
10079WAT      O30478   2.012   4.173   3.797
10079WAT     H130479   1.931   4.118   3.816
10079WAT     H230480   2.078   4.162   3.872
10080WAT      O30481   1.940   6.296   0.400
10080WAT     H130482   1.949   6.213   0.455
10080WAT     H230483   2.029   6.340   0.393
10081WAT      O30484   2.534   6.514   7.364
10081WAT     H130485   2.598   6.591   7.359
10081WAT     H230486   2.453   6.534   7.309
10082WAT      O30487   1.765   4.147   8.283
10082WAT     H130488   1.779   4.084   8.206
10082WAT     H230489   1.670   4.140   8.314
10083WAT      O30490   3.759   6.181   7.028
10083WAT     H130491   3.803   6.100   7.067
10083WAT     H230492   3.776   6.184   6.930
10084WAT      O30493   9.088   3.844   0.668
10084WAT     H130494   9.170   3.817   0.616
10084WAT     H230495   9.049   3.763   0.712
10085WAT      O30496   0.819   6.045   3.675
10085WAT     H130497   0.885   6.019   3.746
10085WAT     H230498   0.864   6.045   3.586
10086WAT      O30499   9.495   8.670   4.417
10086WAT     H130500   9.419   8.733   4.430
10086WAT     H230501   9.568   8.691   4.481
10087WAT      O30502   6.233   3.592   2.039
10087WAT     H130503   6.139   3.565   2.018
10087WAT     H230504   6.286   3.596   1.954
10088WAT      O30505   4.469   7.041   6.710
10088WAT     H130506   4.568   7.032   6.703
10088WAT     H230507   4.433   7.076   6.623
10089WAT      O30508   0.998   1.768   2.664
10089WAT     H130509   1.075   1.821   2.701
10089WAT     H230510   1.026   1.723   2.580
10090WAT      O30511   8.210   7.284   4.939
10090WAT     H130512   8.256   7.219   4.999
10090WAT     H230513   8.241   7.270   4.845
10091WAT      O30514   4.748   9.265   6.978
10091WAT     H130515   4.690   9.321   7.037
10091WAT     H230516   4.715   9.170   6.978
10092WAT      O30517   8.286   9.563   8.349
10092WAT     H130518   8.336   9.634   8.397
10092WAT     H230519   8.351   9.501   8.304
10093WAT      O30520   6.102   5.098   1.938
10093WAT     H130521   6.092   5.078   2.035
10093WAT     H230522   6.182   5.156   1.924
10094WAT      O30523   2.038   6.870   4.680
10094WAT     H130524   2.130   6.902   4.699
10094WAT     H230525   2.041   6.773   4.656
10095WAT      O30526   4.597   0.569   9.831
10095WAT     H130527   4.501   0.583   9.804
10095WAT     H230528   4.605   0.483   9.881
10096WAT      O30529   4.627   4.879   8.405
10096WAT     H130530   4.657   4.895   8.311
10096WAT     H230531   4.543   4.929   8.423
10097WAT      O30532   1.628   1.668   2.979
10097WAT     H130533   1.668   1.579   2.959
10097WAT     H230534   1.690   1.720   3.038
10098WAT      O30535   5.835   7.304   1.083
10098WAT     H130536   5.768   7.257   1.140
10098WAT     H230537   5.864   7.244   1.009
10099WAT      O30538   8.957   5.392   7.915
10099WAT     H130539   8.911   5.479   7.896
10099WAT     H230540   8.955   5.335   7.832
10100WAT      O30541   6.181   0.398   3.571
10100WAT     H130542   6.108   0.439   3.625
10100WAT     H230543   6.142   0.346   3.495
10101WAT      O30544   7.030   0.279   1.527
10101WAT     H130545   7.103   0.345   1.511
10101WAT     H230546   7.035   0.205   1.460
10102WAT      O30547   9.016   0.777   1.585
10102WAT     H130548   9.106   0.733   1.580
10102WAT     H230549   9.003   0.819   1.675
10103WAT      O30550   2.883   0.833   2.737
10103WAT     H130551   2.921   0.908   2.683
10103WAT     H230552   2.940   0.819   2.818
10104WAT      O30553   2.815   0.527   5.338
10104WAT     H130554   2.829   0.465   5.261
10104WAT     H230555   2.819   0.622   5.306
10105WAT      O30556   8.343   9.841   1.526
10105WAT     H130557   8.251   9.856   1.492
10105WAT     H230558   8.379   9.755   1.490
10106WAT      O30559   3.293   7.070   2.854
10106WAT     H130560   3.380   7.114   2.831
10106WAT     H230561   3.241   7.130   2.915
10107WAT      O30562   8.005   1.060   9.590
10107WAT     H130563   7.919   1.031   9.547
10107WAT     H230564   8.069   1.088   9.519
10108WAT      O30565   3.040   3.093   3.885
10108WAT     H130566   3.023   3.164   3.953
10108WAT     H230567   3.132   3.104   3.848
10109WAT      O30568   8.620   6.749   8.863
10109WAT     H130569   8.555   6.673   8.873
10109WAT     H230570   8.604   6.817   8.935
10110WAT      O30571   8.542   6.351   4.232
10110WAT     H130572   8.603   6.333   4.308
10110WAT     H230573   8.546   6.276   4.167
10111WAT      O30574   2.314   5.150   2.143
10111WAT     H130575   2.348   5.203   2.221
10111WAT     H230576   2.381   5.079   2.120
10112WAT      O30577   1.013   1.257   2.174
10112WAT     H130578   1.094   1.314   2.188
10112WAT     H230579   0.967   1.243   2.261
10113WAT      O30580   1.499   4.967   5.731
10113WAT     H130581   1.529   5.062   5.746
10113WAT     H230582   1.560   4.923   5.666
10114WAT      O30583   0.868   8.991   7.095
10114WAT     H130584   0.900   8.982   7.189
10114WAT     H230585   0.870   8.902   7.050
10115WAT      O30586   5.867   9.551   6.423
10115WAT     H130587   5.774   9.535   6.455
10115WAT     H230588   5.925   9.576   6.501
10116WAT      O30589   2.763   2.117   0.053
10116WAT     H130590   2.766   2.024   0.015
10116WAT     H230591   2.670   2.138   0.083
10117WAT      O30592   2.812   1.813   2.176
10117WAT     H130593   2.728   1.863   2.195
10117WAT     H230594   2.791   1.728   2.129
10118WAT      O30595   4.454   9.829   2.535
10118WAT     H130596   4.539   9.876   2.513
10118WAT     H230597   4.471   9.764   2.609
10119WAT      O30598   8.585   1.384   2.157
10119WAT     H130599   8.614   1.322   2.084
10119WAT     H230600   8.546   1.332   2.233
10120WAT      O30601   8.037   3.391   9.453
10120WAT     H130602   8.131   3.365   9.475
10120WAT     H230603   8.035   3.488   9.426
10121WAT      O30604   1.961   3.655   6.880
10121WAT     H130605   1.909   3.738   6.903
10121WAT     H230606   1.920   3.613   6.798
10122WAT      O30607   2.588   4.826   4.610
10122WAT     H130608   2.597   4.779   4.698
10122WAT     H230609   2.518   4.898   4.618
10123WAT      O30610   0.864   7.356   4.289
10123WAT     H130611   0.810   7.440   4.293
10123WAT     H230612   0.933   7.358   4.361
10124WAT      O30613   4.639   1.214   1.341
10124WAT     H130614   4.619   1.238   1.246
10124WAT     H230615   4.710   1.144   1.343
10125WAT      O30616   1.950   7.336   7.081
10125WAT     H130617   1.916   7.376   7.166
10125WAT     H230618   2.045   7.308   7.094
10126WAT      O30619   2.003   5.573   0.528
10126WAT     H130620   2.060   5.650   0.499
10126WAT     H230621   2.016   5.556   0.625
10127WAT      O30622   6.230   1.234   2.963
10127WAT     H130623   6.200   1.246   2.868
10127WAT     H230624   6.186   1.303   3.020
10128WAT      O30625   7.512   9.476   0.039
10128WAT     H130626   7.471   9.435  -0.042
10128WAT     H230627   7.454   9.458   0.118
10129WAT      O30628   5.512   2.531   1.706
10129WAT     H130629   5.542   2.490   1.792
10129WAT     H230630   5.413   2.518   1.695
10130WAT      O30631   4.763   2.872   6.262
10130WAT     H130632   4.752   2.930   6.343
10130WAT     H230633   4.855   2.833   6.261
10131WAT      O30634   9.434   2.560   3.623
10131WAT     H130635   9.348   2.547   3.672
10131WAT     H230636   9.451   2.658   3.612
10132WAT      O30637   1.308   8.629   8.363
10132WAT     H130638   1.377   8.639   8.291
10132WAT     H230639   1.232   8.691   8.345
10133WAT      O30640   7.939   1.600   0.412
10133WAT     H130641   7.873   1.612   0.487
10133WAT     H230642   7.905   1.646   0.330
10134WAT      O30643   0.310   9.031   4.832
10134WAT     H130644   0.246   8.955   4.845
10134WAT     H230645   0.378   9.006   4.763
10135WAT      O30646   6.208   1.393   7.535
10135WAT     H130647   6.227   1.480   7.580
10135WAT     H230648   6.294   1.353   7.504
10136WAT      O30649   6.811   5.858   1.573
10136WAT     H130650   6.753   5.901   1.643
10136WAT     H230651   6.765   5.778   1.537
10137WAT      O30652   0.440   1.551   0.620
10137WAT     H130653   0.374   1.516   0.553
10137WAT     H230654   0.455   1.483   0.691
10138WAT      O30655   9.284   2.801   9.559
10138WAT     H130656   9.352   2.872   9.539
10138WAT     H230657   9.326   2.711   9.550
10139WAT      O30658   6.209   4.949   0.532
10139WAT     H130659   6.201   4.992   0.443
10139WAT     H230660   6.157   5.001   0.599
10140WAT      O30661   2.961   4.689   6.870
10140WAT     H130662   2.906   4.606   6.859
10140WAT     H230663   3.058   4.667   6.856
10141WAT      O30664   8.095   3.768   2.809
10141WAT     H130665   8.034   3.690   2.821
10141WAT     H230666   8.189   3.741   2.827
10142WAT      O30667   0.499   4.134   0.801
10142WAT     H130668   0.437   4.104   0.729
10142WAT     H230669   0.480   4.228   0.825
10143WAT      O30670   0.271   0.874   4.526
10143WAT     H130671   0.294   0.812   4.601
10143WAT     H230672   0.289   0.829   4.438
10144WAT      O30673   8.890   5.992   8.030
10144WAT     H130674   8.817   5.981   8.097
10144WAT     H230675   8.894   6.087   8.000
10145WAT      O30676   3.857   1.552   7.382
10145WAT     H130677   3.894   1.508   7.464
10145WAT     H230678   3.926   1.611   7.342
10146WAT      O30679   3.327   5.198   6.902
10146WAT     H130680   3.374   5.286   6.896
10146WAT     H230681   3.259   5.202   6.975
10147WAT      O30682   7.109   0.887   6.567
10147WAT     H130683   7.039   0.816   6.559
10147WAT     H230684   7.065   0.977   6.566
10148WAT      O30685   6.277   8.163   6.859
10148WAT     H130686   6.225   8.178   6.943
10148WAT     H230687   6.363   8.117   6.882
10149WAT      O30688   4.148   5.146   1.359
10149WAT     H130689   4.194   5.231   1.334
10149WAT     H230690   4.051   5.152   1.335
10150WAT      O30691   1.345   8.139   9.398
10150WAT     H130692   1.296   8.220   9.428
10150WAT     H230693   1.308   8.108   9.311
10151WAT      O30694   3.974   8.833   1.929
10151WAT     H130695   3.905   8.876   1.871
10151WAT     H230696   3.994   8.892   2.007
10152WAT      O30697   8.009   0.980   8.207
10152WAT     H130698   8.106   0.960   8.221
10152WAT     H230699   7.968   0.908   8.151
10153WAT      O30700   4.932   9.540   5.198
10153WAT     H130701   5.018   9.586   5.221
10153WAT     H230702   4.952   9.450   5.159
10154WAT      O30703   3.126   1.938   6.091
10154WAT     H130704   3.080   2.026   6.086
10154WAT     H230705   3.191   1.938   6.167
10155WAT      O30706   1.277   1.292   1.886
10155WAT     H130707   1.354   1.316   1.826
10155WAT     H230708   1.243   1.202   1.861
10156WAT      O30709   7.202   9.584   4.157
10156WAT     H130710   7.261   9.514   4.118
10156WAT     H230711   7.109   9.572   4.123
10157WAT      O30712   9.577   5.883   0.088
10157WAT     H130713   9.540   5.915   0.175
10157WAT     H230714   9.510   5.896   0.016
10158WAT      O30715   6.069   2.144   5.276
10158WAT     H130716   5.969   2.141   5.279
10158WAT     H230717   6.104   2.192   5.356
10159WAT      O30718   6.141   6.319   8.923
10159WAT     H130719   6.169   6.241   8.979
10159WAT     H230720   6.066   6.367   8.968
10160WAT      O30721   8.004   6.894   1.796
10160WAT     H130722   8.080   6.832   1.776
10160WAT     H230723   7.958   6.918   1.711
10161WAT      O30724   8.912   0.726   8.571
10161WAT     H130725   8.955   0.638   8.592
10161WAT     H230726   8.893   0.732   8.473
10162WAT      O30727   3.896   7.510   9.613
10162WAT     H130728   3.920   7.509   9.710
10162WAT     H230729   3.967   7.557   9.561
10163WAT      O30730   5.315   3.015   7.511
10163WAT     H130731   5.277   3.034   7.601
10163WAT     H230732   5.392   2.952   7.520
10164WAT      O30733   4.652   9.805   9.217
10164WAT     H130734   4.694   9.718   9.240
10164WAT     H230735   4.553   9.798   9.229
10165WAT      O30736   4.857   6.270   6.829
10165WAT     H130737   4.867   6.352   6.884
10165WAT     H230738   4.766   6.269   6.787
10166WAT      O30739   2.464   1.866   0.466
10166WAT     H130740   2.472   1.962   0.492
10166WAT     H230741   2.512   1.849   0.380
10167WAT      O30742   2.693   4.392   2.519
10167WAT     H130743   2.665   4.387   2.423
10167WAT     H230744   2.738   4.479   2.536
10168WAT      O30745   6.443   1.221   5.501
10168WAT     H130746   6.527   1.217   5.447
10168WAT     H230747   6.410   1.316   5.504
10169WAT      O30748   6.590   3.128   4.801
10169WAT     H130749   6.641   3.211   4.781
10169WAT     H230750   6.493   3.150   4.813
10170WAT      O30751   4.772   5.740   1.473
10170WAT     H130752   4.811   5.764   1.562
10170WAT     H230753   4.679   5.775   1.467
10171WAT      O30754   8.591   5.722   4.084
10171WAT     H130755   8.545   5.636   4.062
10171WAT     H230756   8.549   5.797   4.032
10172WAT      O30757   2.019   6.364   0.690
10172WAT     H130758   1.988   6.286   0.637
10172WAT     H230759   2.107   6.395   0.655
10173WAT      O30760   3.702   9.686   4.905
10173WAT     H130761   3.784   9.636   4.878
10173WAT     H230762   3.708   9.712   5.001
10174WAT      O30763   2.157   1.971   8.915
10174WAT     H130764   2.105   1.889   8.891
10174WAT     H230765   2.233   1.982   8.851
10175WAT      O30766   6.809   3.616   5.228
10175WAT     H130767   6.826   3.621   5.326
10175WAT     H230768   6.801   3.709   5.191
10176WAT      O30769   5.928   6.349   8.089
10176WAT     H130770   5.900   6.406   8.012
10176WAT     H230771   5.898   6.255   8.074
10177WAT      O30772   2.481   3.842   3.814
10177WAT     H130773   2.503   3.779   3.740
10177WAT     H230774   2.461   3.791   3.897
10178WAT      O30775   7.493   3.655   0.675
10178WAT     H130776   7.494   3.575   0.735
10178WAT     H230777   7.512   3.737   0.729
10179WAT      O30778   3.136   4.342   3.044
10179WAT     H130779   3.179   4.335   3.134
10179WAT     H230780   3.195   4.301   2.975
10180WAT      O30781   1.936   0.644   2.386
10180WAT     H130782   1.917   0.547   2.376
10180WAT     H230783   1.992   0.675   2.309
10181WAT      O30784   3.911   3.215   1.831
10181WAT     H130785   3.879   3.215   1.736
10181WAT     H230786   4.009   3.236   1.833
10182WAT      O30787   1.655   8.006   1.797
10182WAT     H130788   1.677   8.001   1.894
10182WAT     H230789   1.740   8.011   1.744
10183WAT      O30790   3.655   8.940   6.214
10183WAT     H130791   3.618   8.944   6.122
10183WAT     H230792   3.630   8.852   6.256
10184WAT      O30793   6.288   8.976   1.474
10184WAT     H130794   6.374   8.987   1.424
10184WAT     H230795   6.254   9.066   1.502
10185WAT      O30796   9.455   3.406   9.674
10185WAT     H130797   9.417   3.409   9.581
10185WAT     H230798   9.459   3.311   9.705
10186WAT      O30799   1.828   0.268   4.563
10186WAT     H130800   1.802   0.344   4.504
10186WAT     H230801   1.748   0.237   4.615
10187WAT      O30802   5.599   3.563   0.154
10187WAT     H130803   5.505   3.555   0.187
10187WAT     H230804   5.658   3.501   0.206
10188WAT      O30805   1.114   2.946   8.403
10188WAT     H130806   1.088   2.850   8.414
10188WAT     H230807   1.104   2.993   8.491
10189WAT      O30808   1.289   4.159   7.923
10189WAT     H130809   1.352   4.185   7.850
10189WAT     H230810   1.282   4.233   7.989
10190WAT      O30811   5.955   5.009   5.869
10190WAT     H130812   5.915   4.918   5.867
10190WAT     H230813   5.928   5.060   5.788
10191WAT      O30814   8.818   7.291   5.057
10191WAT     H130815   8.719   7.285   5.071
10191WAT     H230816   8.864   7.291   5.145
10192WAT      O30817   0.982   5.943   9.723
10192WAT     H130818   0.924   6.021   9.700
10192WAT     H230819   1.016   5.901   9.639
10193WAT      O30820   1.613   0.955   8.786
10193WAT     H130821   1.599   0.863   8.824
10193WAT     H230822   1.711   0.971   8.772
10194WAT      O30823   6.878   4.498   6.160
10194WAT     H130824   6.933   4.566   6.210
10194WAT     H230825   6.907   4.406   6.186
10195WAT      O30826   0.546   9.796   6.475
10195WAT     H130827   0.547   9.762   6.381
10195WAT     H230828   0.580   9.890   6.476
10196WAT      O30829   5.695   3.962   4.353
10196WAT     H130830   5.660   4.040   4.302
10196WAT     H230831   5.743   3.900   4.292
10197WAT      O30832   7.585   7.736   0.255
10197WAT     H130833   7.661   7.785   0.212
10197WAT     H230834   7.621   7.675   0.326
10198WAT      O30835   3.783   6.455   9.051
10198WAT     H130836   3.881   6.469   9.042
10198WAT     H230837   3.744   6.527   9.108
10199WAT      O30838   4.114   0.786   3.179
10199WAT     H130839   4.089   0.690   3.186
10199WAT     H230840   4.074   0.836   3.256
10200WAT      O30841   2.551   7.047   0.020
10200WAT     H130842   2.488   7.000  -0.041
10200WAT     H230843   2.517   7.139   0.040
10201WAT      O30844   6.110   4.869   7.251
10201WAT     H130845   6.082   4.844   7.343
10201WAT     H230846   6.159   4.956   7.254
10202WAT      O30847   1.423   8.615   9.825
10202WAT     H130848   1.327   8.599   9.803
10202WAT     H230849   1.460   8.536   9.874
10203WAT      O30850   0.700   1.812   1.268
10203WAT     H130851   0.678   1.900   1.309
10203WAT     H230852   0.618   1.755   1.263
10204WAT      O30853   7.811   7.235   2.987
10204WAT     H130854   7.742   7.285   2.936
10204WAT     H230855   7.786   7.138   2.990
10205WAT      O30856   8.085   3.976   5.456
10205WAT     H130857   8.126   4.058   5.415
10205WAT     H230858   7.989   3.970   5.427
10206WAT      O30859   8.960   0.481   8.114
10206WAT     H130860   8.935   0.432   8.031
10206WAT     H230861   8.893   0.462   8.186
10207WAT      O30862   0.176   8.102   0.208
10207WAT     H130863   0.151   8.018   0.256
10207WAT     H230864   0.109   8.121   0.137
10208WAT      O30865   5.512   5.541   4.185
10208WAT     H130866   5.500   5.454   4.136
10208WAT     H230867   5.518   5.616   4.119
10209WAT      O30868   3.522   2.036   3.284
10209WAT     H130869   3.485   1.944   3.274
10209WAT     H230870   3.470   2.099   3.226
10210WAT      O30871   0.867   8.712   9.333
10210WAT     H130872   0.832   8.776   9.264
10210WAT     H230873   0.793   8.685   9.394
10211WAT      O30874   2.875   6.779   6.228
10211WAT     H130875   2.894   6.692   6.274
10211WAT     H230876   2.915   6.778   6.137
10212WAT      O30877   8.120   6.024   9.541
10212WAT     H130878   8.087   6.090   9.609
10212WAT     H230879   8.179   5.957   9.586
10213WAT      O30880   1.823   8.220   0.361
10213WAT     H130881   1.828   8.256   0.267
10213WAT     H230882   1.786   8.127   0.359
10214WAT      O30883   4.120   5.665   2.191
10214WAT     H130884   4.167   5.646   2.105
10214WAT     H230885   4.178   5.639   2.267
10215WAT      O30886   7.359   0.476   2.323
10215WAT     H130887   7.454   0.500   2.341
10215WAT     H230888   7.329   0.406   2.387
10216WAT      O30889   3.671   0.467   5.711
10216WAT     H130890   3.695   0.419   5.627
10216WAT     H230891   3.655   0.564   5.691
10217WAT      O30892   1.390   5.632   5.538
10217WAT     H130893   1.377   5.574   5.459
10217WAT     H230894   1.415   5.577   5.617
10218WAT      O30895   8.707   6.630   6.177
10218WAT     H130896   8.642   6.672   6.114
10218WAT     H230897   8.733   6.540   6.143
10219WAT      O30898   5.277   3.583   5.850
10219WAT     H130899   5.190   3.597   5.803
10219WAT     H230900   5.352   3.584   5.784
10220WAT      O30901   6.389   1.487   5.522
10220WAT     H130902   6.373   1.472   5.619
10220WAT     H230903   6.368   1.582   5.500
10221WAT      O30904   6.186   8.800   3.513
10221WAT     H130905   6.210   8.803   3.610
10221WAT     H230906   6.090   8.774   3.503
10222WAT      O30907   4.352   2.324   2.752
10222WAT     H130908   4.256   2.296   2.744
10222WAT     H230909   4.404   2.287   2.675
10223WAT      O30910   3.541   0.423   7.909
10223WAT     H130911   3.531   0.476   7.824
10223WAT     H230912   3.496   0.471   7.984
10224WAT      O30913   6.667   7.744   3.316
10224WAT     H130914   6.748   7.730   3.259
10224WAT     H230915   6.634   7.838   3.304
10225WAT      O30916   7.558   5.315   2.278
10225WAT     H130917   7.636   5.266   2.239
10225WAT     H230918   7.530   5.271   2.363
10226WAT      O30919   8.947   6.896   0.063
10226WAT     H130920   8.973   6.877   0.158
10226WAT     H230921   9.004   6.842   0.001
10227WAT      O30922   5.056   3.574   8.680
10227WAT     H130923   5.038   3.547   8.585
10227WAT     H230924   5.102   3.499   8.728
10228WAT      O30925   2.336   1.164   1.331
10228WAT     H130926   2.393   1.179   1.250
10228WAT     H230927   2.393   1.170   1.413
10229WAT      O30928   3.930   5.697   5.153
10229WAT     H130929   3.909   5.795   5.152
10229WAT     H230930   3.916   5.661   5.245
10230WAT      O30931   2.973   1.964   3.910
10230WAT     H130932   2.939   1.881   3.954
10230WAT     H230933   2.946   2.044   3.965
10231WAT      O30934   0.118   9.720   9.604
10231WAT     H130935   0.050   9.730   9.677
10231WAT     H230936   0.191   9.659   9.634
10232WAT      O30937   4.240   5.780   0.702
10232WAT     H130938   4.163   5.779   0.639
10232WAT     H230939   4.250   5.691   0.744
10233WAT      O30940   1.381   7.835   6.252
10233WAT     H130941   1.310   7.764   6.257
10233WAT     H230942   1.445   7.813   6.179
10234WAT      O30943   0.334   9.379   5.204
10234WAT     H130944   0.363   9.291   5.168
10234WAT     H230945   0.271   9.422   5.138
10235WAT      O30946   3.333   5.105   7.241
10235WAT     H130947   3.301   5.012   7.259
10235WAT     H230948   3.264   5.154   7.188
10236WAT      O30949   0.045   7.547   3.050
10236WAT     H130950   0.039   7.634   3.002
10236WAT     H230951  -0.046   7.508   3.061
10237WAT      O30952   1.160   6.888   2.230
10237WAT     H130953   1.220   6.858   2.156
10237WAT     H230954   1.191   6.976   2.265
10238WAT      O30955   6.873   3.165   8.952
10238WAT     H130956   6.960   3.120   8.973
10238WAT     H230957   6.801   3.097   8.946
10239WAT      O30958   7.260   0.731   2.270
10239WAT     H130959   7.180   0.739   2.330
10239WAT     H230960   7.313   0.650   2.296
10240WAT      O30961   3.143   2.440   8.479
10240WAT     H130962   3.055   2.451   8.434
10240WAT     H230963   3.138   2.366   8.546
10241WAT      O30964   8.756   3.119   1.225
10241WAT     H130965   8.798   3.210   1.234
10241WAT     H230966   8.788   3.076   1.140
10242WAT      O30967   0.652   7.164   2.875
10242WAT     H130968   0.603   7.077   2.873
10242WAT     H230969   0.751   7.147   2.867
10243WAT      O30970   6.423   7.964   5.524
10243WAT     H130971   6.333   7.944   5.564
10243WAT     H230972   6.494   7.924   5.582
10244WAT      O30973   7.893   6.869   7.604
10244WAT     H130974   7.843   6.792   7.563
10244WAT     H230975   7.987   6.842   7.622
10245WAT      O30976   3.079   1.445   5.026
10245WAT     H130977   3.006   1.386   5.061
10245WAT     H230978   3.040   1.512   4.962
10246WAT      O30979   7.583   0.647   3.139
10246WAT     H130980   7.673   0.674   3.105
10246WAT     H230981   7.582   0.651   3.239
10247WAT      O30982   6.593   9.193   1.432
10247WAT     H130983   6.530   9.271   1.426
10247WAT     H230984   6.581   9.135   1.351
10248WAT      O30985   0.160   2.400   0.101
10248WAT     H130986   0.217   2.356   0.170
10248WAT     H230987   0.130   2.332   0.034
10249WAT      O30988   0.037   2.690   2.099
10249WAT     H130989   0.110   2.720   2.160
10249WAT     H230990   0.045   2.591   2.083
10250WAT      O30991   1.230   0.249   6.647
10250WAT     H130992   1.146   0.213   6.685
10250WAT     H230993   1.278   0.177   6.596
10251WAT      O30994   4.698   4.346   5.984
10251WAT     H130995   4.784   4.332   5.935
10251WAT     H230996   4.680   4.268   6.043
10252WAT      O30997   0.767   4.361   8.028
10252WAT     H130998   0.736   4.359   8.123
10252WAT     H230999   0.805   4.272   8.004
10253WAT      O31000   3.684   1.349   8.268
10253WAT     H131001   3.658   1.254   8.283
10253WAT     H231002   3.738   1.356   8.183
10254WAT      O31003   9.185   5.285   1.103
10254WAT     H131004   9.139   5.339   1.173
10254WAT     H231005   9.156   5.190   1.109
10255WAT      O31006   1.256   8.929   1.992
10255WAT     H131007   1.195   8.942   1.914
10255WAT     H231008   1.254   8.833   2.020
10256WAT      O31009   6.246   4.568   8.617
10256WAT     H131010   6.228   4.475   8.585
10256WAT     H231011   6.267   4.627   8.539
10257WAT      O31012   4.857   8.388   5.282
10257WAT     H131013   4.873   8.453   5.207
10257WAT     H231014   4.939   8.383   5.340
10258WAT      O31015   3.944   9.766   7.151
10258WAT     H131016   3.846   9.771   7.169
10258WAT     H231017   3.965   9.681   7.102
10259WAT      O31018   3.657   6.627   6.406
10259WAT     H131019   3.713   6.677   6.473
10259WAT     H231020   3.612   6.693   6.345
10260WAT      O31021   1.093   5.244   3.994
10260WAT     H131022   1.047   5.329   4.021
10260WAT     H231023   1.192   5.256   4.003
10261WAT      O31024   4.667   8.803   6.144
10261WAT     H131025   4.724   8.747   6.205
10261WAT     H231026   4.571   8.774   6.153
10262WAT      O31027   0.195   7.082   6.848
10262WAT     H131028   0.220   7.068   6.752
10262WAT     H231029   0.132   7.160   6.855
10263WAT      O31030   2.742   8.882   5.704
10263WAT     H131031   2.788   8.837   5.781
10263WAT     H231032   2.794   8.963   5.677
10264WAT      O31033   8.668   6.984   1.400
10264WAT     H131034   8.612   7.063   1.374
10264WAT     H231035   8.633   6.902   1.357
10265WAT      O31036   3.851   5.630   6.970
10265WAT     H131037   3.839   5.588   7.060
10265WAT     H231038   3.823   5.565   6.899
10266WAT      O31039   5.238   1.047   9.572
10266WAT     H131040   5.285   0.973   9.620
10266WAT     H231041   5.260   1.134   9.616
10267WAT      O31042   3.665   2.928   5.725
10267WAT     H131043   3.658   2.851   5.788
10267WAT     H231044   3.715   2.900   5.643
10268WAT      O31045   8.559   3.716   3.159
10268WAT     H131046   8.527   3.627   3.193
10268WAT     H231047   8.536   3.787   3.225
10269WAT      O31048   9.742   5.288   9.424
10269WAT     H131049   9.669   5.356   9.420
10269WAT     H231050   9.774   5.267   9.332
10270WAT      O31051   6.120   4.254   8.058
10270WAT     H131052   6.061   4.181   8.023
10270WAT     H231053   6.216   4.228   8.046
10271WAT      O31054   2.854   9.155   1.877
10271WAT     H131055   2.911   9.166   1.959
10271WAT     H231056   2.770   9.208   1.888
10272WAT      O31057   8.357   3.738   8.313
10272WAT     H131058   8.337   3.679   8.235
10272WAT     H231059   8.439   3.791   8.294
10273WAT      O31060   9.870   3.071   3.408
10273WAT     H131061   9.810   3.001   3.448
10273WAT     H231062   9.960   3.066   3.450
10274WAT      O31063   3.584   1.357   2.683
10274WAT     H131064   3.673   1.402   2.696
10274WAT     H231065   3.513   1.408   2.732
10275WAT      O31066   8.173   2.932   6.145
10275WAT     H131067   8.120   3.000   6.094
10275WAT     H231068   8.203   2.971   6.231
10276WAT      O31069   0.053   5.817   0.283
10276WAT     H131070   0.079   5.737   0.229
10276WAT     H231071   0.022   5.890   0.223
10277WAT      O31072   9.418   4.334   7.554
10277WAT     H131073   9.369   4.279   7.487
10277WAT     H231074   9.396   4.303   7.646
10278WAT      O31075   2.897   1.828   0.963
10278WAT     H131076   2.955   1.849   0.884
10278WAT     H231077   2.877   1.913   1.013
10279WAT      O31078   5.557   2.308   8.184
10279WAT     H131079   5.633   2.343   8.239
10279WAT     H231080   5.472   2.349   8.217
10280WAT      O31081   7.140   3.064   4.243
10280WAT     H131082   7.159   3.068   4.341
10280WAT     H231083   7.090   3.146   4.215
10281WAT      O31084   8.320   6.926   5.995
10281WAT     H131085   8.321   7.022   5.967
10281WAT     H231086   8.231   6.885   5.972
10282WAT      O31087   8.309   0.235   5.291
10282WAT     H131088   8.354   0.320   5.317
10282WAT     H231089   8.371   0.158   5.307
10283WAT      O31090   5.290   5.050   2.439
10283WAT     H131091   5.227   4.984   2.397
10283WAT     H231092   5.339   5.006   2.514
10284WAT      O31093   3.961   4.609   8.358
10284WAT     H131094   3.951   4.696   8.310
10284WAT     H231095   3.920   4.616   8.449
10285WAT      O31096   2.350   7.405   2.721
10285WAT     H131097   2.281   7.382   2.789
10285WAT     H231098   2.423   7.458   2.765
10286WAT      O31099   4.384   2.500   2.510
10286WAT     H131100   4.469   2.486   2.461
10286WAT     H231101   4.403   2.541   2.599
10287WAT      O31102   0.911   1.487   3.500
10287WAT     H131103   0.958   1.530   3.578
10287WAT     H231104   0.975   1.478   3.424
10288WAT      O31105   2.014   3.010   7.137
10288WAT     H131106   1.935   3.049   7.185
10288WAT     H231107   1.988   2.926   7.092
10289WAT      O31108   9.529   0.388   6.925
10289WAT     H131109   9.513   0.319   6.855
10289WAT     H231110   9.489   0.357   7.012
10290WAT      O31111   6.198   6.546   3.374
10290WAT     H131112   6.203   6.627   3.316
10290WAT     H231113   6.285   6.534   3.422
10291WAT      O31114   1.653   5.904   6.902
10291WAT     H131115   1.616   5.845   6.831
10291WAT     H231116   1.593   5.901   6.982
10292WAT      O31117   1.915   8.598   5.451
10292WAT     H131118   1.962   8.517   5.416
10292WAT     H231119   1.919   8.670   5.382
10293WAT      O31120   1.442   3.601   1.856
10293WAT     H131121   1.404   3.571   1.768
10293WAT     H231122   1.378   3.578   1.929
10294WAT      O31123   7.568   7.540   4.221
10294WAT     H131124   7.473   7.540   4.192
10294WAT     H231125   7.599   7.446   4.234
10295WAT      O31126   2.992   2.773   6.420
10295WAT     H131127   3.010   2.777   6.518
10295WAT     H231128   3.037   2.692   6.381
10296WAT      O31129   3.917   9.449   6.111
10296WAT     H131130   3.875   9.359   6.094
10296WAT     H231131   3.847   9.520   6.104
10297WAT      O31132   5.224   6.754   6.482
10297WAT     H131133   5.188   6.845   6.465
10297WAT     H231134   5.273   6.752   6.570
10298WAT      O31135   6.426   6.496   3.541
10298WAT     H131136   6.473   6.557   3.604
10298WAT     H231137   6.397   6.414   3.589
10299WAT      O31138   0.086   7.573   2.084
10299WAT     H131139   0.010   7.591   2.147
10299WAT     H231140   0.068   7.618   1.996
10300WAT      O31141   8.183   8.925   5.182
10300WAT     H131142   8.280   8.899   5.186
10300WAT     H231143   8.174   9.013   5.135
10301WAT      O31144   7.763   0.391   8.252
10301WAT     H131145   7.696   0.370   8.181
10301WAT     H231146   7.843   0.333   8.241
10302WAT      O31147   3.231   2.639   7.704
10302WAT     H131148   3.314   2.694   7.692
10302WAT     H231149   3.201   2.644   7.799
10303WAT      O31150   2.298   5.566   6.815
10303WAT     H131151   2.205   5.533   6.803
10303WAT     H231152   2.297   5.656   6.859
10304WAT      O31153   5.473   9.101   0.357
10304WAT     H131154   5.485   9.090   0.258
10304WAT     H231155   5.505   9.192   0.384
10305WAT      O31156   5.219   9.729   7.712
10305WAT     H131157   5.149   9.675   7.666
10305WAT     H231158   5.210   9.720   7.811
10306WAT      O31159   4.412   1.966   2.695
10306WAT     H131160   4.312   1.966   2.692
10306WAT     H231161   4.447   2.046   2.647
10307WAT      O31162   2.745   8.032   9.419
10307WAT     H131163   2.759   8.014   9.322
10307WAT     H231164   2.722   7.947   9.466
10308WAT      O31165   8.169   5.341   3.700
10308WAT     H131166   8.111   5.402   3.646
10308WAT     H231167   8.157   5.360   3.797
10309WAT      O31168   4.735   7.230   1.777
10309WAT     H131169   4.789   7.302   1.820
10309WAT     H231170   4.752   7.143   1.823
10310WAT      O31171   4.169   3.319   3.782
10310WAT     H131172   4.188   3.372   3.700
10310WAT     H231173   4.080   3.275   3.774
10311WAT      O31174   0.488   1.603   7.010
10311WAT     H131175   0.397   1.646   7.009
10311WAT     H231176   0.477   1.504   6.999
10312WAT      O31177   6.610   3.787   3.881
10312WAT     H131178   6.679   3.771   3.810
10312WAT     H231179   6.520   3.763   3.845
10313WAT      O31180   0.530   1.266   0.822
10313WAT     H131181   0.548   1.274   0.920
10313WAT     H231182   0.617   1.259   0.773
10314WAT      O31183   8.190   8.992   0.362
10314WAT     H131184   8.102   8.967   0.321
10314WAT     H231185   8.218   8.920   0.426
10315WAT      O31186   6.632   3.180   1.890
10315WAT     H131187   6.675   3.156   1.977
10315WAT     H231188   6.696   3.164   1.815
10316WAT      O31189   4.445   9.235   6.000
10316WAT     H131190   4.446   9.329   6.034
10316WAT     H231191   4.417   9.235   5.904
10317WAT      O31192   5.220   6.452   9.175
10317WAT     H131193   5.125   6.482   9.169
10317WAT     H231194   5.237   6.381   9.106
10318WAT      O31195   8.731   9.323   2.741
10318WAT     H131196   8.761   9.267   2.664
10318WAT     H231197   8.717   9.417   2.711
10319WAT      O31198   2.201   3.602   6.994
10319WAT     H131199   2.282   3.653   6.965
10319WAT     H231200   2.124   3.624   6.934
10320WAT      O31201   6.948   4.636   0.033
10320WAT     H131202   7.033   4.643  -0.018
10320WAT     H231203   6.962   4.577   0.113
10321WAT      O31204   7.296   6.574   1.939
10321WAT     H131205   7.376   6.524   1.974
10321WAT     H231206   7.306   6.588   1.840
10322WAT      O31207   9.493   1.687   8.218
10322WAT     H131208   9.437   1.706   8.137
10322WAT     H231209   9.470   1.752   8.290
10323WAT      O31210   9.078   6.027   2.787
10323WAT     H131211   9.008   6.087   2.750
10323WAT     H231212   9.164   6.078   2.797
10324WAT      O31213   9.492   9.480   4.407
10324WAT     H131214   9.461   9.532   4.486
10324WAT     H231215   9.450   9.518   4.324
10325WAT      O31216   4.796   1.368   5.328
10325WAT     H131217   4.720   1.400   5.272
10325WAT     H231218   4.771   1.282   5.372
10326WAT      O31219   7.129   5.554   2.941
10326WAT     H131220   7.105   5.611   3.020
10326WAT     H231221   7.046   5.511   2.904
10327WAT      O31222   0.222   1.036   5.912
10327WAT     H131223   0.126   1.012   5.924
10327WAT     H231224   0.239   1.127   5.949
10328WAT      O31225   6.514   8.777   2.548
10328WAT     H131226   6.516   8.719   2.629
10328WAT     H231227   6.521   8.873   2.575
10329WAT      O31228   1.335   4.920   7.890
10329WAT     H131229   1.399   4.965   7.952
10329WAT     H231230   1.385   4.879   7.814
10330WAT      O31231   4.072   6.058   8.292
10330WAT     H131232   4.172   6.066   8.289
10330WAT     H231233   4.047   5.971   8.335
10331WAT      O31234   1.418   8.816   0.563
10331WAT     H131235   1.421   8.727   0.607
10331WAT     H231236   1.496   8.825   0.501
10332WAT      O31237   9.343   2.216   5.411
10332WAT     H131238   9.349   2.199   5.509
10332WAT     H231239   9.248   2.214   5.382
10333WAT      O31240   7.397   7.968   1.116
10333WAT     H131241   7.488   7.972   1.076
10333WAT     H231242   7.337   8.033   1.069
10334WAT      O31243   5.099   2.532   7.729
10334WAT     H131244   5.115   2.464   7.657
10334WAT     H231245   5.071   2.486   7.813
10335WAT      O31246   1.452   7.280   2.248
10335WAT     H131247   1.514   7.354   2.278
10335WAT     H231248   1.506   7.202   2.219
10336WAT      O31249   4.143   1.685   8.019
10336WAT     H131250   4.159   1.742   7.938
10336WAT     H231251   4.191   1.723   8.097
10337WAT      O31252   6.421   7.255   4.496
10337WAT     H131253   6.490   7.304   4.551
10337WAT     H231254   6.334   7.303   4.502
10338WAT      O31255   7.790   5.423   7.409
10338WAT     H131256   7.764   5.493   7.342
10338WAT     H231257   7.713   5.406   7.471
10339WAT      O31258   5.726   8.695   0.913
10339WAT     H131259   5.690   8.639   0.988
10339WAT     H231260   5.668   8.683   0.832
10340WAT      O31261   6.229   8.389   6.270
10340WAT     H131262   6.275   8.361   6.354
10340WAT     H231263   6.287   8.451   6.218
10341WAT      O31264   0.495   1.485   7.856
10341WAT     H131265   0.480   1.513   7.951
10341WAT     H231266   0.409   1.490   7.806
10342WAT      O31267   5.677   4.862   3.050
10342WAT     H131268   5.610   4.912   2.995
10342WAT     H231269   5.758   4.842   2.995
10343WAT      O31270   8.132   0.619   0.222
10343WAT     H131271   8.123   0.677   0.141
10343WAT     H231272   8.107   0.525   0.199
10344WAT      O31273   9.829   9.546   8.891
10344WAT     H131274   9.922   9.575   8.913
10344WAT     H231275   9.832   9.460   8.839
10345WAT      O31276   6.437   5.223   4.855
10345WAT     H131277   6.469   5.311   4.821
10345WAT     H231278   6.342   5.231   4.886
10346WAT      O31279   4.534   5.422   2.122
10346WAT     H131280   4.594   5.496   2.095
10346WAT     H231281   4.589   5.347   2.159
10347WAT      O31282   9.647   0.502   8.422
10347WAT     H131283   9.556   0.474   8.389
10347WAT     H231284   9.637   0.555   8.506
10348WAT      O31285   4.992   3.034   0.854
10348WAT     H131286   5.069   3.066   0.910
10348WAT     H231287   4.922   2.994   0.913
10349WAT      O31288   4.716   0.716   7.862
10349WAT     H131289   4.652   0.727   7.939
10349WAT     H231290   4.769   0.633   7.875
10350WAT      O31291   3.824   0.132   0.818
10350WAT     H131292   3.790   0.189   0.893
10350WAT     H231293   3.795   0.171   0.731
10351WAT      O31294   4.053   2.369   2.330
10351WAT     H131295   4.147   2.344   2.352
10351WAT     H231296   4.002   2.383   2.415
10352WAT      O31297   1.905   3.736   3.620
10352WAT     H131298   1.873   3.643   3.600
10352WAT     H231299   1.937   3.740   3.715
10353WAT      O31300   2.124   2.335   9.672
10353WAT     H131301   2.067   2.296   9.745
10353WAT     H231302   2.140   2.266   9.601
10354WAT      O31303   4.376   0.220   3.823
10354WAT     H131304   4.369   0.136   3.770
10354WAT     H231305   4.462   0.220   3.874
10355WAT      O31306   1.794   0.207   9.769
10355WAT     H131307   1.813   0.289   9.715
10355WAT     H231308   1.701   0.211   9.806
10356WAT      O31309   5.676   6.232   2.497
10356WAT     H131310   5.628   6.149   2.471
10356WAT     H231311   5.762   6.208   2.543
10357WAT      O31312   9.295   7.507   4.970
10357WAT     H131313   9.208   7.491   5.017
10357WAT     H231314   9.352   7.424   4.977
10358WAT      O31315   2.192   4.570   5.438
10358WAT     H131316   2.169   4.524   5.524
10358WAT     H231317   2.242   4.508   5.378
10359WAT      O31318   2.292   8.252   0.208
10359WAT     H131319   2.263   8.163   0.171
10359WAT     H231320   2.233   8.324   0.171
10360WAT      O31321   7.923   2.457   9.042
10360WAT     H131322   7.928   2.437   8.944
10360WAT     H231323   7.837   2.503   9.062
10361WAT      O31324   8.437   2.426   9.094
10361WAT     H131325   8.528   2.438   9.135
10361WAT     H231326   8.387   2.512   9.099
10362WAT      O31327   7.178   4.909   6.814
10362WAT     H131328   7.180   4.936   6.718
10362WAT     H231329   7.249   4.840   6.831
10363WAT      O31330   5.368   3.084   6.342
10363WAT     H131331   5.386   2.988   6.365
10363WAT     H231332   5.360   3.093   6.242
10364WAT      O31333   7.653   1.838   0.848
10364WAT     H131334   7.650   1.938   0.854
10364WAT     H231335   7.610   1.798   0.929
10365WAT      O31336   9.782   1.344   3.323
10365WAT     H131337   9.789   1.267   3.386
10365WAT     H231338   9.873   1.364   3.285
10366WAT      O31339   1.273   3.554   2.041
10366WAT     H131340   1.190   3.553   1.986
10366WAT     H231341   1.293   3.461   2.075
10367WAT      O31342   5.120   5.401   1.708
10367WAT     H131343   5.130   5.312   1.662
10367WAT     H231344   5.181   5.467   1.666
10368WAT      O31345   4.100   7.567   9.430
10368WAT     H131346   4.132   7.661   9.444
10368WAT     H231347   4.146   7.506   9.495
10369WAT      O31348   5.615   9.782   8.168
10369WAT     H131349   5.712   9.772   8.193
10369WAT     H231350   5.559   9.728   8.230
10370WAT      O31351   6.843   1.840   6.516
10370WAT     H131352   6.877   1.746   6.521
10370WAT     H231353   6.850   1.883   6.606
10371WAT      O31354   3.008   5.371   5.219
10371WAT     H131355   3.090   5.323   5.189
10371WAT     H231356   3.030   5.466   5.238
10372WAT      O31357   5.040   8.203   1.553
10372WAT     H131358   4.966   8.228   1.491
10372WAT     H231359   5.043   8.268   1.629
10373WAT      O31360   9.855   4.376   5.434
10373WAT     H131361   9.782   4.332   5.382
10373WAT     H231362   9.925   4.409   5.371
10374WAT      O31363   1.376   5.280   4.028
10374WAT     H131364   1.359   5.279   3.930
10374WAT     H231365   1.442   5.209   4.052
10375WAT      O31366   0.984   8.625   8.505
10375WAT     H131367   1.044   8.676   8.443
10375WAT     H231368   0.973   8.532   8.471
10376WAT      O31369   5.589   5.991   7.185
10376WAT     H131370   5.511   5.933   7.159
10376WAT     H231371   5.658   5.987   7.113
10377WAT      O31372   1.694   6.843   8.880
10377WAT     H131373   1.723   6.861   8.974
10377WAT     H231374   1.613   6.898   8.859
10378WAT      O31375   0.057   3.682   9.266
10378WAT     H131376  -0.038   3.653   9.279
10378WAT     H231377   0.113   3.604   9.240
10379WAT      O31378   2.231   6.666   9.324
10379WAT     H131379   2.310   6.663   9.263
10379WAT     H231380   2.214   6.575   9.362
10380WAT      O31381   9.385   2.326   6.179
10380WAT     H131382   9.469   2.289   6.218
10380WAT     H231383   9.324   2.355   6.253
10381WAT      O31384   3.654   2.936   0.617
10381WAT     H131385   3.579   2.875   0.591
10381WAT     H231386   3.720   2.941   0.542
10382WAT      O31387   7.714   3.425   2.238
10382WAT     H131388   7.654   3.465   2.169
10382WAT     H231389   7.685   3.331   2.257
10383WAT      O31390   5.855   8.062   7.313
10383WAT     H131391   5.928   8.127   7.337
10383WAT     H231392   5.895   7.983   7.266
10384WAT      O31393   8.908   0.235   0.016
10384WAT     H131394   9.001   0.232  -0.021
10384WAT     H231395   8.878   0.143   0.039
10385WAT      O31396   3.711   2.508   6.277
10385WAT     H131397   3.783   2.469   6.220
10385WAT     H231398   3.639   2.440   6.291
10386WAT      O31399   1.202   1.283   0.181
10386WAT     H131400   1.230   1.324   0.268
10386WAT     H231401   1.103   1.292   0.170
10387WAT      O31402   1.010   8.222   5.225
10387WAT     H131403   1.099   8.178   5.209
10387WAT     H231404   0.947   8.196   5.152
10388WAT      O31405   5.915   4.992   1.274
10388WAT     H131406   5.963   5.079   1.268
10388WAT     H231407   5.930   4.951   1.364
10389WAT      O31408   8.058   2.440   7.943
10389WAT     H131409   8.140   2.428   7.887
10389WAT     H231410   7.980   2.395   7.899
10390WAT      O31411   1.414   2.735   9.472
10390WAT     H131412   1.507   2.719   9.437
10390WAT     H231413   1.351   2.671   9.428
10391WAT      O31414   6.717   9.153   3.909
10391WAT     H131415   6.752   9.247   3.916
10391WAT     H231416   6.707   9.115   4.001
10392WAT      O31417   1.956   3.558   4.341
10392WAT     H131418   1.922   3.467   4.315
10392WAT     H231419   2.040   3.548   4.395
10393WAT      O31420   0.601   0.639   6.886
10393WAT     H131421   0.603   0.542   6.861
10393WAT     H231422   0.675   0.687   6.838
10394WAT      O31423   3.560   4.874   3.662
10394WAT     H131424   3.615   4.942   3.614
10394WAT     H231425   3.478   4.853   3.608
10395WAT      O31426   9.571   0.362   9.693
10395WAT     H131427   9.580   0.291   9.762
10395WAT     H231428   9.594   0.325   9.603
10396WAT      O31429   0.520   4.138   5.240
10396WAT     H131430   0.559   4.184   5.319
10396WAT     H231431   0.476   4.053   5.269
10397WAT      O31432   8.133   8.107   4.746
10397WAT     H131433   8.106   8.074   4.836
10397WAT     H231434   8.191   8.038   4.701
10398WAT      O31435   8.555   3.195   6.853
10398WAT     H131436   8.596   3.159   6.936
10398WAT     H231437   8.474   3.248   6.877
10399WAT      O31438   8.680   0.691   7.553
10399WAT     H131439   8.595   0.642   7.568
10399WAT     H231440   8.692   0.760   7.624
10400WAT      O31441   0.234   1.936   8.543
10400WAT     H131442   0.319   1.988   8.554
10400WAT     H231443   0.178   1.947   8.625
10401WAT      O31444   1.917   6.778   5.224
10401WAT     H131445   1.974   6.698   5.242
10401WAT     H231446   1.828   6.749   5.191
10402WAT      O31447   6.199   2.897   8.746
10402WAT     H131448   6.262   2.845   8.803
10402WAT     H231449   6.134   2.946   8.804
10403WAT      O31450   1.166   4.297   9.484
10403WAT     H131451   1.097   4.356   9.524
10403WAT     H231452   1.120   4.219   9.439
10404WAT      O31453   1.722   4.464   3.299
10404WAT     H131454   1.711   4.548   3.352
10404WAT     H231455   1.686   4.387   3.352
10405WAT      O31456   5.820   8.987   3.055
10405WAT     H131457   5.746   8.929   3.089
10405WAT     H231458   5.894   8.930   3.019
10406WAT      O31459   5.825   7.623   2.504
10406WAT     H131460   5.915   7.665   2.517
10406WAT     H231461   5.768   7.683   2.448
10407WAT      O31462   3.324   3.056   0.482
10407WAT     H131463   3.354   2.961   0.490
10407WAT     H231464   3.319   3.097   0.574
10408WAT      O31465   8.598   8.162   0.349
10408WAT     H131466   8.624   8.066   0.359
10408WAT     H231467   8.505   8.175   0.383
10409WAT      O31468   2.729   4.770   1.978
10409WAT     H131469   2.766   4.826   1.904
10409WAT     H231470   2.686   4.688   1.940
10410WAT      O31471   6.771   1.103   0.534
10410WAT     H131472   6.819   1.015   0.531
10410WAT     H231473   6.762   1.139   0.441
10411WAT      O31474   9.817   1.155   3.525
10411WAT     H131475   9.741   1.090   3.525
10411WAT     H231476   9.865   1.150   3.612
10412WAT      O31477   3.324   1.151   3.737
10412WAT     H131478   3.326   1.053   3.717
10412WAT     H231479   3.233   1.187   3.716
10413WAT      O31480   9.310   4.090   0.386
10413WAT     H131481   9.271   4.160   0.326
10413WAT     H231482   9.308   4.122   0.481
10414WAT      O31483   9.505   8.328   6.485
10414WAT     H131484   9.589   8.310   6.536
10414WAT     H231485   9.494   8.427   6.472
10415WAT      O31486   3.933   5.195   0.174
10415WAT     H131487   3.929   5.250   0.091
10415WAT     H231488   3.943   5.256   0.253
10416WAT      O31489   9.369   0.521   8.385
10416WAT     H131490   9.294   0.482   8.331
10416WAT     H231491   9.359   0.620   8.389
10417WAT      O31492   0.093   2.350   5.525
10417WAT     H131493   0.177   2.362   5.577
10417WAT     H231494   0.105   2.279   5.456
10418WAT      O31495   4.011   6.477   6.851
10418WAT     H131496   3.936   6.538   6.827
10418WAT     H231497   4.093   6.530   6.871
10419WAT      O31498   6.670   6.075   5.454
10419WAT     H131499   6.645   6.023   5.536
10419WAT     H231500   6.762   6.112   5.465
10420WAT      O31501   2.829   1.674   3.349
10420WAT     H131502   2.775   1.742   3.299
10420WAT     H231503   2.796   1.667   3.443
10421WAT      O31504   5.503   2.828   9.347
10421WAT     H131505   5.572   2.763   9.378
10421WAT     H231506   5.546   2.898   9.290
10422WAT      O31507   4.350   4.079   5.912
10422WAT     H131508   4.291   4.153   5.878
10422WAT     H231509   4.297   4.018   5.971
10423WAT      O31510   7.361   5.697   4.803
10423WAT     H131511   7.381   5.793   4.825
10423WAT     H231512   7.282   5.666   4.857
10424WAT      O31513   4.079   6.741   9.435
10424WAT     H131514   4.098   6.694   9.521
10424WAT     H231515   4.031   6.827   9.454
10425WAT      O31516   4.708   1.208   7.002
10425WAT     H131517   4.774   1.142   7.039
10425WAT     H231518   4.622   1.201   7.051
10426WAT      O31519   1.681   0.710   2.343
10426WAT     H131520   1.769   0.680   2.378
10426WAT     H231521   1.657   0.656   2.262
10427WAT      O31522   6.905   4.424   8.690
10427WAT     H131523   6.923   4.500   8.753
10427WAT     H231524   6.833   4.366   8.727
10428WAT      O31525   2.209   4.964   9.004
10428WAT     H131526   2.306   4.940   9.012
10428WAT     H231527   2.192   5.005   8.915
10429WAT      O31528   6.509   8.730   8.964
10429WAT     H131529   6.433   8.792   8.943
10429WAT     H231530   6.482   8.669   9.039
10430WAT      O31531   0.789   1.430   9.222
10430WAT     H131532   0.755   1.342   9.253
10430WAT     H231533   0.818   1.423   9.126
10431WAT      O31534   7.535   9.840   1.329
10431WAT     H131535   7.449   9.790   1.333
10431WAT     H231536   7.517   9.938   1.342
10432WAT      O31537   7.291   5.897   5.368
10432WAT     H131538   7.364   5.887   5.300
10432WAT     H231539   7.268   5.807   5.406
10433WAT      O31540   6.624   7.714   2.456
10433WAT     H131541   6.693   7.752   2.518
10433WAT     H231542   6.572   7.788   2.415
10434WAT      O31543   4.161   8.019   0.889
10434WAT     H131544   4.064   7.998   0.895
10434WAT     H231545   4.180   8.105   0.937
10435WAT      O31546   0.578   4.494   2.024
10435WAT     H131547   0.511   4.455   1.961
10435WAT     H231548   0.671   4.474   1.992
10436WAT      O31549   9.309   9.395   8.306
10436WAT     H131550   9.383   9.334   8.333
10436WAT     H231551   9.247   9.346   8.245
10437WAT      O31552   4.001   6.355   4.223
10437WAT     H131553   4.049   6.391   4.303
10437WAT     H231554   4.029   6.407   4.142
10438WAT      O31555   6.417   6.250   6.610
10438WAT     H131556   6.355   6.176   6.637
10438WAT     H231557   6.511   6.218   6.612
10439WAT      O31558   5.680   2.696   0.199
10439WAT     H131559   5.597   2.642   0.193
10439WAT     H231560   5.670   2.780   0.145
10440WAT      O31561   3.837   8.581   6.664
10440WAT     H131562   3.746   8.576   6.622
10440WAT     H231563   3.841   8.518   6.742
10441WAT      O31564   5.253   4.099   7.124
10441WAT     H131565   5.154   4.106   7.129
10441WAT     H231566   5.280   4.061   7.036
10442WAT      O31567   0.878   1.463   6.990
10442WAT     H131568   0.799   1.445   6.931
10442WAT     H231569   0.931   1.378   7.001
10443WAT      O31570   7.036   9.414   3.247
10443WAT     H131571   6.966   9.431   3.315
10443WAT     H231572   7.019   9.326   3.203
10444WAT      O31573   5.346   8.947   3.867
10444WAT     H131574   5.313   9.000   3.944
10444WAT     H231575   5.442   8.967   3.850
10445WAT      O31576   0.227   7.542   4.402
10445WAT     H131577   0.272   7.631   4.411
10445WAT     H231578   0.183   7.536   4.313
10446WAT      O31579   4.287   7.292   8.861
10446WAT     H131580   4.357   7.221   8.855
10446WAT     H231581   4.330   7.381   8.877
10447WAT      O31582   6.044   4.648   1.509
10447WAT     H131583   6.041   4.628   1.411
10447WAT     H231584   6.039   4.747   1.523
10448WAT      O31585   6.842   7.684   4.240
10448WAT     H131586   6.782   7.750   4.196
10448WAT     H231587   6.811   7.592   4.219
10449WAT      O31588   2.606   5.388   3.905
10449WAT     H131589   2.612   5.346   3.814
10449WAT     H231590   2.516   5.368   3.945
10450WAT      O31591   7.105   1.959   9.030
10450WAT     H131592   7.133   1.862   9.028
10450WAT     H231593   7.186   2.017   9.023
10451WAT      O31594   2.682   3.599   7.393
10451WAT     H131595   2.637   3.612   7.481
10451WAT     H231596   2.771   3.554   7.407
10452WAT      O31597   6.301   5.664   6.303
10452WAT     H131598   6.349   5.704   6.226
10452WAT     H231599   6.223   5.722   6.328
10453WAT      O31600   5.940   8.054   5.827
10453WAT     H131601   5.909   7.975   5.881
10453WAT     H231602   5.897   8.051   5.737
10454WAT      O31603   5.997   2.862   4.363
10454WAT     H131604   6.052   2.779   4.371
10454WAT     H231605   5.937   2.871   4.442
10455WAT      O31606   7.084   6.559   0.625
10455WAT     H131607   7.049   6.651   0.612
10455WAT     H231608   7.025   6.494   0.576
10456WAT      O31609   6.566   0.999   2.331
10456WAT     H131610   6.641   0.997   2.265
10456WAT     H231611   6.584   1.070   2.399
10457WAT      O31612   1.642   1.890   8.865
10457WAT     H131613   1.667   1.798   8.894
10457WAT     H231614   1.555   1.915   8.906
10458WAT      O31615   8.575   5.603   3.580
10458WAT     H131616   8.505   5.602   3.508
10458WAT     H231617   8.568   5.688   3.632
10459WAT      O31618   6.143   7.552   6.889
10459WAT     H131619   6.219   7.502   6.931
10459WAT     H231620   6.116   7.507   6.804
10460WAT      O31621   3.651   4.218   0.954
10460WAT     H131622   3.622   4.304   0.913
10460WAT     H231623   3.653   4.228   1.054
10461WAT      O31624   5.648   7.267   5.120
10461WAT     H131625   5.637   7.246   5.023
10461WAT     H231626   5.745   7.282   5.141
10462WAT      O31627   4.351   8.426   3.886
10462WAT     H131628   4.297   8.351   3.847
10462WAT     H231629   4.445   8.396   3.899
10463WAT      O31630   0.626   5.979   3.374
10463WAT     H131631   0.604   5.952   3.468
10463WAT     H231632   0.633   6.079   3.369
10464WAT      O31633   0.238   5.021   2.034
10464WAT     H131634   0.147   5.063   2.038
10464WAT     H231635   0.280   5.023   2.124
10465WAT      O31636   7.788   2.766   4.898
10465WAT     H131637   7.801   2.783   4.996
10465WAT     H231638   7.817   2.672   4.877
10466WAT      O31639   0.047   7.731   2.876
10466WAT     H131640   0.094   7.683   2.801
10466WAT     H231641  -0.050   7.740   2.854
10467WAT      O31642   5.128   0.342   8.958
10467WAT     H131643   5.090   0.308   9.045
10467WAT     H231644   5.209   0.397   8.977
10468WAT      O31645   6.405   8.712   1.055
10468WAT     H131646   6.336   8.688   1.123
10468WAT     H231647   6.401   8.810   1.036
10469WAT      O31648   2.031   7.136   1.803
10469WAT     H131649   2.056   7.075   1.878
10469WAT     H231650   1.985   7.084   1.732
10470WAT      O31651   1.050   6.501   8.099
10470WAT     H131652   1.064   6.436   8.024
10470WAT     H231653   1.090   6.589   8.075
10471WAT      O31654   3.101   2.426   5.551
10471WAT     H131655   3.125   2.511   5.598
10471WAT     H231656   3.157   2.417   5.468
10472WAT      O31657   7.257   3.805   9.092
10472WAT     H131658   7.211   3.744   9.028
10472WAT     H231659   7.324   3.753   9.145
10473WAT      O31660   1.342   7.457   1.355
10473WAT     H131661   1.350   7.382   1.289
10473WAT     H231662   1.398   7.534   1.326
10474WAT      O31663   5.066   3.406   7.125
10474WAT     H131664   5.019   3.482   7.081
10474WAT     H231665   5.147   3.440   7.173
10475WAT      O31666   1.613   4.549   2.551
10475WAT     H131667   1.519   4.573   2.527
10475WAT     H231668   1.655   4.498   2.476
10476WAT      O31669   8.464   9.210   2.697
10476WAT     H131670   8.551   9.251   2.726
10476WAT     H231671   8.392   9.279   2.702
10477WAT      O31672   2.970   4.534   2.563
10477WAT     H131673   3.012   4.531   2.472
10477WAT     H231674   2.901   4.607   2.566
10478WAT      O31675   6.190   9.079   4.821
10478WAT     H131676   6.278   9.039   4.847
10478WAT     H231677   6.196   9.116   4.729
10479WAT      O31678   2.141   4.466   5.686
10479WAT     H131679   2.102   4.383   5.726
10479WAT     H231680   2.068   4.531   5.665
10480WAT      O31681   7.230   0.029   3.020
10480WAT     H131682   7.218  -0.064   2.985
10480WAT     H231683   7.280   0.025   3.107
10481WAT      O31684   7.448   3.783   1.309
10481WAT     H131685   7.410   3.746   1.224
10481WAT     H231686   7.542   3.749   1.321
10482WAT      O31687   1.288   7.289   9.255
10482WAT     H131688   1.285   7.389   9.249
10482WAT     H231689   1.229   7.259   9.330
10483WAT      O31690   1.529   4.282   5.278
10483WAT     H131691   1.591   4.218   5.324
10483WAT     H231692   1.455   4.306   5.340
10484WAT      O31693   8.735   9.291   7.691
10484WAT     H131694   8.705   9.283   7.786
10484WAT     H231695   8.678   9.358   7.644
10485WAT      O31696   7.438   7.461   5.890
10485WAT     H131697   7.399   7.377   5.851
10485WAT     H231698   7.532   7.442   5.920
10486WAT      O31699   6.860   8.399   0.746
10486WAT     H131700   6.831   8.343   0.668
10486WAT     H231701   6.828   8.493   0.735
10487WAT      O31702   7.780   2.956   3.766
10487WAT     H131703   7.695   2.930   3.812
10487WAT     H231704   7.856   2.903   3.803
10488WAT      O31705   3.844   8.673   4.902
10488WAT     H131706   3.819   8.770   4.896
10488WAT     H231707   3.801   8.632   4.982
10489WAT      O31708   2.875   5.586   1.293
10489WAT     H131709   2.818   5.665   1.316
10489WAT     H231710   2.964   5.617   1.262
10490WAT      O31711   7.072   2.080   6.774
10490WAT     H131712   6.985   2.033   6.756
10490WAT     H231713   7.062   2.134   6.858
10491WAT      O31714   0.758   2.668   2.543
10491WAT     H131715   0.688   2.714   2.597
10491WAT     H231716   0.714   2.610   2.474
10492WAT      O31717   6.647   4.555   0.004
10492WAT     H131718   6.720   4.487   0.001
10492WAT     H231719   6.685   4.643   0.030
10493WAT      O31720   2.566   9.804   4.118
10493WAT     H131721   2.654   9.802   4.166
10493WAT     H231722   2.575   9.862   4.037
10494WAT      O31723   0.439   8.357   3.631
10494WAT     H131724   0.469   8.390   3.542
10494WAT     H231725   0.518   8.343   3.690
10495WAT      O31726   7.136   9.351   4.832
10495WAT     H131727   7.220   9.403   4.814
10495WAT     H231728   7.154   9.282   4.902
10496WAT      O31729   3.665   3.085   5.404
10496WAT     H131730   3.603   3.109   5.479
10496WAT     H231731   3.652   2.989   5.379
10497WAT      O31732   6.678   1.854   7.567
10497WAT     H131733   6.645   1.899   7.484
10497WAT     H231734   6.605   1.852   7.635
10498WAT      O31735   9.201   3.967   8.116
10498WAT     H131736   9.139   3.987   8.040
10498WAT     H231737   9.180   4.027   8.193
10499WAT      O31738   6.574   8.993   0.409
10499WAT     H131739   6.665   8.982   0.369
10499WAT     H231740   6.549   8.910   0.458
10500WAT      O31741   0.894   3.470   0.990
10500WAT     H131742   0.907   3.392   0.929
10500WAT     H231743   0.840   3.441   1.069
10501WAT      O31744   5.939   7.874   8.734
10501WAT     H131745   5.938   7.928   8.819
10501WAT     H231746   6.033   7.844   8.715
10502WAT      O31747   5.474   3.488   2.538
10502WAT     H131748   5.538   3.562   2.557
10502WAT     H231749   5.382   3.525   2.524
10503WAT      O31750   3.040   9.801   2.544
10503WAT     H131751   3.035   9.898   2.569
10503WAT     H231752   3.056   9.746   2.626
10504WAT      O31753   1.870   8.897   8.886
10504WAT     H131754   1.849   8.869   8.793
10504WAT     H231755   1.928   8.828   8.930
10505WAT      O31756   2.309   0.499   8.186
10505WAT     H131757   2.346   0.561   8.255
10505WAT     H231758   2.354   0.516   8.098
10506WAT      O31759   1.754   6.212   6.108
10506WAT     H131760   1.730   6.119   6.080
10506WAT     H231761   1.771   6.214   6.206
10507WAT      O31762   3.042   3.673   3.183
10507WAT     H131763   3.023   3.760   3.228
10507WAT     H231764   2.970   3.655   3.115
10508WAT      O31765   4.624   0.119   8.491
10508WAT     H131766   4.584   0.189   8.551
10508WAT     H231767   4.709   0.086   8.532
10509WAT      O31768   0.232   0.395   2.023
10509WAT     H131769   0.212   0.304   1.984
10509WAT     H231770   0.286   0.384   2.106
10510WAT      O31771   0.588   3.667   8.611
10510WAT     H131772   0.658   3.724   8.569
10510WAT     H231773   0.499   3.712   8.604
10511WAT      O31774   0.105   3.824   4.554
10511WAT     H131775   0.184   3.776   4.592
10511WAT     H231776   0.136   3.892   4.488
10512WAT      O31777   6.712   7.504   1.001
10512WAT     H131778   6.753   7.501   1.092
10512WAT     H231779   6.686   7.411   0.974
10513WAT      O31780   9.644   6.991   5.679
10513WAT     H131781   9.548   7.004   5.654
10513WAT     H231782   9.661   6.895   5.698
10514WAT      O31783   3.852   5.097   0.610
10514WAT     H131784   3.833   5.190   0.641
10514WAT     H231785   3.807   5.032   0.671
10515WAT      O31786   9.507   9.504   2.200
10515WAT     H131787   9.414   9.525   2.230
10515WAT     H231788   9.569   9.509   2.278
10516WAT      O31789   3.666   9.005   2.711
10516WAT     H131790   3.694   9.091   2.670
10516WAT     H231791   3.607   9.023   2.789
10517WAT      O31792   3.604   7.733   0.754
10517WAT     H131793   3.573   7.828   0.759
10517WAT     H231794   3.683   7.720   0.813
10518WAT      O31795   8.285   4.255   4.627
10518WAT     H131796   8.208   4.313   4.654
10518WAT     H231797   8.360   4.313   4.594
10519WAT      O31798   1.544   4.599   8.154
10519WAT     H131799   1.510   4.536   8.223
10519WAT     H231800   1.548   4.691   8.192
10520WAT      O31801   8.530   9.585   6.741
10520WAT     H131802   8.598   9.519   6.772
10520WAT     H231803   8.575   9.663   6.699
10521WAT      O31804   9.060   3.129   1.385
10521WAT     H131805   9.030   3.209   1.437
10521WAT     H231806   9.060   3.048   1.444
10522WAT      O31807   7.879   0.544   4.437
10522WAT     H131808   7.810   0.472   4.448
10522WAT     H231809   7.847   0.628   4.482
10523WAT      O31810   1.750   6.644   9.116
10523WAT     H131811   1.804   6.586   9.177
10523WAT     H231812   1.698   6.585   9.053
10524WAT      O31813   3.696   5.503   8.865
10524WAT     H131814   3.634   5.571   8.827
10524WAT     H231815   3.772   5.549   8.912
10525WAT      O31816   4.823   4.364   0.670
10525WAT     H131817   4.923   4.362   0.669
10525WAT     H231818   4.789   4.434   0.608
10526WAT      O31819   1.303   3.399   5.476
10526WAT     H131820   1.234   3.442   5.534
10526WAT     H231821   1.259   3.359   5.396
10527WAT      O31822   1.987   3.989   7.321
10527WAT     H131823   2.022   4.019   7.410
10527WAT     H231824   2.033   4.038   7.248
10528WAT      O31825   9.737   3.075   4.527
10528WAT     H131826   9.808   3.089   4.597
10528WAT     H231827   9.712   2.979   4.524
10529WAT      O31828   1.159   6.307   1.951
10529WAT     H131829   1.107   6.346   1.876
10529WAT     H231830   1.214   6.230   1.918
10530WAT      O31831   4.073   9.377   0.626
10530WAT     H131832   4.152   9.433   0.652
10530WAT     H231833   4.013   9.364   0.705
10531WAT      O31834   8.389   7.420   5.845
10531WAT     H131835   8.327   7.476   5.899
10531WAT     H231836   8.370   7.434   5.748
10532WAT      O31837   0.382   2.903   5.579
10532WAT     H131838   0.470   2.893   5.624
10532WAT     H231839   0.360   3.001   5.570
10533WAT      O31840   8.334   3.359   8.393
10533WAT     H131841   8.267   3.414   8.443
10533WAT     H231842   8.426   3.387   8.420
10534WAT      O31843   1.994   4.859   6.712
10534WAT     H131844   1.993   4.780   6.774
10534WAT     H231845   2.028   4.830   6.622
10535WAT      O31846   2.924   2.917   7.119
10535WAT     H131847   2.891   2.972   7.196
10535WAT     H231848   2.886   2.824   7.126
10536WAT      O31849   6.720   0.929   2.030
10536WAT     H131850   6.681   0.947   1.940
10536WAT     H231851   6.817   0.952   2.030
10537WAT      O31852   0.915   7.290   2.575
10537WAT     H131853   0.880   7.384   2.572
10537WAT     H231854   0.842   7.226   2.550
10538WAT      O31855   6.117   9.357   8.230
10538WAT     H131856   6.201   9.372   8.282
10538WAT     H231857   6.082   9.444   8.196
10539WAT      O31858   1.300   7.576   7.347
10539WAT     H131859   1.376   7.639   7.362
10539WAT     H231860   1.336   7.483   7.338
10540WAT      O31861   5.815   9.291   5.346
10540WAT     H131862   5.835   9.322   5.439
10540WAT     H231863   5.733   9.337   5.312
10541WAT      O31864   6.855   9.407   5.983
10541WAT     H131865   6.808   9.476   5.927
10541WAT     H231866   6.948   9.394   5.949
10542WAT      O31867   1.674   6.557   3.783
10542WAT     H131868   1.605   6.485   3.790
10542WAT     H231869   1.641   6.629   3.722
10543WAT      O31870   6.484   1.705   5.688
10543WAT     H131871   6.446   1.650   5.762
10543WAT     H231872   6.584   1.701   5.690
10544WAT      O31873   3.626   8.787   1.061
10544WAT     H131874   3.642   8.886   1.060
10544WAT     H231875   3.536   8.768   1.022
10545WAT      O31876   7.579   0.745   2.557
10545WAT     H131877   7.535   0.835   2.558
10545WAT     H231878   7.645   0.739   2.631
10546WAT      O31879   0.307   4.742   7.570
10546WAT     H131880   0.221   4.703   7.604
10546WAT     H231881   0.383   4.707   7.625
10547WAT      O31882   4.125   9.044   5.190
10547WAT     H131883   4.191   9.108   5.230
10547WAT     H231884   4.061   9.014   5.261
10548WAT      O31885   1.255   8.878   5.855
10548WAT     H131886   1.252   8.958   5.796
10548WAT     H231887   1.165   8.834   5.857
10549WAT      O31888   3.990   4.895   7.607
10549WAT     H131889   4.046   4.847   7.539
10549WAT     H231890   3.894   4.889   7.580
10550WAT      O31891   3.279   9.324   9.817
10550WAT     H131892   3.238   9.238   9.786
10550WAT     H231893   3.242   9.400   9.763
10551WAT      O31894   9.447   7.914   7.598
10551WAT     H131895   9.456   7.821   7.636
10551WAT     H231896   9.361   7.920   7.547
10552WAT      O31897   7.743   6.557   6.956
10552WAT     H131898   7.643   6.560   6.960
10552WAT     H231899   7.778   6.643   6.919
10553WAT      O31900   7.677   8.295   3.072
10553WAT     H131901   7.725   8.267   2.989
10553WAT     H231902   7.662   8.394   3.070
10554WAT      O31903   8.579   8.188   7.208
10554WAT     H131904   8.562   8.251   7.132
10554WAT     H231905   8.495   8.176   7.261
10555WAT      O31906   8.289   3.740   1.703
10555WAT     H131907   8.298   3.644   1.676
10555WAT     H231908   8.336   3.754   1.790
10556WAT      O31909   6.711   0.960   5.649
10556WAT     H131910   6.639   0.968   5.580
10556WAT     H231911   6.730   1.051   5.687
10557WAT      O31912   4.902   2.553   7.495
10557WAT     H131913   4.983   2.537   7.552
10557WAT     H231914   4.913   2.639   7.445
10558WAT      O31915   0.040   8.684   8.029
10558WAT     H131916  -0.009   8.712   8.111
10558WAT     H231917  -0.025   8.647   7.963
10559WAT      O31918   7.481   5.557   5.746
10559WAT     H131919   7.493   5.547   5.844
10559WAT     H231920   7.460   5.468   5.705
10560WAT      O31921   3.876   0.672   5.542
10560WAT     H131922   3.871   0.702   5.637
10560WAT     H231923   3.828   0.737   5.483
10561WAT      O31924   1.551   5.945   9.384
10561WAT     H131925   1.529   6.007   9.309
10561WAT     H231926   1.508   5.856   9.368
10562WAT      O31927   5.806   3.164   3.413
10562WAT     H131928   5.868   3.122   3.347
10562WAT     H231929   5.841   3.254   3.439
10563WAT      O31930   8.788   3.336   9.571
10563WAT     H131931   8.759   3.408   9.507
10563WAT     H231932   8.729   3.256   9.559
10564WAT      O31933   4.770   1.830   5.907
10564WAT     H131934   4.677   1.794   5.916
10564WAT     H231935   4.769   1.914   5.853
10565WAT      O31936   9.174   7.315   3.498
10565WAT     H131937   9.208   7.301   3.405
10565WAT     H231938   9.191   7.233   3.553
10566WAT      O31939   5.819   0.597   3.012
10566WAT     H131940   5.913   0.602   2.980
10566WAT     H231941   5.756   0.606   2.935
10567WAT      O31942   6.013   1.522   1.932
10567WAT     H131943   5.991   1.476   2.018
10567WAT     H231944   6.061   1.608   1.952
10568WAT      O31945   2.271   0.335   8.835
10568WAT     H131946   2.239   0.297   8.749
10568WAT     H231947   2.335   0.410   8.817
10569WAT      O31948   4.608   7.372   5.564
10569WAT     H131949   4.553   7.301   5.607
10569WAT     H231950   4.658   7.423   5.634
10570WAT      O31951   1.281   0.008   1.646
10570WAT     H131952   1.331   0.078   1.698
10570WAT     H231953   1.304  -0.082   1.683
10571WAT      O31954   7.021   4.104   8.073
10571WAT     H131955   7.115   4.139   8.074
10571WAT     H231956   7.022   4.009   8.042
10572WAT      O31957   6.462   7.282   7.490
10572WAT     H131958   6.494   7.191   7.517
10572WAT     H231959   6.493   7.301   7.397
10573WAT      O31960   8.342   6.613   5.537
10573WAT     H131961   8.267   6.594   5.472
10573WAT     H231962   8.347   6.712   5.553
10574WAT      O31963   4.195   9.065   8.958
10574WAT     H131964   4.130   9.042   9.031
10574WAT     H231965   4.286   9.034   8.984
10575WAT      O31966   3.493   1.553   9.551
10575WAT     H131967   3.450   1.567   9.462
10575WAT     H231968   3.593   1.558   9.540
10576WAT      O31969   0.885   3.794   8.542
10576WAT     H131970   0.956   3.740   8.497
10576WAT     H231971   0.826   3.835   8.473
10577WAT      O31972   6.400   7.909   4.580
10577WAT     H131973   6.310   7.931   4.544
10577WAT     H231974   6.397   7.821   4.628
10578WAT      O31975   6.020   9.270   1.572
10578WAT     H131976   5.980   9.299   1.658
10578WAT     H231977   5.955   9.212   1.523
10579WAT      O31978   2.651   2.724   3.926
10579WAT     H131979   2.711   2.672   3.866
10579WAT     H231980   2.673   2.821   3.921
10580WAT      O31981   2.175   6.763   6.304
10580WAT     H131982   2.134   6.717   6.225
10580WAT     H231983   2.103   6.808   6.357
10581WAT      O31984   2.889   6.275   3.327
10581WAT     H131985   2.805   6.322   3.303
10581WAT     H231986   2.946   6.335   3.384
10582WAT      O31987   8.955   6.224   5.547
10582WAT     H131988   8.878   6.241   5.609
10582WAT     H231989   8.922   6.217   5.453
10583WAT      O31990   7.616   5.070   6.029
10583WAT     H131991   7.537   5.022   6.068
10583WAT     H231992   7.683   5.004   5.996
10584WAT      O31993   4.532   8.323   2.991
10584WAT     H131994   4.439   8.358   3.003
10584WAT     H231995   4.596   8.400   2.989
10585WAT      O31996   5.101   9.354   8.016
10585WAT     H131997   5.137   9.301   8.093
10585WAT     H231998   5.054   9.292   7.953
10586WAT      O31999   6.372   0.762   8.671
10586WAT     H132000   6.378   0.844   8.728
10586WAT     H232001   6.276   0.743   8.651
10587WAT      O32002   1.489   6.363   2.569
10587WAT     H132003   1.571   6.338   2.516
10587WAT     H232004   1.437   6.280   2.588
10588WAT      O32005   8.902   6.856   1.798
10588WAT     H132006   8.879   6.903   1.884
10588WAT     H232007   8.876   6.913   1.721
10589WAT      O32008   1.496   6.994   8.759
10589WAT     H132009   1.398   6.993   8.780
10589WAT     H232010   1.509   7.016   8.663
10590WAT      O32011   9.263   1.126   0.890
10590WAT     H132012   9.164   1.127   0.877
10590WAT     H232013   9.305   1.073   0.817
10591WAT      O32014   8.173   0.663   6.666
10591WAT     H132015   8.141   0.690   6.757
10591WAT     H232016   8.217   0.741   6.621
10592WAT      O32017   6.856   7.443   9.254
10592WAT     H132018   6.874   7.470   9.349
10592WAT     H232019   6.776   7.384   9.251
10593WAT      O32020   2.381   2.855   2.031
10593WAT     H132021   2.326   2.773   2.043
10593WAT     H232022   2.474   2.830   2.002
10594WAT      O32023   3.036   1.014   3.500
10594WAT     H132024   3.091   0.932   3.483
10594WAT     H232025   3.087   1.076   3.561
10595WAT      O32026   9.225   0.092   6.110
10595WAT     H132027   9.145   0.038   6.138
10595WAT     H232028   9.302   0.030   6.093
10596WAT      O32029   1.342   0.254   7.118
10596WAT     H132030   1.372   0.160   7.135
10596WAT     H232031   1.361   0.278   7.023
10597WAT      O32032   2.394   4.379   5.670
10597WAT     H132033   2.307   4.426   5.688
10597WAT     H232034   2.376   4.293   5.622
10598WAT      O32035   6.517   1.069   5.829
10598WAT     H132036   6.529   0.997   5.761
10598WAT     H232037   6.556   1.038   5.916
10599WAT      O32038   1.754   1.963   0.301
10599WAT     H132039   1.816   2.028   0.344
10599WAT     H232040   1.688   1.929   0.369
10600WAT      O32041   7.046   2.514   4.336
10600WAT     H132042   7.106   2.557   4.269
10600WAT     H232043   7.017   2.424   4.303
10601WAT      O32044   6.322   4.307   6.445
10601WAT     H132045   6.358   4.386   6.394
10601WAT     H232046   6.285   4.240   6.381
10602WAT      O32047   3.014   0.604   7.687
10602WAT     H132048   2.977   0.697   7.695
10602WAT     H232049   3.099   0.606   7.635
10603WAT      O32050   0.745   8.023   0.821
10603WAT     H132051   0.677   8.085   0.784
10603WAT     H232052   0.732   7.932   0.781
10604WAT      O32053   1.385   6.916   0.085
10604WAT     H132054   1.337   6.829   0.097
10604WAT     H232055   1.460   6.921   0.151
10605WAT      O32056   6.532   5.434   0.719
10605WAT     H132057   6.541   5.369   0.643
10605WAT     H232058   6.618   5.438   0.769
10606WAT      O32059   7.158   8.819   8.126
10606WAT     H132060   7.131   8.913   8.148
10606WAT     H232061   7.190   8.815   8.031
10607WAT      O32062   0.332   9.189   1.263
10607WAT     H132063   0.398   9.228   1.199
10607WAT     H232064   0.304   9.260   1.328
10608WAT      O32065   3.663   0.254   2.325
10608WAT     H132066   3.668   0.332   2.263
10608WAT     H232067   3.641   0.171   2.273
10609WAT      O32068   7.353   8.941   4.320
10609WAT     H132069   7.346   8.842   4.336
10609WAT     H232070   7.450   8.966   4.314
10610WAT      O32071   8.185   6.818   9.875
10610WAT     H132072   8.090   6.830   9.845
10610WAT     H232073   8.217   6.727   9.846
10611WAT      O32074   9.391   7.706   9.698
10611WAT     H132075   9.329   7.762   9.643
10611WAT     H232076   9.474   7.686   9.645
10612WAT      O32077   8.727   5.592   0.809
10612WAT     H132078   8.640   5.634   0.832
10612WAT     H232079   8.719   5.543   0.722
10613WAT      O32080   1.133   5.585   6.101
10613WAT     H132081   1.180   5.552   6.019
10613WAT     H232082   1.060   5.647   6.075
10614WAT      O32083   5.512   9.780   2.028
10614WAT     H132084   5.570   9.713   1.980
10614WAT     H232085   5.421   9.740   2.043
10615WAT      O32086   5.024   5.793   9.454
10615WAT     H132087   4.993   5.803   9.548
10615WAT     H232088   4.982   5.865   9.397
10616WAT      O32089   9.293   6.127   2.151
10616WAT     H132090   9.226   6.060   2.118
10616WAT     H232091   9.320   6.187   2.076
10617WAT      O32092   7.554   0.626   8.916
10617WAT     H132093   7.474   0.646   8.973
10617WAT     H232094   7.636   0.625   8.974
10618WAT      O32095   7.842   9.302   7.477
10618WAT     H132096   7.835   9.369   7.551
10618WAT     H232097   7.750   9.272   7.451
10619WAT      O32098   7.911   4.380   7.484
10619WAT     H132099   7.950   4.302   7.436
10619WAT     H232100   7.974   4.458   7.479
10620WAT      O32101   5.433   1.182   6.651
10620WAT     H132102   5.513   1.201   6.594
10620WAT     H232103   5.390   1.097   6.621
10621WAT      O32104   0.613   0.341   5.801
10621WAT     H132105   0.664   0.323   5.885
10621WAT     H232106   0.659   0.296   5.724
10622WAT      O32107   6.199   9.527   5.568
10622WAT     H132108   6.253   9.564   5.493
10622WAT     H232109   6.198   9.427   5.563
10623WAT      O32110   6.790   1.848   3.117
10623WAT     H132111   6.697   1.859   3.081
10623WAT     H232112   6.814   1.928   3.172
10624WAT      O32113   8.749   0.053   3.158
10624WAT     H132114   8.835   0.013   3.127
10624WAT     H232115   8.709   0.108   3.085
10625WAT      O32116   5.547   2.087   3.827
10625WAT     H132117   5.500   2.042   3.903
10625WAT     H232118   5.493   2.076   3.743
10626WAT      O32119   7.698   2.965   9.140
10626WAT     H132120   7.680   3.041   9.203
10626WAT     H232121   7.631   2.892   9.156
10627WAT      O32122   2.660   2.771   5.584
10627WAT     H132123   2.651   2.728   5.674
10627WAT     H232124   2.755   2.764   5.553
10628WAT      O32125   3.514   2.054   2.351
10628WAT     H132126   3.435   2.015   2.399
10628WAT     H232127   3.529   2.147   2.382
10629WAT      O32128   4.147   2.346   0.373
10629WAT     H132129   4.154   2.253   0.339
10629WAT     H232130   4.235   2.392   0.365
10630WAT      O32131   5.542   4.091   8.371
10630WAT     H132132   5.533   4.104   8.470
10630WAT     H232133   5.567   3.996   8.352
10631WAT      O32134   6.316   5.763   0.383
10631WAT     H132135   6.305   5.704   0.462
10631WAT     H232136   6.230   5.768   0.332
10632WAT      O32137   3.324   3.588   7.811
10632WAT     H132138   3.225   3.595   7.806
10632WAT     H232139   3.352   3.493   7.793
10633WAT      O32140   2.368   0.380   5.604
10633WAT     H132141   2.303   0.446   5.566
10633WAT     H232142   2.398   0.410   5.695
10634WAT      O32143   3.644   3.468   0.519
10634WAT     H132144   3.586   3.460   0.438
10634WAT     H232145   3.636   3.384   0.573
10635WAT      O32146   5.699   4.240   2.604
10635WAT     H132147   5.788   4.204   2.575
10635WAT     H232148   5.661   4.180   2.674
10636WAT      O32149   9.491   3.688   7.681
10636WAT     H132150   9.555   3.613   7.702
10636WAT     H232151   9.532   3.749   7.614
10637WAT      O32152   5.496   5.730   2.119
10637WAT     H132153   5.480   5.788   2.040
10637WAT     H232154   5.566   5.772   2.177
10638WAT      O32155   6.669   8.440   2.006
10638WAT     H132156   6.647   8.527   2.051
10638WAT     H232157   6.647   8.447   1.909
10639WAT      O32158   0.173   4.900   5.891
10639WAT     H132159   0.111   4.829   5.857
10639WAT     H232160   0.160   4.910   5.990
10640WAT      O32161   9.244   6.521   0.537
10640WAT     H132162   9.197   6.603   0.571
10640WAT     H232163   9.185   6.442   0.550
10641WAT      O32164   4.813   0.727   9.740
10641WAT     H132165   4.845   0.693   9.651
10641WAT     H232166   4.724   0.687   9.762
10642WAT      O32167   8.612   2.208   9.339
10642WAT     H132168   8.520   2.181   9.369
10642WAT     H232169   8.678   2.187   9.411
10643WAT      O32170   7.165   1.394   6.255
10643WAT     H132171   7.247   1.337   6.245
10643WAT     H232172   7.087   1.347   6.213
10644WAT      O32173   0.012   0.464   8.376
10644WAT     H132174   0.054   0.456   8.466
10644WAT     H232175  -0.088   0.464   8.386
10645WAT      O32176   0.498   8.667   8.055
10645WAT     H132177   0.432   8.610   8.102
10645WAT     H232178   0.471   8.763   8.063
10646WAT      O32179   7.956   5.680   1.578
10646WAT     H132180   7.915   5.707   1.665
10646WAT     H232181   8.041   5.731   1.564
10647WAT      O32182   2.180   0.642   6.138
10647WAT     H132183   2.181   0.592   6.051
10647WAT     H232184   2.109   0.712   6.137
10648WAT      O32185   1.248   1.021   4.385
10648WAT     H132186   1.226   0.930   4.419
10648WAT     H232187   1.184   1.047   4.313
10649WAT      O32188   3.449   4.972   8.030
10649WAT     H132189   3.427   5.060   7.989
10649WAT     H232190   3.364   4.921   8.047
10650WAT      O32191   2.668   4.959   2.406
10650WAT     H132192   2.591   4.896   2.409
10650WAT     H232193   2.642   5.047   2.445
10651WAT      O32194   9.846   0.680   9.192
10651WAT     H132195   9.942   0.683   9.222
10651WAT     H232196   9.824   0.765   9.143
10652WAT      O32197   1.891   9.041   0.927
10652WAT     H132198   1.944   9.086   0.855
10652WAT     H232199   1.808   9.093   0.946
10653WAT      O32200   6.316   6.676   1.360
10653WAT     H132201   6.297   6.642   1.452
10653WAT     H232202   6.329   6.599   1.297
10654WAT      O32203   0.102   3.653   4.161
10654WAT     H132204   0.034   3.711   4.205
10654WAT     H232205   0.188   3.703   4.153
10655WAT      O32206   3.575   4.928   8.858
10655WAT     H132207   3.670   4.897   8.858
10655WAT     H232208   3.571   5.023   8.826
10656WAT      O32209   7.887   5.740   9.745
10656WAT     H132210   7.943   5.719   9.826
10656WAT     H232211   7.832   5.660   9.722
10657WAT      O32212   0.956   2.043   7.088
10657WAT     H132213   1.033   2.089   7.043
10657WAT     H232214   0.883   2.030   7.022
10658WAT      O32215   5.588   6.377   7.901
10658WAT     H132216   5.687   6.387   7.891
10658WAT     H232217   5.566   6.280   7.912
10659WAT      O32218   1.895   6.956   4.470
10659WAT     H132219   1.928   7.045   4.438
10659WAT     H232220   1.941   6.932   4.555
10660WAT      O32221   9.452   7.563   0.795
10660WAT     H132222   9.435   7.655   0.831
10660WAT     H232223   9.396   7.549   0.713
10661WAT      O32224   7.433   7.699   6.769
10661WAT     H132225   7.483   7.674   6.687
10661WAT     H232226   7.334   7.696   6.750
10662WAT      O32227   3.929   8.326   3.266
10662WAT     H132228   4.026   8.311   3.280
10662WAT     H232229   3.916   8.390   3.190
10663WAT      O32230   0.714   4.161   4.025
10663WAT     H132231   0.813   4.172   4.023
10663WAT     H232232   0.678   4.159   3.931
10664WAT      O32233   0.669   6.914   4.257
10664WAT     H132234   0.690   7.010   4.242
10664WAT     H232235   0.580   6.906   4.303
10665WAT      O32236   7.791   8.437   1.953
10665WAT     H132237   7.850   8.363   1.985
10665WAT     H232238   7.755   8.413   1.862
10666WAT      O32239   9.466   7.920   3.335
10666WAT     H132240   9.447   7.998   3.275
10666WAT     H232241   9.534   7.861   3.292
10667WAT      O32242   3.149   9.074   8.148
10667WAT     H132243   3.147   9.061   8.049
10667WAT     H232244   3.234   9.037   8.186
10668WAT      O32245   7.193   8.166   9.148
10668WAT     H132246   7.292   8.158   9.159
10668WAT     H232247   7.171   8.254   9.106
10669WAT      O32248   4.138   5.898   5.387
10669WAT     H132249   4.199   5.959   5.437
10669WAT     H232250   4.051   5.889   5.435
10670WAT      O32251   8.055   8.945   8.746
10670WAT     H132252   8.035   8.993   8.832
10670WAT     H232253   8.057   9.010   8.671
10671WAT      O32254   2.077   0.424   7.532
10671WAT     H132255   2.134   0.462   7.460
10671WAT     H232256   2.115   0.337   7.562
10672WAT      O32257   7.515   6.965   5.952
10672WAT     H132258   7.473   6.896   6.011
10672WAT     H232259   7.464   6.972   5.867
10673WAT      O32260   0.850   8.566   2.415
10673WAT     H132261   0.879   8.473   2.392
10673WAT     H232262   0.923   8.611   2.468
10674WAT      O32263   8.685   8.102   4.269
10674WAT     H132264   8.702   8.025   4.330
10674WAT     H232265   8.736   8.089   4.184
10675WAT      O32266   6.996   6.651   9.280
10675WAT     H132267   7.084   6.669   9.235
10675WAT     H232268   7.012   6.625   9.375
10676WAT      O32269   9.570   7.471   5.798
10676WAT     H132270   9.482   7.514   5.818
10676WAT     H232271   9.626   7.535   5.744
10677WAT      O32272   7.677   1.056   0.673
10677WAT     H132273   7.753   1.021   0.729
10677WAT     H232274   7.633   0.979   0.626
10678WAT      O32275   7.166   8.157   7.170
10678WAT     H132276   7.154   8.256   7.175
10678WAT     H232277   7.105   8.113   7.236
10679WAT      O32278   2.094   7.733   0.393
10679WAT     H132279   2.127   7.707   0.484
10679WAT     H232280   2.042   7.818   0.400
10680WAT      O32281   6.642   4.035   4.918
10680WAT     H132282   6.579   4.047   4.842
10680WAT     H232283   6.599   4.068   5.002
10681WAT      O32284   1.140   0.640   9.553
10681WAT     H132285   1.141   0.665   9.456
10681WAT     H232286   1.127   0.722   9.609
10682WAT      O32287   3.833   4.534   7.991
10682WAT     H132288   3.927   4.550   7.962
10682WAT     H232289   3.776   4.511   7.911
10683WAT      O32290   4.522   1.285   6.517
10683WAT     H132291   4.425   1.261   6.521
10683WAT     H232292   4.565   1.261   6.604
10684WAT      O32293   0.413   0.517   1.731
10684WAT     H132294   0.380   0.423   1.720
10684WAT     H232295   0.349   0.569   1.788
10685WAT      O32296   2.062   0.736   0.659
10685WAT     H132297   1.991   0.795   0.695
10685WAT     H232298   2.142   0.738   0.719
10686WAT      O32299   4.048   6.550   9.238
10686WAT     H132300   3.994   6.479   9.284
10686WAT     H232301   4.041   6.635   9.289
10687WAT      O32302   1.212   0.785   2.472
10687WAT     H132303   1.309   0.810   2.475
10687WAT     H232304   1.190   0.728   2.551
10688WAT      O32305   8.336   4.178   4.892
10688WAT     H132306   8.320   4.199   4.795
10688WAT     H232307   8.287   4.095   4.917
10689WAT      O32308   9.213   3.783   0.130
10689WAT     H132309   9.152   3.859   0.148
10689WAT     H232310   9.230   3.776   0.032
10690WAT      O32311   6.574   0.339   8.028
10690WAT     H132312   6.600   0.421   8.079
10690WAT     H232313   6.649   0.313   7.966
10691WAT      O32314   3.278   4.265   7.818
10691WAT     H132315   3.367   4.283   7.858
10691WAT     H232316   3.273   4.171   7.785
10692WAT      O32317   2.496   1.957   8.096
10692WAT     H132318   2.398   1.946   8.111
10692WAT     H232319   2.546   1.916   8.172
10693WAT      O32320   5.198   6.895   8.472
10693WAT     H132321   5.204   6.799   8.499
10693WAT     H232322   5.172   6.901   8.376
10694WAT      O32323   7.403   0.852   3.092
10694WAT     H132324   7.418   0.909   3.172
10694WAT     H232325   7.454   0.767   3.101
10695WAT      O32326   6.693   3.669   2.542
10695WAT     H132327   6.770   3.712   2.587
10695WAT     H232328   6.669   3.584   2.589
10696WAT      O32329   6.012   1.461   0.830
10696WAT     H132330   5.982   1.552   0.802
10696WAT     H232331   5.932   1.400   0.834
10697WAT      O32332   7.933   5.782   3.997
10697WAT     H132333   7.856   5.845   3.983
10697WAT     H232334   7.909   5.715   4.066
10698WAT      O32335   8.434   5.217   3.930
10698WAT     H132336   8.448   5.225   3.832
10698WAT     H232337   8.336   5.214   3.949
10699WAT      O32338   3.766   0.082   8.480
10699WAT     H132339   3.842   0.018   8.477
10699WAT     H232340   3.777   0.144   8.558
10700WAT      O32341   7.487   0.603   7.168
10700WAT     H132342   7.576   0.569   7.195
10700WAT     H232343   7.415   0.556   7.220
10701WAT      O32344   7.864   0.780   0.940
10701WAT     H132345   7.776   0.733   0.932
10701WAT     H232346   7.931   0.721   0.983
10702WAT      O32347   9.785   2.881   1.338
10702WAT     H132348   9.719   2.831   1.395
10702WAT     H232349   9.765   2.864   1.241
10703WAT      O32350   5.927   8.631   9.365
10703WAT     H132351   5.999   8.562   9.354
10703WAT     H232352   5.907   8.673   9.277
10704WAT      O32353   3.688   8.003   4.373
10704WAT     H132354   3.714   8.044   4.461
10704WAT     H232355   3.599   7.959   4.382
10705WAT      O32356   1.418   9.055   5.379
10705WAT     H132357   1.509   9.066   5.340
10705WAT     H232358   1.349   9.068   5.307
10706WAT      O32359   9.616   0.320   5.183
10706WAT     H132360   9.549   0.246   5.187
10706WAT     H232361   9.706   0.282   5.164
10707WAT      O32362   9.413   0.825   5.314
10707WAT     H132363   9.322   0.832   5.274
10707WAT     H232364   9.451   0.734   5.295
10708WAT      O32365   6.186   1.770   4.579
10708WAT     H132366   6.130   1.795   4.500
10708WAT     H232367   6.223   1.853   4.621
10709WAT      O32368   7.023   7.836   4.376
10709WAT     H132369   6.968   7.919   4.391
10709WAT     H232370   6.976   7.777   4.310
10710WAT      O32371   2.266   1.663   6.893
10710WAT     H132372   2.286   1.751   6.935
10710WAT     H232373   2.279   1.670   6.794
10711WAT      O32374   5.743   9.475   0.422
10711WAT     H132375   5.788   9.450   0.337
10711WAT     H232376   5.736   9.575   0.427
10712WAT      O32377   1.522   5.149   1.518
10712WAT     H132378   1.530   5.058   1.476
10712WAT     H232379   1.593   5.159   1.587
10713WAT      O32380   6.713   7.616   1.500
10713WAT     H132381   6.705   7.715   1.509
10713WAT     H232382   6.709   7.573   1.590
10714WAT      O32383   0.514   2.143   4.798
10714WAT     H132384   0.451   2.128   4.873
10714WAT     H232385   0.469   2.195   4.725
10715WAT      O32386   3.202   4.107   8.931
10715WAT     H132387   3.158   4.021   8.958
10715WAT     H232388   3.195   4.173   9.005
10716WAT      O32389   3.160   3.202   2.970
10716WAT     H132390   3.200   3.280   2.922
10716WAT     H232391   3.074   3.230   3.013
10717WAT      O32392   3.228   8.290   0.209
10717WAT     H132393   3.241   8.191   0.212
10717WAT     H232394   3.138   8.313   0.245
10718WAT      O32395   4.884   2.148   6.915
10718WAT     H132396   4.874   2.049   6.924
10718WAT     H232397   4.957   2.169   6.849
10719WAT      O32398   0.495   8.807   7.259
10719WAT     H132399   0.469   8.890   7.308
10719WAT     H232400   0.582   8.773   7.295
10720WAT      O32401   0.383   2.505   4.995
10720WAT     H132402   0.420   2.559   5.072
10720WAT     H232403   0.295   2.466   5.021
10721WAT      O32404   8.270   5.328   6.730
10721WAT     H132405   8.238   5.235   6.713
10721WAT     H232406   8.224   5.391   6.668
10722WAT      O32407   4.037   2.371   4.140
10722WAT     H132408   4.092   2.399   4.062
10722WAT     H232409   3.946   2.411   4.132
10723WAT      O32410   5.865   2.011   6.518
10723WAT     H132411   5.948   2.067   6.516
10723WAT     H232412   5.852   1.976   6.611
10724WAT      O32413   8.180   5.759   9.124
10724WAT     H132414   8.278   5.778   9.131
10724WAT     H232415   8.145   5.794   9.037
10725WAT      O32416   7.006   8.024   7.361
10725WAT     H132417   7.083   8.012   7.424
10725WAT     H232418   6.938   8.085   7.403
10726WAT      O32419   0.861   8.673   3.606
10726WAT     H132420   0.856   8.715   3.515
10726WAT     H232421   0.824   8.580   3.601
10727WAT      O32422   3.935   8.523   8.475
10727WAT     H132423   3.914   8.463   8.552
10727WAT     H232424   4.007   8.480   8.419
10728WAT      O32425   2.514   5.914   6.843
10728WAT     H132426   2.480   5.915   6.749
10728WAT     H232427   2.582   5.986   6.855
10729WAT      O32428   4.708   6.313   2.946
10729WAT     H132429   4.664   6.225   2.963
10729WAT     H232430   4.774   6.303   2.871
10730WAT      O32431   7.460   8.350   0.989
10730WAT     H132432   7.532   8.418   0.970
10730WAT     H232433   7.371   8.394   0.988
10731WAT      O32434   6.796   9.177   2.474
10731WAT     H132435   6.797   9.268   2.433
10731WAT     H232436   6.715   9.126   2.443
10732WAT      O32437   4.003   3.291   0.331
10732WAT     H132438   3.913   3.304   0.290
10732WAT     H232439   4.029   3.195   0.326
10733WAT      O32440   6.458   6.236   5.369
10733WAT     H132441   6.456   6.260   5.272
10733WAT     H232442   6.551   6.211   5.395
10734WAT      O32443   3.383   0.068   4.041
10734WAT     H132444   3.424   0.110   3.959
10734WAT     H232445   3.286   0.053   4.025
10735WAT      O32446   8.701   2.756   3.342
10735WAT     H132447   8.754   2.686   3.294
10735WAT     H232448   8.763   2.817   3.391
10736WAT      O32449   7.249   8.254   1.832
10736WAT     H132450   7.349   8.267   1.832
10736WAT     H232451   7.227   8.167   1.788
10737WAT      O32452   4.210   5.176   0.799
10737WAT     H132453   4.166   5.123   0.726
10737WAT     H232454   4.212   5.123   0.883
10738WAT      O32455   4.303   6.078   7.508
10738WAT     H132456   4.392   6.082   7.464
10738WAT     H232457   4.255   6.164   7.494
10739WAT      O32458   2.788   4.514   2.221
10739WAT     H132459   2.881   4.496   2.252
10739WAT     H232460   2.777   4.612   2.203
10740WAT      O32461   2.322   2.226   5.748
10740WAT     H132462   2.230   2.260   5.765
10740WAT     H232463   2.366   2.284   5.679
10741WAT      O32464   9.282   6.652   7.576
10741WAT     H132465   9.248   6.641   7.669
10741WAT     H232466   9.208   6.684   7.517
10742WAT      O32467   1.660   6.723   9.609
10742WAT     H132468   1.566   6.744   9.583
10742WAT     H232469   1.722   6.781   9.557
10743WAT      O32470   4.740   6.187   7.792
10743WAT     H132471   4.733   6.142   7.703
10743WAT     H232472   4.806   6.138   7.849
10744WAT      O32473   4.015   2.576   5.639
10744WAT     H132474   4.086   2.644   5.621
10744WAT     H232475   3.955   2.609   5.711
10745WAT      O32476   3.556   6.192   4.236
10745WAT     H132477   3.653   6.193   4.212
10745WAT     H232478   3.518   6.284   4.229
10746WAT      O32479   6.900   2.986   6.877
10746WAT     H132480   6.806   2.956   6.890
10746WAT     H232481   6.940   3.012   6.965
10747WAT      O32482   9.231   8.029   2.583
10747WAT     H132483   9.304   7.971   2.547
10747WAT     H232484   9.260   8.125   2.580
10748WAT      O32485   4.821   7.031   5.337
10748WAT     H132486   4.784   7.124   5.340
10748WAT     H232487   4.834   6.997   5.430
10749WAT      O32488   4.530   4.636   0.884
10749WAT     H132489   4.555   4.602   0.974
10749WAT     H232490   4.443   4.596   0.855
10750WAT      O32491   4.992   3.094   4.985
10750WAT     H132492   5.039   3.111   4.899
10750WAT     H232493   4.902   3.138   4.983
10751WAT      O32494   4.073   3.080   3.568
10751WAT     H132495   4.012   3.118   3.638
10751WAT     H232496   4.160   3.129   3.570
10752WAT      O32497   8.944   3.439   5.945
10752WAT     H132498   9.038   3.459   5.975
10752WAT     H232499   8.947   3.380   5.865
10753WAT      O32500   1.954   3.608   0.103
10753WAT     H132501   1.866   3.655   0.104
10753WAT     H232502   1.987   3.596   0.197
10754WAT      O32503   3.576   2.524   5.249
10754WAT     H132504   3.660   2.502   5.199
10754WAT     H232505   3.516   2.444   5.251
10755WAT      O32506   9.507   8.530   7.289
10755WAT     H132507   9.446   8.484   7.354
10755WAT     H232508   9.519   8.625   7.317
10756WAT      O32509   3.571   7.391   0.889
10756WAT     H132510   3.570   7.294   0.912
10756WAT     H232511   3.636   7.407   0.815
10757WAT      O32512   5.118   1.840   4.608
10757WAT     H132513   5.174   1.800   4.535
10757WAT     H232514   5.024   1.808   4.599
10758WAT      O32515   1.174   0.289   7.567
10758WAT     H132516   1.259   0.268   7.518
10758WAT     H232517   1.114   0.344   7.509
10759WAT      O32518   0.780   1.652   2.280
10759WAT     H132519   0.725   1.734   2.260
10759WAT     H232520   0.719   1.575   2.298
10760WAT      O32521   2.728   7.135   9.737
10760WAT     H132522   2.681   7.080   9.806
10760WAT     H232523   2.690   7.228   9.737
10761WAT      O32524   6.271   3.412   6.517
10761WAT     H132525   6.203   3.339   6.524
10761WAT     H232526   6.296   3.443   6.609
10762WAT      O32527   9.696   8.912   4.487
10762WAT     H132528   9.717   8.994   4.539
10762WAT     H232529   9.749   8.912   4.402
10763WAT      O32530   5.625   2.201   0.685
10763WAT     H132531   5.631   2.290   0.731
10763WAT     H232532   5.671   2.132   0.741
10764WAT      O32533   0.359   5.681   3.144
10764WAT     H132534   0.390   5.776   3.142
10764WAT     H232535   0.393   5.636   3.227
10765WAT      O32536   5.122   8.858   9.681
10765WAT     H132537   5.062   8.819   9.751
10765WAT     H232538   5.202   8.800   9.669
10766WAT      O32539   5.150   8.228   6.880
10766WAT     H132540   5.060   8.268   6.864
10766WAT     H232541   5.220   8.285   6.836
10767WAT      O32542   7.629   4.705   2.557
10767WAT     H132543   7.647   4.662   2.469
10767WAT     H232544   7.703   4.682   2.621
10768WAT      O32545   6.737   6.211   1.133
10768WAT     H132546   6.706   6.295   1.177
10768WAT     H232547   6.735   6.136   1.199
10769WAT      O32548   2.886   7.507   8.331
10769WAT     H132549   2.823   7.501   8.253
10769WAT     H232550   2.938   7.591   8.325
10770WAT      O32551   6.724   6.396   9.131
10770WAT     H132552   6.681   6.313   9.165
10770WAT     H232553   6.691   6.415   9.038
10771WAT      O32554   1.626   3.961   4.021
10771WAT     H132555   1.548   3.898   4.010
10771WAT     H232556   1.593   4.055   4.016
10772WAT      O32557   2.510   4.165   2.597
10772WAT     H132558   2.521   4.093   2.528
10772WAT     H232559   2.547   4.251   2.560
10773WAT      O32560   6.225   4.144   6.234
10773WAT     H132561   6.175   4.059   6.217
10773WAT     H232562   6.257   4.181   6.147
10774WAT      O32563   6.139   0.824   2.171
10774WAT     H132564   6.177   0.917   2.168
10774WAT     H232565   6.062   0.822   2.235
10775WAT      O32566   0.870   3.713   2.806
10775WAT     H132567   0.795   3.743   2.866
10775WAT     H232568   0.870   3.614   2.800
10776WAT      O32569   3.641   8.558   3.210
10776WAT     H132570   3.726   8.533   3.165
10776WAT     H232571   3.600   8.476   3.252
10777WAT      O32572   4.392   6.609   8.169
10777WAT     H132573   4.461   6.672   8.134
10777WAT     H232574   4.429   6.516   8.167
10778WAT      O32575   8.623   1.805   9.177
10778WAT     H132576   8.556   1.732   9.164
10778WAT     H232577   8.592   1.888   9.131
10779WAT      O32578   5.179   8.243   2.864
10779WAT     H132579   5.097   8.245   2.920
10779WAT     H232580   5.260   8.250   2.923
10780WAT      O32581   8.466   4.472   2.734
10780WAT     H132582   8.394   4.475   2.803
10780WAT     H232583   8.545   4.423   2.771
10781WAT      O32584   8.266   7.926   9.828
10781WAT     H132585   8.178   7.948   9.868
10781WAT     H232586   8.297   8.002   9.771
10782WAT      O32587   3.045   6.314   8.515
10782WAT     H132588   2.965   6.316   8.456
10782WAT     H232589   3.105   6.391   8.493
10783WAT      O32590   0.348   5.114   3.890
10783WAT     H132591   0.400   5.029   3.887
10783WAT     H232592   0.251   5.094   3.898
10784WAT      O32593   6.308   6.884   4.872
10784WAT     H132594   6.336   6.881   4.776
10784WAT     H232595   6.267   6.797   4.898
10785WAT      O32596   3.642   1.098   9.524
10785WAT     H132597   3.694   1.157   9.586
10785WAT     H232598   3.588   1.033   9.577
10786WAT      O32599   4.458   6.579   2.190
10786WAT     H132600   4.446   6.496   2.136
10786WAT     H232601   4.378   6.638   2.180
10787WAT      O32602   2.506   1.846   1.237
10787WAT     H132603   2.534   1.808   1.325
10787WAT     H232604   2.551   1.796   1.163
10788WAT      O32605   4.523   0.929   6.768
10788WAT     H132606   4.442   0.897   6.816
10788WAT     H232607   4.503   0.938   6.670
10789WAT      O32608   6.143   4.887   9.293
10789WAT     H132609   6.239   4.902   9.317
10789WAT     H232610   6.085   4.909   9.372
10790WAT      O32611   5.815   2.322   7.748
10790WAT     H132612   5.733   2.276   7.714
10790WAT     H232613   5.790   2.383   7.824
10791WAT      O32614   2.996   0.999   9.694
10791WAT     H132615   3.086   0.970   9.727
10791WAT     H232616   2.980   0.961   9.603
10792WAT      O32617   9.341   2.741   7.201
10792WAT     H132618   9.336   2.804   7.123
10792WAT     H232619   9.300   2.653   7.176
10793WAT      O32620   9.452   5.465   6.813
10793WAT     H132621   9.530   5.499   6.760
10793WAT     H232622   9.386   5.422   6.752
10794WAT      O32623   0.799   2.180   4.712
10794WAT     H132624   0.866   2.135   4.772
10794WAT     H232625   0.708   2.172   4.752
10795WAT      O32626   3.067   0.224   0.335
10795WAT     H132627   3.015   0.308   0.350
10795WAT     H232628   3.061   0.166   0.416
10796WAT      O32629   7.747   2.131   2.543
10796WAT     H132630   7.838   2.162   2.515
10796WAT     H232631   7.742   2.131   2.643
10797WAT      O32632   0.964   5.995   1.071
10797WAT     H132633   0.963   6.038   0.981
10797WAT     H232634   0.874   5.956   1.091
10798WAT      O32635   7.303   4.217   0.546
10798WAT     H132636   7.382   4.245   0.490
10798WAT     H232637   7.297   4.277   0.626
10799WAT      O32638   1.530   9.535   4.677
10799WAT     H132639   1.534   9.521   4.578
10799WAT     H232640   1.434   9.539   4.705
10800WAT      O32641   1.708   2.648   0.023
10800WAT     H132642   1.716   2.745   0.001
10800WAT     H232643   1.704   2.594  -0.061
10801WAT      O32644   6.971   6.048   9.475
10801WAT     H132645   7.021   6.134   9.490
10801WAT     H232646   6.874   6.068   9.464
10802WAT      O32647   0.723   5.536   5.230
10802WAT     H132648   0.750   5.631   5.242
10802WAT     H232649   0.640   5.517   5.284
10803WAT      O32650   9.310   7.573   8.320
10803WAT     H132651   9.352   7.509   8.256
10803WAT     H232652   9.211   7.568   8.311
10804WAT      O32653   4.417   2.856   7.735
10804WAT     H132654   4.511   2.844   7.704
10804WAT     H232655   4.416   2.906   7.821
10805WAT      O32656   8.281   5.955   0.715
10805WAT     H132657   8.205   5.894   0.738
10805WAT     H232658   8.246   6.036   0.669
10806WAT      O32659   1.370   6.735   3.015
10806WAT     H132660   1.466   6.760   3.003
10806WAT     H232661   1.322   6.743   2.927
10807WAT      O32662   1.360   1.003   7.652
10807WAT     H132663   1.368   1.102   7.651
10807WAT     H232664   1.446   0.962   7.620
10808WAT      O32665   7.738   5.516   3.212
10808WAT     H132666   7.766   5.571   3.291
10808WAT     H232667   7.683   5.439   3.243
10809WAT      O32668   5.729   1.659   8.778
10809WAT     H132669   5.786   1.592   8.731
10809WAT     H232670   5.787   1.730   8.820
10810WAT      O32671   4.011   9.170   2.746
10810WAT     H132672   4.042   9.144   2.838
10810WAT     H232673   4.054   9.109   2.679
10811WAT      O32674   1.729   8.429   4.306
10811WAT     H132675   1.709   8.387   4.395
10811WAT     H232676   1.665   8.503   4.288
10812WAT      O32677   4.862   2.109   2.060
10812WAT     H132678   4.901   2.093   1.969
10812WAT     H232679   4.876   2.029   2.117
10813WAT      O32680   7.880   2.728   5.996
10813WAT     H132681   7.942   2.744   5.920
10813WAT     H232682   7.932   2.716   6.081
10814WAT      O32683   5.475   5.865   6.434
10814WAT     H132684   5.387   5.830   6.468
10814WAT     H232685   5.472   5.965   6.429
10815WAT      O32686   3.203   8.966   3.548
10815WAT     H132687   3.247   9.028   3.483
10815WAT     H232688   3.244   8.875   3.539
10816WAT      O32689   2.158   1.292   7.490
10816WAT     H132690   2.117   1.354   7.423
10816WAT     H232691   2.118   1.201   7.480
10817WAT      O32692   5.696   4.080   3.156
10817WAT     H132693   5.666   4.165   3.200
10817WAT     H232694   5.781   4.049   3.199
10818WAT      O32695   6.776   0.651   0.566
10818WAT     H132696   6.737   0.631   0.656
10818WAT     H232697   6.710   0.628   0.495
10819WAT      O32698   9.444   6.824   2.580
10819WAT     H132699   9.419   6.901   2.521
10819WAT     H232700   9.445   6.854   2.676
10820WAT      O32701   3.260   1.157   5.704
10820WAT     H132702   3.239   1.216   5.783
10820WAT     H232703   3.359   1.144   5.699
10821WAT      O32704   4.826   2.837   9.401
10821WAT     H132705   4.876   2.778   9.337
10821WAT     H232706   4.741   2.792   9.428
10822WAT      O32707   2.766   7.626   9.131
10822WAT     H132708   2.826   7.695   9.090
10822WAT     H232709   2.780   7.539   9.086
10823WAT      O32710   1.317   4.506   1.442
10823WAT     H132711   1.224   4.521   1.407
10823WAT     H232712   1.328   4.556   1.528
10824WAT      O32713   8.804   6.746   0.390
10824WAT     H132714   8.782   6.654   0.358
10824WAT     H232715   8.727   6.807   0.373
10825WAT      O32716   6.375   2.104   1.042
10825WAT     H132717   6.354   2.181   1.102
10825WAT     H232718   6.398   2.024   1.097
10826WAT      O32719   7.655   4.429   5.765
10826WAT     H132720   7.746   4.471   5.765
10826WAT     H232721   7.604   4.461   5.686
10827WAT      O32722   5.992   4.430   9.629
10827WAT     H132723   6.067   4.377   9.590
10827WAT     H232724   5.905   4.397   9.593
10828WAT      O32725   7.710   9.670   2.521
10828WAT     H132726   7.665   9.611   2.588
10828WAT     H232727   7.645   9.695   2.450
10829WAT      O32728   5.412   2.359   7.616
10829WAT     H132729   5.427   2.456   7.633
10829WAT     H232730   5.489   2.306   7.650
10830WAT      O32731   3.866   2.532   9.656
10830WAT     H132732   3.857   2.619   9.704
10830WAT     H232733   3.923   2.544   9.576
10831WAT      O32734   2.419   7.944   4.066
10831WAT     H132735   2.353   7.880   4.027
10831WAT     H232736   2.512   7.911   4.049
10832WAT      O32737   4.290   4.626   0.159
10832WAT     H132738   4.258   4.656   0.069
10832WAT     H232739   4.385   4.657   0.172
10833WAT      O32740   8.496   5.218   2.221
10833WAT     H132741   8.404   5.243   2.251
10833WAT     H232742   8.501   5.220   2.121
10834WAT      O32743   8.232   9.443   4.949
10834WAT     H132744   8.284   9.494   5.018
10834WAT     H232745   8.148   9.492   4.928
10835WAT      O32746   1.018   8.108   0.460
10835WAT     H132747   0.967   8.186   0.425
10835WAT     H232748   0.986   8.024   0.416
10836WAT      O32749   3.653   1.725   3.044
10836WAT     H132750   3.721   1.778   3.094
10836WAT     H232751   3.612   1.657   3.104
10837WAT      O32752   5.791   6.905   5.906
10837WAT     H132753   5.770   6.989   5.957
10837WAT     H232754   5.750   6.827   5.953
10838WAT      O32755   6.120   0.561   2.261
10838WAT     H132756   6.214   0.530   2.273
10838WAT     H232757   6.119   0.648   2.212
10839WAT      O32758   8.769   5.300   7.594
10839WAT     H132759   8.816   5.215   7.621
10839WAT     H232760   8.701   5.323   7.663
10840WAT      O32761   8.977   2.121   5.552
10840WAT     H132762   8.993   2.149   5.458
10840WAT     H232763   8.900   2.057   5.555
10841WAT      O32764   5.531   7.107   2.231
10841WAT     H132765   5.596   7.031   2.234
10841WAT     H232766   5.566   7.184   2.284
10842WAT      O32767   5.167   8.243   3.425
10842WAT     H132768   5.245   8.292   3.464
10842WAT     H232769   5.090   8.307   3.415
10843WAT      O32770   6.194   9.683   9.053
10843WAT     H132771   6.230   9.772   9.081
10843WAT     H232772   6.113   9.696   8.995
10844WAT      O32773   5.067   8.355   1.261
10844WAT     H132774   5.103   8.405   1.340
10844WAT     H232775   5.085   8.257   1.273
10845WAT      O32776   6.477   5.415   1.491
10845WAT     H132777   6.486   5.451   1.584
10845WAT     H232778   6.464   5.491   1.428
10846WAT      O32779   2.129   8.128   8.224
10846WAT     H132780   2.149   8.036   8.258
10846WAT     H232781   2.213   8.181   8.220
10847WAT      O32782   6.918   7.156   5.489
10847WAT     H132783   6.994   7.102   5.453
10847WAT     H232784   6.832   7.115   5.460
10848WAT      O32785   8.268   0.305   6.883
10848WAT     H132786   8.229   0.224   6.840
10848WAT     H232787   8.365   0.313   6.858
10849WAT      O32788   3.092   0.891   2.208
10849WAT     H132789   3.158   0.822   2.180
10849WAT     H232790   3.124   0.981   2.179
10850WAT      O32791   4.830   2.222   9.262
10850WAT     H132792   4.794   2.201   9.171
10850WAT     H232793   4.879   2.142   9.297
10851WAT      O32794   3.156   9.445   2.274
10851WAT     H132795   3.203   9.360   2.249
10851WAT     H232796   3.057   9.430   2.273
10852WAT      O32797   8.313   9.685   7.657
10852WAT     H132798   8.330   9.644   7.567
10852WAT     H232799   8.214   9.687   7.674
10853WAT      O32800   6.473   1.531   6.678
10853WAT     H132801   6.560   1.482   6.683
10853WAT     H232802   6.475   1.596   6.603
10854WAT      O32803   1.436   4.091   5.925
10854WAT     H132804   1.449   4.144   5.841
10854WAT     H232805   1.510   4.025   5.936
10855WAT      O32806   7.919   6.455   8.659
10855WAT     H132807   7.971   6.521   8.605
10855WAT     H232808   7.857   6.503   8.721
10856WAT      O32809   6.194   7.494   5.429
10856WAT     H132810   6.282   7.489   5.384
10856WAT     H232811   6.155   7.402   5.435
10857WAT      O32812   0.428   7.028   9.161
10857WAT     H132813   0.499   7.098   9.172
10857WAT     H232814   0.445   6.953   9.224
10858WAT      O32815   7.740   1.195   3.487
10858WAT     H132816   7.751   1.140   3.403
10858WAT     H232817   7.807   1.165   3.555
10859WAT      O32818   5.160   4.227   3.416
10859WAT     H132819   5.099   4.147   3.410
10859WAT     H232820   5.142   4.277   3.500
10860WAT      O32821   6.632   6.774   7.449
10860WAT     H132822   6.604   6.798   7.356
10860WAT     H232823   6.574   6.701   7.484
10861WAT      O32824   4.814   8.791   1.759
10861WAT     H132825   4.719   8.822   1.750
10861WAT     H232826   4.826   8.745   1.847
10862WAT      O32827   8.006   3.024   0.767
10862WAT     H132828   7.927   3.083   0.785
10862WAT     H232829   8.036   3.036   0.672
10863WAT      O32830   0.844   3.676   0.445
10863WAT     H132831   0.862   3.590   0.494
10863WAT     H232832   0.768   3.662   0.381
10864WAT      O32833   9.110   4.774   7.669
10864WAT     H132834   9.177   4.734   7.607
10864WAT     H232835   9.021   4.778   7.624
10865WAT      O32836   9.396   2.209   9.333
10865WAT     H132837   9.376   2.116   9.303
10865WAT     H232838   9.473   2.209   9.397
10866WAT      O32839   7.390   6.654   8.347
10866WAT     H132840   7.314   6.596   8.376
10866WAT     H232841   7.359   6.749   8.342
10867WAT      O32842   0.369   4.976   9.366
10867WAT     H132843   0.317   5.042   9.420
10867WAT     H232844   0.369   5.005   9.270
10868WAT      O32845   1.175   1.105   8.853
10868WAT     H132846   1.238   1.110   8.775
10868WAT     H232847   1.162   1.010   8.879
10869WAT      O32848   4.211   1.855   1.533
10869WAT     H132849   4.111   1.851   1.526
10869WAT     H232850   4.249   1.763   1.522
10870WAT      O32851   9.662   8.723   8.855
10870WAT     H132852   9.732   8.794   8.851
10870WAT     H232853   9.689   8.653   8.921
10871WAT      O32854   5.371   6.371   7.733
10871WAT     H132855   5.457   6.406   7.771
10871WAT     H232856   5.316   6.448   7.700
10872WAT      O32857   8.297   1.568   8.635
10872WAT     H132858   8.311   1.549   8.538
10872WAT     H232859   8.290   1.666   8.649
10873WAT      O32860   0.393   0.561   7.572
10873WAT     H132861   0.482   0.602   7.550
10873WAT     H232862   0.323   0.597   7.510
10874WAT      O32863   6.864   5.746   4.691
10874WAT     H132864   6.819   5.792   4.768
10874WAT     H232865   6.825   5.654   4.680
10875WAT      O32866   1.311   6.150   7.978
10875WAT     H132867   1.377   6.108   8.040
10875WAT     H232868   1.237   6.085   7.959
10876WAT      O32869   5.477   0.245   1.400
10876WAT     H132870   5.480   0.219   1.303
10876WAT     H232871   5.383   0.239   1.433
10877WAT      O32872   4.377   2.920   4.852
10877WAT     H132873   4.343   2.880   4.767
10877WAT     H232874   4.470   2.954   4.837
10878WAT      O32875   8.866   2.380   8.763
10878WAT     H132876   8.912   2.384   8.852
10878WAT     H232877   8.777   2.337   8.774
10879WAT      O32878   1.943   3.067   1.240
10879WAT     H132879   1.943   3.074   1.141
10879WAT     H232880   2.038   3.064   1.273
10880WAT      O32881   3.809   9.405   1.951
10880WAT     H132882   3.758   9.405   2.037
10880WAT     H232883   3.848   9.315   1.934
10881WAT      O32884   0.903   4.293   6.390
10881WAT     H132885   0.939   4.201   6.381
10881WAT     H232886   0.936   4.350   6.315
10882WAT      O32887   4.954   9.276   5.143
10882WAT     H132888   4.919   9.194   5.096
10882WAT     H232889   4.934   9.269   5.241
10883WAT      O32890   7.407   2.143   5.722
10883WAT     H132891   7.374   2.195   5.643
10883WAT     H232892   7.480   2.081   5.693
10884WAT      O32893   0.244   5.012   6.993
10884WAT     H132894   0.251   4.915   7.017
10884WAT     H232895   0.229   5.066   7.076
10885WAT      O32896   0.799   1.139   7.314
10885WAT     H132897   0.742   1.213   7.279
10885WAT     H232898   0.854   1.173   7.390
10886WAT      O32899   6.943   8.166   8.618
10886WAT     H132900   6.888   8.148   8.536
10886WAT     H232901   6.896   8.235   8.674
10887WAT      O32902   3.505   4.211   5.254
10887WAT     H132903   3.449   4.263   5.189
10887WAT     H232904   3.587   4.264   5.276
10888WAT      O32905   5.820   0.787   9.287
10888WAT     H132906   5.837   0.728   9.208
10888WAT     H232907   5.725   0.820   9.284
10889WAT      O32908   2.295   6.632   5.687
10889WAT     H132909   2.219   6.691   5.715
10889WAT     H232910   2.334   6.669   5.602
10890WAT      O32911   2.795   9.405   2.580
10890WAT     H132912   2.735   9.327   2.600
10890WAT     H232913   2.854   9.423   2.658
10891WAT      O32914   4.065   6.140   3.398
10891WAT     H132915   3.986   6.178   3.349
10891WAT     H232916   4.148   6.186   3.367
10892WAT      O32917   1.154   0.980   4.120
10892WAT     H132918   1.210   0.905   4.154
10892WAT     H232919   1.136   0.967   4.023
10893WAT      O32920   6.758   5.829   4.439
10893WAT     H132921   6.670   5.877   4.444
10893WAT     H232922   6.782   5.793   4.529
10894WAT      O32923   8.289   8.521   7.891
10894WAT     H132924   8.247   8.602   7.852
10894WAT     H232925   8.275   8.520   7.990
10895WAT      O32926   3.495   1.410   4.652
10895WAT     H132927   3.404   1.430   4.615
10895WAT     H232928   3.504   1.451   4.742
10896WAT      O32929   8.259   5.623   9.389
10896WAT     H132930   8.238   5.676   9.308
10896WAT     H232931   8.224   5.530   9.379
10897WAT      O32932   0.423   6.094   7.531
10897WAT     H132933   0.357   6.167   7.551
10897WAT     H232934   0.374   6.011   7.506
10898WAT      O32935   8.689   8.876   7.824
10898WAT     H132936   8.681   8.866   7.725
10898WAT     H232937   8.604   8.847   7.868
10899WAT      O32938   1.638   6.859   4.440
10899WAT     H132939   1.598   6.877   4.351
10899WAT     H232940   1.734   6.887   4.440
10900WAT      O32941   6.601   0.975   3.319
10900WAT     H132942   6.532   1.045   3.334
10900WAT     H232943   6.557   0.888   3.299
10901WAT      O32944   0.606   0.855   8.704
10901WAT     H132945   0.527   0.835   8.647
10901WAT     H232946   0.650   0.940   8.674
10902WAT      O32947   5.840   0.707   9.542
10902WAT     H132948   5.755   0.668   9.577
10902WAT     H232949   5.825   0.743   9.450
10903WAT      O32950   3.191   6.549   8.478
10903WAT     H132951   3.272   6.568   8.533
10903WAT     H232952   3.110   6.584   8.523
10904WAT      O32953   4.404   7.704   4.213
10904WAT     H132954   4.400   7.622   4.270
10904WAT     H232955   4.322   7.759   4.228
10905WAT      O32956   7.940   7.175   7.733
10905WAT     H132957   7.872   7.148   7.801
10905WAT     H232958   7.933   7.273   7.715
10906WAT      O32959   0.249   8.158   1.821
10906WAT     H132960   0.166   8.102   1.830
10906WAT     H232961   0.328   8.099   1.807
10907WAT      O32962   3.960   2.805   3.812
10907WAT     H132963   3.872   2.852   3.802
10907WAT     H232964   4.012   2.814   3.727
10908WAT      O32965   6.247   1.340   2.395
10908WAT     H132966   6.292   1.275   2.456
10908WAT     H232967   6.148   1.340   2.412
10909WAT      O32968   2.924   0.977   0.627
10909WAT     H132969   2.871   0.942   0.705
10909WAT     H232970   3.021   0.966   0.644
10910WAT      O32971   4.840   6.855   8.876
10910WAT     H132972   4.850   6.946   8.916
10910WAT     H232973   4.743   6.834   8.864
10911WAT      O32974   6.749   5.696   4.064
10911WAT     H132975   6.663   5.746   4.063
10911WAT     H232976   6.773   5.668   3.971
10912WAT      O32977   4.893   9.366   7.661
10912WAT     H132978   4.893   9.336   7.565
10912WAT     H232979   4.958   9.310   7.712
10913WAT      O32980   7.461   8.176   9.532
10913WAT     H132981   7.408   8.211   9.610
10913WAT     H232982   7.558   8.186   9.551
10914WAT      O32983   0.573   1.196   4.103
10914WAT     H132984   0.647   1.260   4.122
10914WAT     H232985   0.552   1.197   4.005
10915WAT      O32986   8.801   4.296   4.302
10915WAT     H132987   8.830   4.380   4.257
10915WAT     H232988   8.757   4.318   4.389
10916WAT      O32989   1.617   6.934   0.253
10916WAT     H132990   1.678   6.966   0.325
10916WAT     H232991   1.639   6.839   0.230
10917WAT      O32992   8.480   4.009   6.187
10917WAT     H132993   8.547   3.950   6.142
10917WAT     H232994   8.462   3.975   6.280
10918WAT      O32995   1.205   7.498   7.847
10918WAT     H132996   1.295   7.541   7.849
10918WAT     H232997   1.134   7.569   7.846
10919WAT      O32998   8.902   5.508   0.081
10919WAT     H132999   8.824   5.478   0.136
10919WAT     H233000   8.891   5.603   0.054
10920WAT      O33001   7.699   9.169   7.746
10920WAT     H133002   7.654   9.186   7.658
10920WAT     H233003   7.797   9.153   7.731
10921WAT      O33004   9.845   0.957   5.926
10921WAT     H133005   9.816   0.872   5.881
10921WAT     H233006   9.766   1.017   5.937
10922WAT      O33007   0.131   1.099   0.519
10922WAT     H133008   0.218   1.104   0.569
10922WAT     H233009   0.060   1.147   0.571
10923WAT      O33010   1.578   8.284   1.125
10923WAT     H133011   1.567   8.201   1.070
10923WAT     H233012   1.644   8.266   1.199
10924WAT      O33013   7.230   8.798   5.926
10924WAT     H133014   7.134   8.794   5.899
10924WAT     H233015   7.240   8.767   6.021
10925WAT      O33016   5.468   1.056   3.147
10925WAT     H133017   5.413   1.140   3.146
10925WAT     H233018   5.408   0.976   3.150
10926WAT      O33019   0.634   3.973   6.834
10926WAT     H133020   0.715   4.030   6.819
10926WAT     H233021   0.648   3.883   6.792
10927WAT      O33022   6.002   9.628   7.356
10927WAT     H133023   6.020   9.623   7.454
10927WAT     H233024   6.046   9.551   7.310
10928WAT      O33025   0.342   6.562   3.953
10928WAT     H133026   0.302   6.535   3.866
10928WAT     H233027   0.335   6.661   3.964
10929WAT      O33028   4.246   9.003   7.961
10929WAT     H133029   4.278   8.916   7.926
10929WAT     H233030   4.283   9.018   8.053
10930WAT      O33031   9.648   6.828   1.417
10930WAT     H133032   9.662   6.761   1.491
10930WAT     H233033   9.556   6.866   1.424
10931WAT      O33034   6.212   7.099   2.679
10931WAT     H133035   6.120   7.092   2.716
10931WAT     H233036   6.213   7.163   2.602
10932WAT      O33037   3.068   1.278   3.627
10932WAT     H133038   3.122   1.347   3.579
10932WAT     H233039   2.991   1.322   3.674
10933WAT      O33040   7.600   0.502   9.826
10933WAT     H133041   7.582   0.404   9.815
10933WAT     H233042   7.660   0.533   9.753
10934WAT      O33043   3.153   7.828   6.961
10934WAT     H133044   3.094   7.873   7.028
10934WAT     H233045   3.155   7.730   6.979
10935WAT      O33046   3.790   9.671   1.306
10935WAT     H133047   3.754   9.673   1.212
10935WAT     H233048   3.753   9.747   1.358
10936WAT      O33049   7.771   9.669   4.899
10936WAT     H133050   7.727   9.737   4.959
10936WAT     H233051   7.784   9.584   4.949
10937WAT      O33052   2.570   7.612   1.199
10937WAT     H133053   2.609   7.686   1.253
10937WAT     H233054   2.520   7.550   1.259
10938WAT      O33055   8.225   0.997   2.816
10938WAT     H133056   8.279   0.940   2.754
10938WAT     H233057   8.264   1.089   2.819
10939WAT      O33058   8.140   2.154   0.318
10939WAT     H133059   8.214   2.134   0.383
10939WAT     H233060   8.177   2.204   0.240
10940WAT      O33061   3.961   1.867   9.541
10940WAT     H133062   3.957   1.923   9.459
10940WAT     H233063   3.913   1.913   9.616
10941WAT      O33064   8.135   3.551   4.621
10941WAT     H133065   8.160   3.460   4.586
10941WAT     H233066   8.048   3.579   4.581
10942WAT      O33067   0.418   0.835   8.485
10942WAT     H133068   0.490   0.905   8.485
10942WAT     H233069   0.405   0.801   8.392
10943WAT      O33070   1.563   1.387   0.325
10943WAT     H133071   1.603   1.476   0.348
10943WAT     H233072   1.512   1.395   0.239
10944WAT      O33073   0.051   6.225   8.701
10944WAT     H133074   0.106   6.152   8.743
10944WAT     H233075   0.076   6.235   8.605
10945WAT      O33076   7.048   6.808   2.640
10945WAT     H133077   7.129   6.784   2.586
10945WAT     H233078   7.057   6.769   2.731
10946WAT      O33079   3.801   7.437   8.230
10946WAT     H133080   3.816   7.472   8.322
10946WAT     H233081   3.879   7.461   8.172
10947WAT      O33082   5.013   0.763   0.507
10947WAT     H133083   4.915   0.773   0.487
10947WAT     H233084   5.063   0.836   0.461
10948WAT      O33085   1.508   6.634   8.741
10948WAT     H133086   1.409   6.640   8.731
10948WAT     H233087   1.546   6.725   8.755
10949WAT      O33088   7.512   1.734   3.844
10949WAT     H133089   7.519   1.781   3.932
10949WAT     H233090   7.561   1.647   3.848
10950WAT      O33091   9.078   7.628   1.601
10950WAT     H133092   9.127   7.546   1.630
10950WAT     H233093   8.979   7.610   1.602
10951WAT      O33094   2.912   3.439   7.495
10951WAT     H133095   2.954   3.356   7.535
10951WAT     H233096   2.947   3.452   7.402
10952WAT      O33097   4.050   9.173   0.978
10952WAT     H133098   4.026   9.112   0.903
10952WAT     H233099   4.138   9.216   0.959
10953WAT      O33100   8.659   7.819   1.775
10953WAT     H133101   8.689   7.749   1.709
10953WAT     H233102   8.598   7.777   1.842
10954WAT      O33103   0.725   1.759   0.080
10954WAT     H133104   0.706   1.662   0.068
10954WAT     H233105   0.812   1.770   0.129
10955WAT      O33106   4.901   5.983   7.046
10955WAT     H133107   4.941   5.952   6.960
10955WAT     H233108   4.817   6.033   7.028
10956WAT      O33109   9.812   4.988   1.877
10956WAT     H133110   9.712   4.988   1.874
10956WAT     H233111   9.848   5.051   1.808
10957WAT      O33112   1.920   7.640   7.756
10957WAT     H133113   1.861   7.560   7.765
10957WAT     H233114   2.015   7.614   7.772
10958WAT      O33115   1.963   0.491   4.424
10958WAT     H133116   1.997   0.489   4.518
10958WAT     H233117   1.984   0.579   4.382
10959WAT      O33118   7.434   9.502   8.232
10959WAT     H133119   7.454   9.600   8.225
10959WAT     H233120   7.335   9.488   8.230
10960WAT      O33121   3.586   3.931   3.978
10960WAT     H133122   3.554   3.856   4.036
10960WAT     H233123   3.603   3.896   3.886
10961WAT      O33124   2.645   3.871   7.286
10961WAT     H133125   2.661   3.845   7.191
10961WAT     H233126   2.692   3.807   7.347
10962WAT      O33127   6.895   8.383   6.149
10962WAT     H133128   6.959   8.323   6.101
10962WAT     H233129   6.938   8.418   6.232
10963WAT      O33130   8.639   7.389   2.345
10963WAT     H133131   8.652   7.337   2.429
10963WAT     H233132   8.676   7.482   2.358
10964WAT      O33133   6.062   6.119   4.206
10964WAT     H133134   5.973   6.163   4.199
10964WAT     H233135   6.102   6.109   4.115
10965WAT      O33136   2.832   5.974   0.164
10965WAT     H133137   2.865   5.883   0.137
10965WAT     H233138   2.745   5.966   0.211
10966WAT      O33139   6.949   4.714   9.458
10966WAT     H133140   6.936   4.633   9.401
10966WAT     H233141   6.908   4.699   9.548
10967WAT      O33142   4.792   8.061   0.164
10967WAT     H133143   4.744   8.069   0.076
10967WAT     H233144   4.831   8.149   0.189
10968WAT      O33145   9.700   7.170   7.527
10968WAT     H133146   9.683   7.122   7.441
10968WAT     H233147   9.717   7.267   7.509
10969WAT      O33148   9.040   5.925   0.871
10969WAT     H133149   9.137   5.919   0.896
10969WAT     H233150   8.989   5.853   0.918
10970WAT      O33151   0.904   0.891   4.850
10970WAT     H133152   0.817   0.941   4.848
10970WAT     H233153   0.962   0.922   4.775
10971WAT      O33154   6.760   9.591   5.789
10971WAT     H133155   6.688   9.637   5.840
10971WAT     H233156   6.832   9.657   5.767
10972WAT      O33157   6.471   3.642   2.153
10972WAT     H133158   6.502   3.729   2.114
10972WAT     H233159   6.389   3.611   2.104
10973WAT      O33160   3.964   5.238   6.323
10973WAT     H133161   4.015   5.302   6.266
10973WAT     H233162   3.867   5.247   6.304
10974WAT      O33163   2.079   0.264   5.320
10974WAT     H133164   2.001   0.316   5.355
10974WAT     H233165   2.087   0.178   5.370
10975WAT      O33166   2.542   4.986   5.637
10975WAT     H133167   2.562   4.959   5.731
10975WAT     H233168   2.628   5.003   5.588
10976WAT      O33169   4.696   0.096   1.842
10976WAT     H133170   4.745   0.009   1.833
10976WAT     H233171   4.679   0.115   1.938
10977WAT      O33172   8.544   5.843   0.781
10977WAT     H133173   8.616   5.872   0.843
10977WAT     H233174   8.459   5.890   0.805
10978WAT      O33175   3.226   3.659   2.155
10978WAT     H133176   3.277   3.678   2.238
10978WAT     H233177   3.170   3.738   2.131
10979WAT      O33178   2.626   0.776   2.189
10979WAT     H133179   2.531   0.753   2.211
10979WAT     H233180   2.632   0.800   2.092
10980WAT      O33181   7.561   9.127   5.961
10980WAT     H133182   7.548   9.100   6.056
10980WAT     H233183   7.566   9.226   5.954
10981WAT      O33184   3.532   1.069   7.172
10981WAT     H133185   3.451   1.049   7.226
10981WAT     H233186   3.600   1.115   7.229
10982WAT      O33187   6.102   3.280   3.305
10982WAT     H133188   6.112   3.314   3.211
10982WAT     H233189   6.068   3.187   3.303
10983WAT      O33190   6.205   4.194   2.533
10983WAT     H133191   6.169   4.281   2.567
10983WAT     H233192   6.303   4.203   2.516
10984WAT      O33193   8.832   5.483   3.846
10984WAT     H133194   8.859   5.451   3.937
10984WAT     H233195   8.801   5.406   3.791
10985WAT      O33196   5.466   2.210   5.559
10985WAT     H133197   5.498   2.132   5.613
10985WAT     H233198   5.398   2.261   5.612
10986WAT      O33199   4.941   9.694   2.596
10986WAT     H133200   5.030   9.688   2.643
10986WAT     H233201   4.892   9.774   2.630
10987WAT      O33202   6.693   9.362   0.129
10987WAT     H133203   6.790   9.364   0.102
10987WAT     H233204   6.637   9.339   0.049
10988WAT      O33205   2.181   7.274   6.147
10988WAT     H133206   2.180   7.374   6.144
10988WAT     H233207   2.116   7.238   6.079
10989WAT      O33208   8.087   0.411   6.023
10989WAT     H133209   8.105   0.421   5.925
10989WAT     H233210   8.114   0.320   6.053
10990WAT      O33211   1.374   4.662   2.492
10990WAT     H133212   1.320   4.610   2.558
10990WAT     H233213   1.316   4.730   2.447
10991WAT      O33214   2.532   2.214   1.719
10991WAT     H133215   2.434   2.226   1.709
10991WAT     H233216   2.580   2.287   1.670
10992WAT      O33217   3.494   9.572   8.004
10992WAT     H133218   3.549   9.621   7.937
10992WAT     H233219   3.497   9.622   8.091
10993WAT      O33220   8.414   6.457   6.038
10993WAT     H133221   8.390   6.371   6.083
10993WAT     H233222   8.383   6.455   5.943
10994WAT      O33223   5.157   8.566   3.863
10994WAT     H133224   5.143   8.661   3.834
10994WAT     H233225   5.075   8.534   3.910
10995WAT      O33226   2.112   6.534   1.828
10995WAT     H133227   2.059   6.486   1.898
10995WAT     H233228   2.209   6.535   1.854
10996WAT      O33229   4.975   6.007   9.284
10996WAT     H133230   4.942   6.094   9.321
10996WAT     H233231   5.012   6.021   9.193
10997WAT      O33232   0.574   3.973   4.328
10997WAT     H133233   0.509   4.008   4.261
10997WAT     H233234   0.539   3.989   4.420
10998WAT      O33235   7.463   7.838   5.697
10998WAT     H133236   7.556   7.839   5.734
10998WAT     H233237   7.457   7.899   5.619
10999WAT      O33238   0.191   6.992   7.747
10999WAT     H133239   0.130   7.070   7.765
10999WAT     H233240   0.286   7.022   7.757
11000WAT      O33241   6.029   3.743   1.761
11000WAT     H133242   6.106   3.740   1.697
11000WAT     H233243   5.981   3.655   1.760
11001WAT      O33244   5.688   2.777   1.746
11001WAT     H133245   5.630   2.697   1.730
11001WAT     H233246   5.663   2.850   1.683
11002WAT      O33247   2.028   4.303   9.724
11002WAT     H133248   1.989   4.220   9.684
11002WAT     H233249   2.034   4.291   9.823
11003WAT      O33250   8.060   5.104   7.550
11003WAT     H133251   7.982   5.142   7.599
11003WAT     H233252   8.102   5.175   7.493
11004WAT      O33253   8.136   2.143   3.492
11004WAT     H133254   8.173   2.234   3.476
11004WAT     H233255   8.210   2.081   3.517
11005WAT      O33256   9.671   4.649   2.073
11005WAT     H133257   9.755   4.655   2.126
11005WAT     H233258   9.609   4.723   2.099
11006WAT      O33259   1.132   3.794   6.939
11006WAT     H133260   1.195   3.861   6.977
11006WAT     H233261   1.136   3.799   6.839
11007WAT      O33262   3.656   8.175   6.577
11007WAT     H133263   3.559   8.200   6.570
11007WAT     H233264   3.699   8.185   6.487
11008WAT      O33265   2.351   1.199   1.813
11008WAT     H133266   2.352   1.121   1.875
11008WAT     H233267   2.417   1.185   1.739
11009WAT      O33268   2.368   6.660   4.238
11009WAT     H133269   2.466   6.665   4.256
11009WAT     H233270   2.339   6.739   4.185
11010WAT      O33271   8.344   0.057   3.619
11010WAT     H133272   8.421   0.102   3.663
11010WAT     H233273   8.276   0.032   3.688
11011WAT      O33274   0.260   1.883   0.740
11011WAT     H133275   0.305   1.838   0.817
11011WAT     H233276   0.319   1.955   0.704
11012WAT      O33277   9.112   9.707   7.027
11012WAT     H133278   9.065   9.682   6.942
11012WAT     H233279   9.169   9.788   7.011
11013WAT      O33280   0.382   7.760   4.307
11013WAT     H133281   0.317   7.835   4.301
11013WAT     H233282   0.459   7.787   4.364
11014WAT      O33283   0.012   1.989   2.101
11014WAT     H133284   0.075   1.949   2.035
11014WAT     H233285  -0.081   1.986   2.064
11015WAT      O33286   8.413   6.002   3.255
11015WAT     H133287   8.419   6.045   3.165
11015WAT     H233288   8.354   5.921   3.249
11016WAT      O33289   3.995   7.466   1.110
11016WAT     H133290   4.006   7.446   1.013
11016WAT     H233291   3.938   7.396   1.153
11017WAT      O33292   7.933   1.637   9.237
11017WAT     H133293   7.942   1.694   9.155
11017WAT     H233294   7.839   1.603   9.243
11018WAT      O33295   0.366   7.219   7.239
11018WAT     H133296   0.309   7.206   7.158
11018WAT     H233297   0.440   7.283   7.219
11019WAT      O33298   1.995   4.434   1.201
11019WAT     H133299   1.930   4.506   1.224
11019WAT     H233300   1.946   4.348   1.186
11020WAT      O33301   5.838   8.581   9.098
11020WAT     H133302   5.770   8.612   9.030
11020WAT     H233303   5.890   8.504   9.061
11021WAT      O33304   0.373   4.049   4.847
11021WAT     H133305   0.398   3.976   4.911
11021WAT     H233306   0.378   4.137   4.893
11022WAT      O33307   2.373   2.693   5.675
11022WAT     H133308   2.465   2.712   5.709
11022WAT     H233309   2.306   2.707   5.749
11023WAT      O33310   8.860   9.629   1.243
11023WAT     H133311   8.919   9.636   1.324
11023WAT     H233312   8.876   9.706   1.183
11024WAT      O33313   6.790   0.276   8.726
11024WAT     H133314   6.783   0.360   8.671
11024WAT     H233315   6.831   0.297   8.814
11025WAT      O33316   0.734   3.479   0.052
11025WAT     H133317   0.809   3.545   0.058
11025WAT     H233318   0.758   3.409  -0.015
11026WAT      O33319   0.429   8.687   4.110
11026WAT     H133320   0.395   8.619   4.045
11026WAT     H233321   0.508   8.735   4.070
11027WAT      O33322   7.411   6.308   3.931
11027WAT     H133323   7.395   6.296   3.833
11027WAT     H233324   7.338   6.365   3.970
11028WAT      O33325   6.257   7.710   9.665
11028WAT     H133326   6.332   7.645   9.654
11028WAT     H233327   6.235   7.751   9.576
11029WAT      O33328   9.089   4.676   7.924
11029WAT     H133329   9.059   4.762   7.965
11029WAT     H233330   9.128   4.694   7.833
11030WAT      O33331   7.592   0.667   3.429
11030WAT     H133332   7.612   0.761   3.457
11030WAT     H233333   7.535   0.623   3.498
11031WAT      O33334   0.738   2.710   9.772
11031WAT     H133335   0.746   2.808   9.752
11031WAT     H233336   0.691   2.698   9.860
11032WAT      O33337   9.466   6.821   2.870
11032WAT     H133338   9.497   6.829   2.964
11032WAT     H233339   9.374   6.782   2.868
11033WAT      O33340   9.382   5.446   9.517
11033WAT     H133341   9.455   5.465   9.582
11033WAT     H233342   9.367   5.347   9.513
11034WAT      O33343   2.786   3.726   4.704
11034WAT     H133344   2.782   3.626   4.701
11034WAT     H233345   2.822   3.755   4.793
11035WAT      O33346   6.555   4.280   6.013
11035WAT     H133347   6.615   4.213   5.970
11035WAT     H233348   6.468   4.237   6.037
11036WAT      O33349   4.399   5.965   8.811
11036WAT     H133350   4.310   6.007   8.799
11036WAT     H233351   4.470   6.036   8.809
11037WAT      O33352   2.538   0.034   0.255
11037WAT     H133353   2.449   0.069   0.283
11037WAT     H233354   2.543  -0.064   0.272
11038WAT      O33355   5.053   3.059   6.647
11038WAT     H133356   5.044   3.028   6.553
11038WAT     H233357   4.972   3.112   6.673
11039WAT      O33358   2.778   3.101   1.068
11039WAT     H133359   2.772   3.039   0.990
11039WAT     H233360   2.846   3.172   1.049
11040WAT      O33361   6.377   6.909   3.087
11040WAT     H133362   6.358   6.894   2.990
11040WAT     H233363   6.443   6.984   3.097
11041WAT      O33364   0.528   2.745   1.340
11041WAT     H133365   0.570   2.673   1.394
11041WAT     H233366   0.600   2.800   1.297
11042WAT      O33367   0.176   4.808   4.767
11042WAT     H133368   0.202   4.795   4.863
11042WAT     H233369   0.154   4.904   4.752
11043WAT      O33370   8.809   4.383   1.680
11043WAT     H133371   8.826   4.438   1.599
11043WAT     H233372   8.880   4.401   1.748
11044WAT      O33373   5.499   3.366   7.379
11044WAT     H133374   5.495   3.443   7.442
11044WAT     H233375   5.594   3.351   7.350
11045WAT      O33376   0.590   9.211   9.176
11045WAT     H133377   0.537   9.274   9.120
11045WAT     H233378   0.535   9.181   9.254
11046WAT      O33379   4.577   4.625   5.040
11046WAT     H133380   4.497   4.611   4.982
11046WAT     H233381   4.648   4.560   5.014
11047WAT      O33382   0.090   4.522   9.755
11047WAT     H133383   0.025   4.491   9.825
11047WAT     H233384   0.074   4.619   9.736
11048WAT      O33385   0.411   2.702   6.739
11048WAT     H133386   0.389   2.795   6.709
11048WAT     H233387   0.414   2.641   6.659
11049WAT      O33388   8.389   4.973   6.033
11049WAT     H133389   8.462   4.960   6.100
11049WAT     H233390   8.332   5.051   6.061
11050WAT      O33391   9.592   8.870   0.548
11050WAT     H133392   9.517   8.880   0.614
11050WAT     H233393   9.615   8.960   0.511
11051WAT      O33394   3.339   9.736   3.642
11051WAT     H133395   3.279   9.700   3.713
11051WAT     H233396   3.320   9.834   3.629
11052WAT      O33397   4.975   4.532   8.421
11052WAT     H133398   4.970   4.603   8.492
11052WAT     H233399   4.886   4.487   8.413
11053WAT      O33400   5.318   1.716   2.537
11053WAT     H133401   5.416   1.730   2.521
11053WAT     H233402   5.286   1.781   2.607
11054WAT      O33403   8.679   8.468   4.033
11054WAT     H133404   8.639   8.483   4.124
11054WAT     H233405   8.629   8.396   3.986
11055WAT      O33406   9.434   1.639   7.388
11055WAT     H133407   9.473   1.547   7.389
11055WAT     H233408   9.504   1.705   7.360
11056WAT      O33409   2.962   0.071   7.898
11056WAT     H133410   2.978   0.143   7.832
11056WAT     H233411   2.864   0.052   7.904
11057WAT      O33412   3.272   3.010   7.703
11057WAT     H133413   3.370   2.994   7.694
11057WAT     H233414   3.233   2.945   7.769
11058WAT      O33415   3.477   6.414   5.061
11058WAT     H133416   3.554   6.353   5.044
11058WAT     H233417   3.395   6.360   5.079
11059WAT      O33418   2.625   6.262   7.268
11059WAT     H133419   2.602   6.219   7.356
11059WAT     H233420   2.580   6.352   7.263
11060WAT      O33421   7.787   1.404   6.493
11060WAT     H133422   7.743   1.317   6.471
11060WAT     H233423   7.808   1.453   6.409
11061WAT      O33424   8.767   0.699   3.220
11061WAT     H133425   8.705   0.622   3.206
11061WAT     H233426   8.833   0.702   3.144
11062WAT      O33427   2.902   1.199   0.459
11062WAT     H133428   2.840   1.164   0.389
11062WAT     H233429   2.904   1.136   0.536
11063WAT      O33430   0.011   1.255   1.088
11063WAT     H133431   0.067   1.215   1.016
11063WAT     H233432  -0.064   1.308   1.047
11064WAT      O33433   9.869   9.429   8.597
11064WAT     H133434   9.884   9.460   8.504
11064WAT     H233435   9.958   9.417   8.643
11065WAT      O33436   2.790   8.709   1.536
11065WAT     H133437   2.708   8.766   1.543
11065WAT     H233438   2.776   8.625   1.589
11066WAT      O33439   7.191   9.745   0.913
11066WAT     H133440   7.278   9.702   0.936
11066WAT     H233441   7.120   9.711   0.974
11067WAT      O33442   0.915   7.408   3.921
11067WAT     H133443   0.843   7.339   3.920
11067WAT     H233444   0.882   7.490   3.967
11068WAT      O33445   4.401   5.638   7.414
11068WAT     H133446   4.327   5.700   7.386
11068WAT     H233447   4.465   5.688   7.473
11069WAT      O33448   1.428   8.150   7.639
11069WAT     H133449   1.329   8.159   7.631
11069WAT     H233450   1.463   8.218   7.704
11070WAT      O33451   7.947   2.683   7.910
11070WAT     H133452   7.857   2.683   7.954
11070WAT     H233453   7.989   2.593   7.920
11071WAT      O33454   4.022   0.192   6.665
11071WAT     H133455   4.094   0.201   6.596
11071WAT     H233456   4.014   0.278   6.716
11072WAT      O33457   7.444   2.119   7.619
11072WAT     H133458   7.353   2.128   7.659
11072WAT     H233459   7.442   2.049   7.547
11073WAT      O33460   0.950   0.460   5.483
11073WAT     H133461   0.984   0.522   5.412
11073WAT     H233462   0.854   0.482   5.503
11074WAT      O33463   9.393   2.944   1.760
11074WAT     H133464   9.490   2.925   1.743
11074WAT     H233465   9.339   2.912   1.683
11075WAT      O33466   7.330   6.776   8.647
11075WAT     H133467   7.352   6.863   8.691
11075WAT     H233468   7.384   6.702   8.688
11076WAT      O33469   2.775   9.558   1.890
11076WAT     H133470   2.755   9.461   1.905
11076WAT     H233471   2.869   9.577   1.918
11077WAT      O33472   8.785   9.435   2.008
11077WAT     H133473   8.804   9.408   1.913
11077WAT     H233474   8.843   9.512   2.033
11078WAT      O33475   6.346   1.181   2.595
11078WAT     H133476   6.318   1.089   2.623
11078WAT     H233477   6.442   1.180   2.568
11079WAT      O33478   6.959   0.725   3.805
11079WAT     H133479   7.035   0.764   3.753
11079WAT     H233480   6.881   0.711   3.743
11080WAT      O33481   8.336   2.046   0.476
11080WAT     H133482   8.364   2.026   0.570
11080WAT     H233483   8.359   1.969   0.417
11081WAT      O33484   6.392   4.639   1.831
11081WAT     H133485   6.315   4.582   1.803
11081WAT     H233486   6.450   4.588   1.894
11082WAT      O33487   9.360   2.547   6.563
11082WAT     H133488   9.315   2.463   6.536
11082WAT     H233489   9.344   2.618   6.495
11083WAT      O33490   8.481   7.682   7.343
11083WAT     H133491   8.444   7.744   7.273
11083WAT     H233492   8.424   7.688   7.426
11084WAT      O33493   6.995   1.258   4.053
11084WAT     H133494   7.073   1.319   4.042
11084WAT     H233495   6.941   1.257   3.969
11085WAT      O33496   4.734   3.919   7.302
11085WAT     H133497   4.724   3.831   7.349
11085WAT     H233498   4.748   3.903   7.204
11086WAT      O33499   2.980   4.660   4.558
11086WAT     H133500   3.018   4.588   4.500
11086WAT     H233501   2.949   4.621   4.645
11087WAT      O33502   5.527   4.339   0.975
11087WAT     H133503   5.526   4.361   1.072
11087WAT     H233504   5.540   4.240   0.963
11088WAT      O33505   1.840   1.020   6.695
11088WAT     H133506   1.754   1.009   6.645
11088WAT     H233507   1.854   1.116   6.716
11089WAT      O33508   2.895   3.340   8.640
11089WAT     H133509   2.846   3.252   8.644
11089WAT     H233510   2.836   3.409   8.597
11090WAT      O33511   9.479   4.492   2.634
11090WAT     H133512   9.566   4.508   2.681
11090WAT     H233513   9.413   4.455   2.700
11091WAT      O33514   3.110   3.191   7.605
11091WAT     H133515   3.039   3.206   7.674
11091WAT     H233516   3.183   3.135   7.643
11092WAT      O33517   9.673   6.217   8.779
11092WAT     H133518   9.654   6.255   8.869
11092WAT     H233519   9.770   6.232   8.757
11093WAT      O33520   4.237   6.396   3.643
11093WAT     H133521   4.153   6.407   3.590
11093WAT     H233522   4.216   6.407   3.740
11094WAT      O33523   7.251   3.355   6.400
11094WAT     H133524   7.228   3.439   6.351
11094WAT     H233525   7.167   3.309   6.428
11095WAT      O33526   1.391   3.577   6.189
11095WAT     H133527   1.441   3.496   6.219
11095WAT     H233528   1.312   3.549   6.135
11096WAT      O33529   9.600   5.373   6.092
11096WAT     H133530   9.684   5.395   6.043
11096WAT     H233531   9.524   5.372   6.028
11097WAT      O33532   2.576   8.772   6.207
11097WAT     H133533   2.502   8.751   6.143
11097WAT     H233534   2.618   8.859   6.183
11098WAT      O33535   6.970   5.667   8.750
11098WAT     H133536   6.944   5.575   8.780
11098WAT     H233537   6.894   5.707   8.698
11099WAT      O33538   7.938   6.713   0.233
11099WAT     H133539   7.908   6.806   0.216
11099WAT     H233540   7.864   6.661   0.275
11100WAT      O33541   9.824   3.918   3.242
11100WAT     H133542   9.840   3.929   3.143
11100WAT     H233543   9.747   3.855   3.256
11101WAT      O33544   7.893   4.873   0.854
11101WAT     H133545   7.803   4.858   0.894
11101WAT     H233546   7.954   4.797   0.877
11102WAT      O33547   1.098   3.668   7.414
11102WAT     H133548   1.008   3.689   7.376
11102WAT     H233549   1.097   3.679   7.513
11103WAT      O33550   6.361   9.151   0.536
11103WAT     H133551   6.446   9.134   0.487
11103WAT     H233552   6.318   9.064   0.561
11104WAT      O33553   7.344   9.661   2.618
11104WAT     H133554   7.370   9.732   2.685
11104WAT     H233555   7.342   9.572   2.664
11105WAT      O33556   4.494   6.156   6.413
11105WAT     H133557   4.562   6.097   6.457
11105WAT     H233558   4.432   6.100   6.359
11106WAT      O33559   6.804   3.628   0.577
11106WAT     H133560   6.735   3.557   0.561
11106WAT     H233561   6.805   3.691   0.499
11107WAT      O33562   7.192   8.490   0.951
11107WAT     H133563   7.146   8.402   0.966
11107WAT     H233564   7.177   8.520   0.857
11108WAT      O33565   8.857   3.976   3.131
11108WAT     H133566   8.779   4.013   3.081
11108WAT     H233567   8.915   4.051   3.163
11109WAT      O33568   5.170   9.535   4.287
11109WAT     H133569   5.254   9.483   4.272
11109WAT     H233570   5.167   9.567   4.382
11110WAT      O33571   4.849   0.655   2.314
11110WAT     H133572   4.877   0.742   2.274
11110WAT     H233573   4.767   0.622   2.268
11111WAT      O33574   9.300   9.513   7.039
11111WAT     H133575   9.223   9.573   7.060
11111WAT     H233576   9.324   9.461   7.121
11112WAT      O33577   3.798   2.595   9.150
11112WAT     H133578   3.792   2.496   9.160
11112WAT     H233579   3.810   2.617   9.053
11113WAT      O33580   9.575   6.794   8.135
11113WAT     H133581   9.566   6.852   8.216
11113WAT     H233582   9.570   6.851   8.053
11114WAT      O33583   6.414   2.639   4.299
11114WAT     H133584   6.480   2.615   4.371
11114WAT     H233585   6.329   2.671   4.342
11115WAT      O33586   9.431   6.143   5.612
11115WAT     H133587   9.402   6.069   5.673
11115WAT     H233588   9.521   6.176   5.640
11116WAT      O33589   6.642   2.687   1.077
11116WAT     H133590   6.740   2.678   1.095
11116WAT     H233591   6.601   2.750   1.144
11117WAT      O33592   0.267   5.821   5.628
11117WAT     H133593   0.337   5.871   5.578
11117WAT     H233594   0.250   5.865   5.716
11118WAT      O33595   9.208   9.086   5.787
11118WAT     H133596   9.212   9.094   5.687
11118WAT     H233597   9.279   9.142   5.828
11119WAT      O33598   4.854   1.765   4.992
11119WAT     H133599   4.944   1.795   4.961
11119WAT     H233600   4.825   1.686   4.938
11120WAT      O33601   2.448   2.515   4.628
11120WAT     H133602   2.455   2.613   4.645
11120WAT     H233603   2.373   2.497   4.565
11121WAT      O33604   4.731   2.325   3.268
11121WAT     H133605   4.632   2.334   3.279
11121WAT     H233606   4.772   2.299   3.355
11122WAT      O33607   2.274   4.337   5.334
11122WAT     H133608   2.201   4.270   5.348
11122WAT     H233609   2.315   4.322   5.244
11123WAT      O33610   8.723   6.684   5.805
11123WAT     H133611   8.703   6.589   5.825
11123WAT     H233612   8.674   6.743   5.869
11124WAT      O33613   7.730   5.794   2.501
11124WAT     H133614   7.694   5.761   2.413
11124WAT     H233615   7.668   5.769   2.574
11125WAT      O33616   6.642   9.136   9.214
11125WAT     H133617   6.581   9.105   9.286
11125WAT     H233618   6.594   9.135   9.126
11126WAT      O33619   6.456   4.396   1.550
11126WAT     H133620   6.371   4.426   1.594
11126WAT     H233621   6.488   4.466   1.487
11127WAT      O33622   7.729   7.182   0.373
11127WAT     H133623   7.742   7.260   0.311
11127WAT     H233624   7.632   7.159   0.377
11128WAT      O33625   9.638   2.008   9.311
11128WAT     H133626   9.737   2.027   9.313
11128WAT     H233627   9.602   2.006   9.404
11129WAT      O33628   4.363   3.170   9.456
11129WAT     H133629   4.266   3.193   9.446
11129WAT     H233630   4.379   3.130   9.546
11130WAT      O33631   0.099   5.353   7.774
11130WAT     H133632   0.134   5.412   7.701
11130WAT     H233633   0.118   5.258   7.752
11131WAT      O33634   0.805   1.096   1.256
11131WAT     H133635   0.902   1.114   1.240
11131WAT     H233636   0.750   1.167   1.211
11132WAT      O33637   8.917   2.019   8.470
11132WAT     H133638   8.832   2.038   8.519
11132WAT     H233639   8.995   2.035   8.531
11133WAT      O33640   8.584   4.933   5.631
11133WAT     H133641   8.601   4.928   5.730
11133WAT     H233642   8.496   4.977   5.615
11134WAT      O33643   1.290   0.017   9.431
11134WAT     H133644   1.288   0.005   9.530
11134WAT     H233645   1.333   0.105   9.409
11135WAT      O33646   1.997   9.539   8.353
11135WAT     H133647   1.964   9.632   8.339
11135WAT     H233648   1.930   9.489   8.408
11136WAT      O33649   1.567   3.637   8.210
11136WAT     H133650   1.528   3.554   8.250
11136WAT     H233651   1.653   3.659   8.256
11137WAT      O33652   2.260   9.313   1.820
11137WAT     H133653   2.232   9.397   1.774
11137WAT     H233654   2.346   9.280   1.780
11138WAT      O33655   3.897   9.131   3.204
11138WAT     H133656   3.940   9.220   3.196
11138WAT     H233657   3.807   9.141   3.247
11139WAT      O33658   9.316   3.295   1.374
11139WAT     H133659   9.361   3.256   1.455
11139WAT     H233660   9.251   3.229   1.337
11140WAT      O33661   1.035   0.496   1.307
11140WAT     H133662   0.935   0.500   1.310
11140WAT     H233663   1.064   0.401   1.297
11141WAT      O33664   0.132   8.641   8.771
11141WAT     H133665   0.160   8.687   8.856
11141WAT     H233666   0.064   8.697   8.724
11142WAT      O33667   5.470   7.473   5.175
11142WAT     H133668   5.547   7.410   5.186
11142WAT     H233669   5.465   7.503   5.080
11143WAT      O33670   0.720   2.679   2.174
11143WAT     H133671   0.656   2.702   2.101
11143WAT     H233672   0.813   2.680   2.138
11144WAT      O33673   3.029   7.084   4.373
11144WAT     H133674   3.042   6.998   4.324
11144WAT     H233675   2.949   7.077   4.432
11145WAT      O33676   6.847   8.037   4.377
11145WAT     H133677   6.862   8.115   4.316
11145WAT     H233678   6.750   8.033   4.403
11146WAT      O33679   2.605   3.608   9.391
11146WAT     H133680   2.669   3.539   9.357
11146WAT     H233681   2.581   3.671   9.316
11147WAT      O33682   0.947   9.015   3.855
11147WAT     H133683   0.929   9.112   3.839
11147WAT     H233684   0.862   8.964   3.848
11148WAT      O33685   1.486   4.793   6.997
11148WAT     H133686   1.400   4.751   6.969
11148WAT     H233687   1.497   4.785   7.096
11149WAT      O33688   8.987   9.803   3.049
11149WAT     H133689   9.048   9.864   3.100
11149WAT     H233690   9.023   9.789   2.957
11150WAT      O33691   6.387   9.510   4.516
11150WAT     H133692   6.473   9.556   4.536
11150WAT     H233693   6.348   9.548   4.432
11151WAT      O33694   7.308   8.773   2.448
11151WAT     H133695   7.384   8.715   2.418
11151WAT     H233696   7.249   8.721   2.509
11152WAT      O33697   3.478   6.295   4.739
11152WAT     H133698   3.563   6.347   4.749
11152WAT     H233699   3.457   6.250   4.826
11153WAT      O33700   9.496   7.391   4.395
11153WAT     H133701   9.471   7.373   4.300
11153WAT     H233702   9.431   7.454   4.436
11154WAT      O33703   2.059   3.742   2.212
11154WAT     H133704   2.104   3.734   2.122
11154WAT     H233705   1.978   3.684   2.214
11155WAT      O33706   4.015   8.405   2.286
11155WAT     H133707   3.954   8.404   2.366
11155WAT     H233708   3.967   8.447   2.209
11156WAT      O33709   7.940   7.882   0.479
11156WAT     H133710   8.010   7.812   0.494
11156WAT     H233711   7.916   7.924   0.567
11157WAT      O33712   6.469   3.350   4.512
11157WAT     H133713   6.441   3.427   4.568
11157WAT     H233714   6.565   3.363   4.484
11158WAT      O33715   3.621   9.741   7.130
11158WAT     H133716   3.553   9.723   7.200
11158WAT     H233717   3.607   9.680   7.052
11159WAT      O33718   5.146   9.766   8.866
11159WAT     H133719   5.054   9.726   8.874
11159WAT     H233720   5.197   9.748   8.950
11160WAT      O33721   5.084   7.122   4.191
11160WAT     H133722   5.172   7.115   4.143
11160WAT     H233723   5.099   7.158   4.283
11161WAT      O33724   2.292   9.515   5.742
11161WAT     H133725   2.322   9.458   5.666
11161WAT     H233726   2.230   9.462   5.801
11162WAT      O33727   0.318   8.761   9.600
11162WAT     H133728   0.379   8.705   9.656
11162WAT     H233729   0.283   8.707   9.524
11163WAT      O33730   2.865   7.123   3.174
11163WAT     H133731   2.790   7.171   3.220
11163WAT     H233732   2.843   7.026   3.168
11164WAT      O33733   3.407   7.491   9.633
11164WAT     H133734   3.356   7.477   9.718
11164WAT     H233735   3.344   7.516   9.560
11165WAT      O33736   6.797   0.673   7.128
11165WAT     H133737   6.766   0.709   7.040
11165WAT     H233738   6.895   0.689   7.138
11166WAT      O33739   2.274   5.912   1.242
11166WAT     H133740   2.269   6.005   1.205
11166WAT     H233741   2.182   5.873   1.245
11167WAT      O33742   0.196   7.655   6.249
11167WAT     H133743   0.293   7.631   6.247
11167WAT     H233744   0.184   7.748   6.215
11168WAT      O33745   7.632   9.002   4.319
11168WAT     H133746   7.664   8.994   4.225
11168WAT     H233747   7.710   8.995   4.382
11169WAT      O33748   5.254   7.173   3.990
11169WAT     H133749   5.187   7.215   3.928
11169WAT     H233750   5.308   7.105   3.940
11170WAT      O33751   0.747   4.610   7.941
11170WAT     H133752   0.773   4.677   8.010
11170WAT     H233753   0.744   4.519   7.981
11171WAT      O33754   1.413   1.877   0.384
11171WAT     H133755   1.450   1.865   0.476
11171WAT     H233756   1.403   1.788   0.339
11172WAT      O33757   2.537   7.356   6.812
11172WAT     H133758   2.552   7.407   6.897
11172WAT     H233759   2.453   7.302   6.821
11173WAT      O33760   1.529   3.742   6.909
11173WAT     H133761   1.563   3.728   6.816
11173WAT     H233762   1.605   3.760   6.971
11174WAT      O33763   7.492   3.723   6.032
11174WAT     H133764   7.554   3.730   5.954
11174WAT     H233765   7.540   3.683   6.110
11175WAT      O33766   2.684   6.135   5.650
11175WAT     H133767   2.746   6.076   5.702
11175WAT     H233768   2.710   6.135   5.554
11176WAT      O33769   3.704   3.989   2.506
11176WAT     H133770   3.733   3.916   2.568
11176WAT     H233771   3.700   3.953   2.413
11177WAT      O33772   0.316   5.138   8.472
11177WAT     H133773   0.238   5.076   8.482
11177WAT     H233774   0.378   5.103   8.402
11178WAT      O33775   2.586   9.224   9.600
11178WAT     H133776   2.600   9.319   9.627
11178WAT     H233777   2.562   9.220   9.503
11179WAT      O33778   4.466   5.094   4.965
11179WAT     H133779   4.544   5.058   5.015
11179WAT     H233780   4.381   5.071   5.012
11180WAT      O33781   1.198   6.749   8.942
11180WAT     H133782   1.255   6.714   9.016
11180WAT     H233783   1.200   6.849   8.942
11181WAT      O33784   1.425   3.714   5.919
11181WAT     H133785   1.338   3.744   5.880
11181WAT     H233786   1.411   3.683   6.013
11182WAT      O33787   0.210   7.296   5.446
11182WAT     H133788   0.138   7.332   5.387
11182WAT     H233789   0.172   7.270   5.534
11183WAT      O33790   6.924   7.587   0.038
11183WAT     H133791   6.966   7.600   0.128
11183WAT     H233792   6.851   7.654   0.025
11184WAT      O33793   6.401   0.977   4.457
11184WAT     H133794   6.442   1.002   4.370
11184WAT     H233795   6.345   0.894   4.445
11185WAT      O33796   9.154   1.662   3.207
11185WAT     H133797   9.119   1.653   3.114
11185WAT     H233798   9.213   1.584   3.228
11186WAT      O33799   1.256   1.438   3.019
11186WAT     H133800   1.316   1.384   3.078
11186WAT     H233801   1.306   1.518   2.985
11187WAT      O33802   0.659   3.559   9.063
11187WAT     H133803   0.741   3.535   9.115
11187WAT     H233804   0.651   3.658   9.057
11188WAT      O33805   9.022   1.119   8.746
11188WAT     H133806   9.101   1.136   8.804
11188WAT     H233807   8.964   1.201   8.744
11189WAT      O33808   5.535   3.012   7.259
11189WAT     H133809   5.442   2.997   7.225
11189WAT     H233810   5.572   3.096   7.218
11190WAT      O33811   8.034   0.248   2.592
11190WAT     H133812   7.938   0.259   2.617
11190WAT     H233813   8.054   0.150   2.580
11191WAT      O33814   4.721   4.477   4.381
11191WAT     H133815   4.677   4.546   4.439
11191WAT     H233816   4.780   4.522   4.314
11192WAT      O33817   6.409   3.091   5.974
11192WAT     H133818   6.491   3.125   6.020
11192WAT     H233819   6.332   3.152   5.994
11193WAT      O33820   1.386   7.476   5.815
11193WAT     H133821   1.324   7.554   5.825
11193WAT     H233822   1.452   7.477   5.890
11194WAT      O33823   1.228   0.848   0.473
11194WAT     H133824   1.193   0.818   0.561
11194WAT     H233825   1.217   0.774   0.406
11195WAT      O33826   3.702   8.636   7.110
11195WAT     H133827   3.704   8.551   7.058
11195WAT     H233828   3.619   8.638   7.166
11196WAT      O33829   6.650   2.690   3.694
11196WAT     H133830   6.689   2.728   3.778
11196WAT     H233831   6.724   2.670   3.629
11197WAT      O33832   1.801   1.901   4.053
11197WAT     H133833   1.756   1.836   4.114
11197WAT     H233834   1.875   1.947   4.103
11198WAT      O33835   0.146   3.429   9.582
11198WAT     H133836   0.246   3.426   9.585
11198WAT     H233837   0.113   3.380   9.501
11199WAT      O33838   4.410   8.694   6.154
11199WAT     H133839   4.444   8.618   6.210
11199WAT     H233840   4.338   8.742   6.205
11200WAT      O33841   3.528   2.279   9.733
11200WAT     H133842   3.476   2.363   9.719
11200WAT     H233843   3.571   2.252   9.647
11201WAT      O33844   1.025   5.571   2.175
11201WAT     H133845   0.934   5.530   2.184
11201WAT     H233846   1.043   5.592   2.078
11202WAT      O33847   7.049   2.729   9.312
11202WAT     H133848   6.968   2.693   9.359
11202WAT     H233849   7.063   2.824   9.338
11203WAT      O33850   0.758   4.976   2.160
11203WAT     H133851   0.834   4.916   2.135
11203WAT     H233852   0.697   4.927   2.222
11204WAT      O33853   3.220   3.000   8.453
11204WAT     H133854   3.205   3.058   8.373
11204WAT     H233855   3.216   2.904   8.427
11205WAT      O33856   0.663   1.995   5.731
11205WAT     H133857   0.583   1.935   5.737
11205WAT     H233858   0.740   1.953   5.779
11206WAT      O33859   8.880   8.618   3.917
11206WAT     H133860   8.926   8.550   3.860
11206WAT     H233861   8.802   8.575   3.963
11207WAT      O33862   4.289   5.706   3.747
11207WAT     H133863   4.351   5.779   3.719
11207WAT     H233864   4.334   5.649   3.816
11208WAT      O33865   0.630   9.533   2.691
11208WAT     H133866   0.697   9.460   2.672
11208WAT     H233867   0.678   9.620   2.698
11209WAT      O33868   6.202   2.941   6.279
11209WAT     H133869   6.137   3.016   6.293
11209WAT     H233870   6.161   2.856   6.311
11210WAT      O33871   5.104   7.814   3.132
11210WAT     H133872   5.074   7.866   3.213
11210WAT     H233873   5.057   7.727   3.129
11211WAT      O33874   9.593   5.875   1.722
11211WAT     H133875   9.577   5.916   1.633
11211WAT     H233876   9.688   5.843   1.727
11212WAT      O33877   5.675   7.686   6.188
11212WAT     H133878   5.624   7.718   6.268
11212WAT     H233879   5.621   7.618   6.139
11213WAT      O33880   9.848   1.537   1.170
11213WAT     H133881   9.758   1.509   1.202
11213WAT     H233882   9.918   1.504   1.234
11214WAT      O33883   2.706   2.624   4.946
11214WAT     H133884   2.797   2.598   4.914
11214WAT     H233885   2.656   2.543   4.975
11215WAT      O33886   1.695   0.984   7.547
11215WAT     H133887   1.691   1.077   7.585
11215WAT     H233888   1.633   0.977   7.469
11216WAT      O33889   1.863   6.068   9.205
11216WAT     H133890   1.958   6.090   9.230
11216WAT     H233891   1.812   6.152   9.191
11217WAT      O33892   2.328   5.825   0.786
11217WAT     H133893   2.310   5.733   0.750
11217WAT     H233894   2.426   5.839   0.798
11218WAT      O33895   1.699   3.636   4.221
11218WAT     H133896   1.680   3.542   4.250
11218WAT     H233897   1.785   3.667   4.263
11219WAT      O33898   1.017   9.767   7.030
11219WAT     H133899   0.960   9.785   6.950
11219WAT     H233900   1.108   9.805   7.016
11220WAT      O33901   7.870   5.511   0.440
11220WAT     H133902   7.903   5.446   0.371
11220WAT     H233903   7.889   5.475   0.531
11221WAT      O33904   4.008   1.693   1.876
11221WAT     H133905   4.100   1.715   1.906
11221WAT     H233906   3.945   1.701   1.953
11222WAT      O33907   0.999   1.773   0.162
11222WAT     H133908   1.009   1.817   0.252
11222WAT     H233909   1.090   1.755   0.124
11223WAT      O33910   5.651   6.792   6.835
11223WAT     H133911   5.596   6.712   6.814
11223WAT     H233912   5.599   6.853   6.895
11224WAT      O33913   1.821   8.216   8.516
11224WAT     H133914   1.898   8.280   8.518
11224WAT     H233915   1.774   8.223   8.428
11225WAT      O33916   7.639   8.326   8.212
11225WAT     H133917   7.629   8.286   8.120
11225WAT     H233918   7.553   8.315   8.262
11226WAT      O33919   2.416   0.696   5.489
11226WAT     H133920   2.477   0.682   5.411
11226WAT     H233921   2.337   0.635   5.481
11227WAT      O33922   6.309   1.720   1.623
11227WAT     H133923   6.280   1.789   1.690
11227WAT     H233924   6.230   1.693   1.568
11228WAT      O33925   5.877   1.500   3.124
11228WAT     H133926   5.831   1.574   3.174
11228WAT     H233927   5.889   1.526   3.029
11229WAT      O33928   4.616   1.725   3.132
11229WAT     H133929   4.523   1.703   3.103
11229WAT     H233930   4.677   1.720   3.054
11230WAT      O33931   8.199   8.530   8.152
11230WAT     H133932   8.242   8.495   8.236
11230WAT     H233933   8.152   8.616   8.171
11231WAT      O33934   7.621   3.285   3.274
11231WAT     H133935   7.574   3.358   3.322
11231WAT     H233936   7.685   3.240   3.335
11232WAT      O33937   2.886   2.054   3.459
11232WAT     H133938   2.929   2.125   3.403
11232WAT     H233939   2.790   2.077   3.475
11233WAT      O33940   0.973   8.393   5.566
11233WAT     H133941   0.955   8.454   5.489
11233WAT     H233942   1.071   8.373   5.570
11234WAT      O33943   2.985   4.013   7.302
11234WAT     H133944   3.052   3.942   7.277
11234WAT     H233945   3.001   4.041   7.397
11235WAT      O33946   3.445   1.957   8.556
11235WAT     H133947   3.523   1.894   8.549
11235WAT     H233948   3.361   1.908   8.536
11236WAT      O33949   3.840   6.270   8.543
11236WAT     H133950   3.745   6.300   8.537
11236WAT     H233951   3.855   6.227   8.632
11237WAT      O33952   2.883   4.812   5.934
11237WAT     H133953   2.880   4.909   5.959
11237WAT     H233954   2.975   4.777   5.948
11238WAT      O33955   7.352   7.239   5.778
11238WAT     H133956   7.328   7.207   5.687
11238WAT     H233957   7.293   7.194   5.846
11239WAT      O33958   1.130   9.346   0.939
11239WAT     H133959   1.133   9.431   0.886
11239WAT     H233960   1.039   9.336   0.979
11240WAT      O33961   1.857   7.324   0.741
11240WAT     H133962   1.916   7.248   0.712
11240WAT     H233963   1.765   7.289   0.758
11241WAT      O33964   2.642   0.252   9.026
11241WAT     H133965   2.644   0.253   8.926
11241WAT     H233966   2.726   0.208   9.060
11242WAT      O33967   1.193   8.946   9.652
11242WAT     H133968   1.204   8.985   9.743
11242WAT     H233969   1.282   8.938   9.608
11243WAT      O33970   6.154   6.019   1.453
11243WAT     H133971   6.067   6.047   1.493
11243WAT     H233972   6.161   5.919   1.456
11244WAT      O33973   3.249   1.845   7.511
11244WAT     H133974   3.291   1.810   7.595
11244WAT     H233975   3.154   1.872   7.529
11245WAT      O33976   5.915   8.373   0.565
11245WAT     H133977   5.949   8.421   0.646
11245WAT     H233978   5.883   8.440   0.498
11246WAT      O33979   4.637   9.778   7.198
11246WAT     H133980   4.551   9.827   7.184
11246WAT     H233981   4.676   9.804   7.287
11247WAT      O33982   1.035   5.155   0.691
11247WAT     H133983   0.999   5.063   0.676
11247WAT     H233984   1.074   5.190   0.606
11248WAT      O33985   5.691   8.863   2.482
11248WAT     H133986   5.644   8.815   2.407
11248WAT     H233987   5.641   8.848   2.567
11249WAT      O33988   4.923   7.750   7.030
11249WAT     H133989   5.006   7.695   7.026
11249WAT     H233990   4.844   7.690   7.038
11250WAT      O33991   0.611   6.025   7.702
11250WAT     H133992   0.536   6.052   7.642
11250WAT     H233993   0.605   6.074   7.789
11251WAT      O33994   5.161   1.747   4.041
11251WAT     H133995   5.220   1.680   3.996
11251WAT     H233996   5.155   1.829   3.985
11252WAT      O33997   5.161   3.723   4.789
11252WAT     H133998   5.080   3.693   4.739
11252WAT     H233999   5.152   3.821   4.810
11253WAT      O34000   2.281   4.321   3.493
11253WAT     H134001   2.296   4.222   3.487
11253WAT     H234002   2.248   4.355   3.405
11254WAT      O34003   4.425   6.544   9.461
11254WAT     H134004   4.412   6.634   9.419
11254WAT     H234005   4.377   6.475   9.408
11255WAT      O34006   3.009   3.562   7.931
11255WAT     H134007   2.998   3.651   7.975
11255WAT     H234008   2.945   3.554   7.855
11256WAT      O34009   3.595   5.104   7.174
11256WAT     H134010   3.640   5.058   7.250
11256WAT     H234011   3.497   5.112   7.194
11257WAT      O34012   0.237   4.233   8.172
11257WAT     H134013   0.220   4.222   8.270
11257WAT     H234014   0.329   4.198   8.151
11258WAT      O34015   2.975   0.798   1.637
11258WAT     H134016   2.943   0.731   1.704
11258WAT     H234017   2.991   0.885   1.682
11259WAT      O34018   4.649   8.279   8.296
11259WAT     H134019   4.713   8.357   8.292
11259WAT     H234020   4.627   8.250   8.203
11260WAT      O34021   5.899   8.416   6.478
11260WAT     H134022   5.820   8.396   6.421
11260WAT     H234023   5.938   8.330   6.512
11261WAT      O34024   6.188   1.918   5.610
11261WAT     H134025   6.233   1.927   5.699
11261WAT     H234026   6.255   1.933   5.537
11262WAT      O34027   5.719   7.389   4.787
11262WAT     H134028   5.721   7.488   4.796
11262WAT     H234029   5.804   7.350   4.822
11263WAT      O34030   6.896   1.743   5.191
11263WAT     H134031   6.939   1.772   5.276
11263WAT     H234032   6.883   1.643   5.192
11264WAT      O34033   3.605   7.829   3.463
11264WAT     H134034   3.551   7.779   3.531
11264WAT     H234035   3.676   7.882   3.510
11265WAT      O34036   1.807   1.743   6.566
11265WAT     H134037   1.864   1.823   6.548
11265WAT     H234038   1.808   1.682   6.487
11266WAT      O34039   5.199   8.012   4.081
11266WAT     H134040   5.212   8.040   3.986
11266WAT     H234041   5.129   8.070   4.123
11267WAT      O34042   4.890   2.766   1.794
11267WAT     H134043   4.884   2.865   1.805
11267WAT     H234044   4.985   2.737   1.808
11268WAT      O34045   0.597   6.451   3.920
11268WAT     H134046   0.662   6.516   3.959
11268WAT     H234047   0.504   6.478   3.946
11269WAT      O34048   0.307   6.972   3.849
11269WAT     H134049   0.315   6.903   3.777
11269WAT     H234050   0.357   6.941   3.930
11270WAT      O34051   1.760   9.451   3.077
11270WAT     H134052   1.778   9.527   3.014
11270WAT     H234053   1.745   9.488   3.169
11271WAT      O34054   5.354   2.954   3.157
11271WAT     H134055   5.357   3.045   3.200
11271WAT     H234056   5.399   2.958   3.068
11272WAT      O34057   0.054   7.494   9.163
11272WAT     H134058   0.085   7.399   9.168
11272WAT     H234059   0.122   7.550   9.115
11273WAT      O34060   1.115   8.878   9.228
11273WAT     H134061   1.016   8.880   9.218
11273WAT     H234062   1.155   8.832   9.148
11274WAT      O34063   2.032   2.615   1.368
11274WAT     H134064   1.957   2.613   1.302
11274WAT     H234065   2.023   2.696   1.426
11275WAT      O34066   7.132   9.359   8.733
11275WAT     H134067   7.150   9.374   8.636
11275WAT     H234068   7.205   9.303   8.773
11276WAT      O34069   1.458   5.330   5.005
11276WAT     H134070   1.457   5.264   4.930
11276WAT     H234071   1.463   5.281   5.092
11277WAT      O34072   1.264   9.000   0.010
11277WAT     H134073   1.215   8.989   0.096
11277WAT     H234074   1.328   9.077   0.018
11278WAT      O34075   4.341   0.107   3.131
11278WAT     H134076   4.404   0.059   3.071
11278WAT     H234077   4.393   0.159   3.199
11279WAT      O34078   7.714   0.210   3.858
11279WAT     H134079   7.619   0.224   3.883
11279WAT     H234080   7.722   0.130   3.797
11280WAT      O34081   8.130   3.322   6.853
11280WAT     H134082   8.143   3.293   6.758
11280WAT     H234083   8.216   3.314   6.902
11281WAT      O34084   7.012   0.367   2.878
11281WAT     H134085   6.954   0.309   2.821
11281WAT     H234086   7.004   0.462   2.847
11282WAT      O34087   2.920   9.361   6.216
11282WAT     H134088   3.010   9.321   6.225
11282WAT     H234089   2.873   9.322   6.136
11283WAT      O34090   3.111   8.840   7.908
11283WAT     H134091   3.055   8.907   7.860
11283WAT     H234092   3.052   8.776   7.956
11284WAT      O34093   9.339   0.911   5.709
11284WAT     H134094   9.339   0.950   5.617
11284WAT     H234095   9.245   0.901   5.741
11285WAT      O34096   8.268   1.916   9.199
11285WAT     H134097   8.317   1.914   9.112
11285WAT     H234098   8.268   2.009   9.236
11286WAT      O34099   3.660   7.919   5.780
11286WAT     H134100   3.705   8.003   5.751
11286WAT     H234101   3.660   7.914   5.880
11287WAT      O34102   8.952   2.562   9.293
11287WAT     H134103   9.015   2.638   9.274
11287WAT     H234104   8.962   2.533   9.388
11288WAT      O34105   6.257   0.408   7.297
11288WAT     H134106   6.269   0.316   7.260
11288WAT     H234107   6.203   0.463   7.233
11289WAT      O34108   3.422   7.539   5.991
11289WAT     H134109   3.385   7.632   5.988
11289WAT     H234110   3.359   7.478   5.943
11290WAT      O34111   9.521   1.347   2.935
11290WAT     H134112   9.481   1.306   2.852
11290WAT     H234113   9.540   1.444   2.918
11291WAT      O34114   6.149   2.903   5.542
11291WAT     H134115   6.084   2.957   5.596
11291WAT     H234116   6.099   2.842   5.480
11292WAT      O34117   3.929   3.470   2.265
11292WAT     H134118   3.899   3.456   2.171
11292WAT     H234119   4.018   3.427   2.279
11293WAT      O34120   3.048   0.667   3.670
11293WAT     H134121   3.103   0.716   3.602
11293WAT     H234122   3.092   0.579   3.690
11294WAT      O34123   9.823   6.878   0.470
11294WAT     H134124   9.862   6.819   0.399
11294WAT     H234125   9.838   6.836   0.560
11295WAT      O34126   5.597   7.798   2.359
11295WAT     H134127   5.633   7.746   2.281
11295WAT     H234128   5.649   7.882   2.370
11296WAT      O34129   0.686   1.919   0.664
11296WAT     H134130   0.719   1.952   0.752
11296WAT     H234131   0.751   1.854   0.625
11297WAT      O34132   9.019   7.434   8.864
11297WAT     H134133   8.992   7.492   8.787
11297WAT     H234134   8.982   7.342   8.851
11298WAT      O34135   6.850   5.685   1.853
11298WAT     H134136   6.893   5.683   1.762
11298WAT     H234137   6.793   5.604   1.864
11299WAT      O34138   0.398   6.217   6.728
11299WAT     H134139   0.439   6.196   6.639
11299WAT     H234140   0.470   6.219   6.798
11300WAT      O34141   4.284   8.983   9.461
11300WAT     H134142   4.345   9.042   9.514
11300WAT     H234143   4.313   8.888   9.471
11301WAT      O34144   5.422   9.046   8.271
11301WAT     H134145   5.476   9.008   8.346
11301WAT     H234146   5.452   9.006   8.185
11302WAT      O34147   5.518   1.266   7.504
11302WAT     H134148   5.435   1.319   7.484
11302WAT     H234149   5.564   1.243   7.418
11303WAT      O34150   1.781   9.792   7.653
11303WAT     H134151   1.830   9.828   7.732
11303WAT     H234152   1.824   9.826   7.569
11304WAT      O34153   1.214   5.402   6.264
11304WAT     H134154   1.169   5.464   6.200
11304WAT     H234155   1.313   5.411   6.255
11305WAT      O34156   9.240   1.806   9.526
11305WAT     H134157   9.266   1.878   9.590
11305WAT     H234158   9.191   1.734   9.576
11306WAT      O34159   8.110   6.799   9.145
11306WAT     H134160   8.037   6.867   9.138
11306WAT     H234161   8.193   6.835   9.101
11307WAT      O34162   5.484   4.196   0.368
11307WAT     H134163   5.394   4.188   0.325
11307WAT     H234164   5.535   4.111   0.355
11308WAT      O34165   9.096   2.877   5.318
11308WAT     H134166   9.137   2.810   5.381
11308WAT     H234167   9.019   2.836   5.270
11309WAT      O34168   4.893   5.743   8.510
11309WAT     H134169   4.980   5.697   8.528
11309WAT     H234170   4.834   5.682   8.457
11310WAT      O34171   2.695   2.685   8.389
11310WAT     H134172   2.765   2.749   8.420
11310WAT     H234173   2.606   2.730   8.388
11311WAT      O34174   7.530   8.952   8.080
11311WAT     H134175   7.556   8.866   8.036
11311WAT     H234176   7.608   8.991   8.127
11312WAT      O34177   3.434   2.454   7.422
11312WAT     H134178   3.412   2.552   7.413
11312WAT     H234179   3.417   2.425   7.516
11313WAT      O34180   3.021   2.617   4.943
11313WAT     H134181   3.029   2.560   5.024
11313WAT     H234182   3.016   2.713   4.971
11314WAT      O34183   7.640   9.692   6.452
11314WAT     H134184   7.589   9.753   6.391
11314WAT     H234185   7.730   9.733   6.471
11315WAT      O34186   4.164   9.204   3.932
11315WAT     H134187   4.229   9.235   3.863
11315WAT     H234188   4.142   9.279   3.994
11316WAT      O34189   2.823   5.186   4.047
11316WAT     H134190   2.738   5.228   4.013
11316WAT     H234191   2.899   5.214   3.989
11317WAT      O34192   0.946   2.030   4.197
11317WAT     H134193   0.917   2.095   4.267
11317WAT     H234194   1.008   2.075   4.133
11318WAT      O34195   5.562   9.140   5.990
11318WAT     H134196   5.636   9.192   5.948
11318WAT     H234197   5.577   9.132   6.088
11319WAT      O34198   8.654   1.927   8.817
11319WAT     H134199   8.671   1.860   8.744
11319WAT     H234200   8.687   1.889   8.904
11320WAT      O34201   1.320   8.681   2.466
11320WAT     H134202   1.329   8.666   2.367
11320WAT     H234203   1.385   8.751   2.495
11321WAT      O34204   9.680   7.551   6.876
11321WAT     H134205   9.649   7.646   6.862
11321WAT     H234206   9.770   7.539   6.833
11322WAT      O34207   6.747   6.603   0.447
11322WAT     H134208   6.677   6.547   0.491
11322WAT     H234209   6.818   6.544   0.408
11323WAT      O34210   4.599   9.073   5.666
11323WAT     H134211   4.523   9.126   5.704
11323WAT     H234212   4.579   8.975   5.675
11324WAT      O34213   7.073   8.883   2.382
11324WAT     H134214   7.170   8.858   2.385
11324WAT     H234215   7.055   8.938   2.301
11325WAT      O34216   6.425   1.809   0.855
11325WAT     H134217   6.500   1.839   0.914
11325WAT     H234218   6.439   1.714   0.828
11326WAT      O34219   0.263   2.274   3.358
11326WAT     H134220   0.187   2.216   3.385
11326WAT     H234221   0.232   2.340   3.289
11327WAT      O34222   9.393   9.668   7.958
11327WAT     H134223   9.477   9.689   7.908
11327WAT     H234224   9.318   9.656   7.892
11328WAT      O34225   6.363   2.114   9.330
11328WAT     H134226   6.265   2.111   9.351
11328WAT     H234227   6.383   2.049   9.257
11329WAT      O34228   3.571   0.426   4.675
11329WAT     H134229   3.600   0.405   4.581
11329WAT     H234230   3.646   0.407   4.738
11330WAT      O34231   0.856   0.629   3.092
11330WAT     H134232   0.845   0.728   3.084
11330WAT     H234233   0.786   0.583   3.038
11331WAT      O34234   7.195   9.776   8.239
11331WAT     H134235   7.279   9.830   8.244
11331WAT     H234236   7.207   9.700   8.175
11332WAT      O34237   1.411   2.656   0.853
11332WAT     H134238   1.498   2.687   0.815
11332WAT     H234239   1.428   2.604   0.936
11333WAT      O34240   6.371   2.518   4.890
11333WAT     H134241   6.289   2.491   4.941
11333WAT     H234242   6.435   2.442   4.889
11334WAT      O34243   4.144   0.374   4.938
11334WAT     H134244   4.237   0.410   4.943
11334WAT     H234245   4.138   0.306   4.865
11335WAT      O34246   9.224   8.683   0.939
11335WAT     H134247   9.259   8.604   0.991
11335WAT     H234248   9.240   8.767   0.991
11336WAT      O34249   8.552   3.772   4.109
11336WAT     H134250   8.597   3.735   4.190
11336WAT     H234251   8.539   3.699   4.041
11337WAT      O34252   7.156   3.566   6.234
11337WAT     H134253   7.063   3.573   6.269
11337WAT     H234254   7.182   3.651   6.189
11338WAT      O34255   8.417   7.302   0.817
11338WAT     H134256   8.363   7.218   0.821
11338WAT     H234257   8.502   7.285   0.768
11339WAT      O34258   4.392   8.683   8.615
11339WAT     H134259   4.341   8.602   8.644
11339WAT     H234260   4.384   8.693   8.516
11340WAT      O34261   4.563   6.793   8.023
11340WAT     H134262   4.534   6.886   8.048
11340WAT     H234263   4.523   6.768   7.935
11341WAT      O34264   2.022   2.008   6.787
11341WAT     H134265   1.939   2.048   6.826
11341WAT     H234266   2.100   2.027   6.847
11342WAT      O34267   1.885   2.476   4.378
11342WAT     H134268   1.819   2.547   4.356
11342WAT     H234269   1.839   2.388   4.383
11343WAT      O34270   6.541   7.357   5.701
11343WAT     H134271   6.563   7.259   5.700
11343WAT     H234272   6.615   7.407   5.745
11344WAT      O34273   8.694   7.887   9.784
11344WAT     H134274   8.727   7.979   9.803
11344WAT     H234275   8.772   7.829   9.757
11345WAT      O34276   9.401   9.069   8.417
11345WAT     H134277   9.404   9.099   8.513
11345WAT     H234278   9.458   9.130   8.362
11346WAT      O34279   0.406   1.341   4.647
11346WAT     H134280   0.442   1.341   4.553
11346WAT     H234281   0.397   1.247   4.679
11347WAT      O34282   0.697   9.513   7.024
11347WAT     H134283   0.601   9.509   6.998
11347WAT     H234284   0.745   9.433   6.987
11348WAT      O34285   0.921   2.065   8.873
11348WAT     H134286   0.909   1.968   8.896
11348WAT     H234287   0.867   2.121   8.936
11349WAT      O34288   4.554   5.374   1.676
11349WAT     H134289   4.636   5.426   1.699
11349WAT     H234290   4.548   5.293   1.734
11350WAT      O34291   5.763   4.180   7.639
11350WAT     H134292   5.820   4.258   7.666
11350WAT     H234293   5.685   4.213   7.586
11351WAT      O34294   9.695   1.518   4.039
11351WAT     H134295   9.735   1.597   4.084
11351WAT     H234296   9.600   1.507   4.069
11352WAT      O34297   3.391   8.659   5.808
11352WAT     H134298   3.303   8.623   5.839
11352WAT     H234299   3.461   8.640   5.877
11353WAT      O34300   6.988   4.104   6.478
11353WAT     H134301   6.932   4.182   6.505
11353WAT     H234302   7.082   4.135   6.464
11354WAT      O34303   4.252   5.578   6.470
11354WAT     H134304   4.271   5.481   6.463
11354WAT     H234305   4.337   5.627   6.491
11355WAT      O34306   9.453   0.772   6.746
11355WAT     H134307   9.404   0.857   6.764
11355WAT     H234308   9.394   0.694   6.767
11356WAT      O34309   9.120   6.829   8.164
11356WAT     H134310   9.031   6.834   8.117
11356WAT     H234311   9.139   6.734   8.189
11357WAT      O34312   2.552   8.201   0.104
11357WAT     H134313   2.600   8.115   0.122
11357WAT     H234314   2.461   8.198   0.145
11358WAT      O34315   1.659   7.605   2.846
11358WAT     H134316   1.699   7.514   2.857
11358WAT     H234317   1.633   7.618   2.750
11359WAT      O34318   1.525   4.649   1.138
11359WAT     H134319   1.429   4.674   1.152
11359WAT     H234320   1.538   4.617   1.045
11360WAT      O34321   5.532   9.396   1.550
11360WAT     H134322   5.518   9.494   1.542
11360WAT     H234323   5.457   9.356   1.604
11361WAT      O34324   0.415   4.166   9.804
11361WAT     H134325   0.370   4.145   9.891
11361WAT     H234326   0.418   4.265   9.790
11362WAT      O34327   4.449   5.099   4.160
11362WAT     H134328   4.513   5.175   4.158
11362WAT     H234329   4.499   5.012   4.164
11363WAT      O34330   9.147   0.860   1.142
11363WAT     H134331   9.125   0.907   1.228
11363WAT     H234332   9.075   0.878   1.075
11364WAT      O34333   1.270   5.695   7.184
11364WAT     H134334   1.244   5.782   7.228
11364WAT     H234335   1.360   5.667   7.217
11365WAT      O34336   8.065   3.045   6.422
11365WAT     H134337   8.062   3.145   6.414
11365WAT     H234338   7.973   3.008   6.415
11366WAT      O34339   0.559   4.908   2.340
11366WAT     H134340   0.546   4.818   2.381
11366WAT     H234341   0.470   4.947   2.316
11367WAT      O34342   5.689   2.655   9.443
11367WAT     H134343   5.639   2.572   9.417
11367WAT     H234344   5.731   2.641   9.532
11368WAT      O34345   7.352   3.199   9.230
11368WAT     H134346   7.362   3.249   9.316
11368WAT     H234347   7.260   3.160   9.225
11369WAT      O34348   3.299   5.775   3.552
11369WAT     H134349   3.263   5.690   3.515
11369WAT     H234350   3.275   5.783   3.648
11370WAT      O34351   7.868   6.020   5.420
11370WAT     H134352   7.956   5.974   5.429
11370WAT     H234353   7.845   6.066   5.506
11371WAT      O34354   1.662   8.093   5.491
11371WAT     H134355   1.688   8.174   5.438
11371WAT     H234356   1.735   8.071   5.556
11372WAT      O34357   0.370   7.886   6.839
11372WAT     H134358   0.376   7.976   6.882
11372WAT     H234359   0.457   7.838   6.849
11373WAT      O34360   5.491   1.336   3.353
11373WAT     H134361   5.406   1.309   3.306
11373WAT     H234362   5.568   1.321   3.291
11374WAT      O34363   5.132   4.070   7.856
11374WAT     H134364   5.112   4.158   7.899
11374WAT     H234365   5.086   3.997   7.907
11375WAT      O34366   4.147   6.752   5.769
11375WAT     H134367   4.123   6.661   5.736
11375WAT     H234368   4.176   6.747   5.864
11376WAT      O34369   8.780   0.129   9.003
11376WAT     H134370   8.867   0.158   9.043
11376WAT     H234371   8.719   0.208   8.995
11377WAT      O34372   2.598   8.759   6.919
11377WAT     H134373   2.647   8.684   6.875
11377WAT     H234374   2.627   8.767   7.015
11378WAT      O34375   1.136   4.504   7.863
11378WAT     H134376   1.181   4.522   7.776
11378WAT     H234377   1.160   4.575   7.929
11379WAT      O34378   1.490   8.267   7.396
11379WAT     H134379   1.490   8.224   7.487
11379WAT     H234380   1.517   8.363   7.405
11380WAT      O34381   9.652   2.155   0.030
11380WAT     H134382   9.599   2.076  -0.001
11380WAT     H234383   9.656   2.155   0.130
11381WAT      O34384   0.091   2.809   3.263
11381WAT     H134385   0.006   2.804   3.210
11381WAT     H234386   0.106   2.903   3.292
11382WAT      O34387   2.845   1.407   6.575
11382WAT     H134388   2.778   1.335   6.557
11382WAT     H234389   2.803   1.496   6.558
11383WAT      O34390   1.170   0.330   5.160
11383WAT     H134391   1.173   0.427   5.137
11383WAT     H234392   1.089   0.288   5.119
11384WAT      O34393   7.764   0.319   6.502
11384WAT     H134394   7.822   0.400   6.492
11384WAT     H234395   7.682   0.329   6.445
11385WAT      O34396   0.396   0.155   4.929
11385WAT     H134397   0.348   0.223   4.874
11385WAT     H234398   0.474   0.119   4.878
11386WAT      O34399   0.786   1.513   4.492
11386WAT     H134400   0.862   1.561   4.536
11386WAT     H234401   0.702   1.526   4.545
11387WAT      O34402   8.879   1.836   1.947
11387WAT     H134403   8.824   1.896   2.005
11387WAT     H234404   8.908   1.887   1.866
11388WAT      O34405   5.117   2.796   8.638
11388WAT     H134406   5.058   2.875   8.622
11388WAT     H234407   5.180   2.817   8.713
11389WAT      O34408   0.859   4.154   3.030
11389WAT     H134409   0.827   4.106   3.112
11389WAT     H234410   0.781   4.177   2.971
11390WAT      O34411   4.502   1.982   1.285
11390WAT     H134412   4.578   1.967   1.347
11390WAT     H234413   4.430   2.032   1.333
11391WAT      O34414   2.418   1.680   3.204
11391WAT     H134415   2.438   1.642   3.114
11391WAT     H234416   2.464   1.768   3.213
11392WAT      O34417   7.577   7.657   8.933
11392WAT     H134418   7.613   7.732   8.877
11392WAT     H234419   7.652   7.596   8.959
11393WAT      O34420   8.829   1.174   1.991
11393WAT     H134421   8.836   1.094   2.050
11393WAT     H234422   8.858   1.150   1.898
11394WAT      O34423   9.424   1.303   1.566
11394WAT     H134424   9.467   1.216   1.539
11394WAT     H234425   9.334   1.284   1.604
11395WAT      O34426   7.416   8.642   8.554
11395WAT     H134427   7.370   8.694   8.482
11395WAT     H234428   7.352   8.577   8.595
11396WAT      O34429   2.582   1.810   7.024
11396WAT     H134430   2.675   1.842   7.037
11396WAT     H234431   2.571   1.778   6.930
11397WAT      O34432   2.474   9.743   4.509
11397WAT     H134433   2.432   9.756   4.599
11397WAT     H234434   2.439   9.659   4.468
11398WAT      O34435   4.112   4.346   1.866
11398WAT     H134436   4.102   4.248   1.849
11398WAT     H234437   4.169   4.360   1.947
11399WAT      O34438   7.263   9.517   1.589
11399WAT     H134439   7.286   9.552   1.680
11399WAT     H234440   7.164   9.520   1.576
11400WAT      O34441   2.790   8.821   7.374
11400WAT     H134442   2.848   8.797   7.452
11400WAT     H234443   2.812   8.913   7.343
11401WAT      O34444   6.466   3.247   1.280
11401WAT     H134445   6.539   3.182   1.262
11401WAT     H234446   6.504   3.331   1.318
11402WAT      O34447   3.865   7.137   5.859
11402WAT     H134448   3.809   7.121   5.940
11402WAT     H234449   3.885   7.235   5.850
11403WAT      O34450   7.206   6.949   7.861
11403WAT     H134451   7.257   7.033   7.843
11403WAT     H234452   7.142   6.932   7.786
11404WAT      O34453   2.548   4.634   6.406
11404WAT     H134454   2.511   4.693   6.478
11404WAT     H234455   2.549   4.684   6.319
11405WAT      O34456   1.944   0.048   4.408
11405WAT     H134457   2.042   0.032   4.419
11405WAT     H234458   1.913   0.112   4.477
11406WAT      O34459   0.065   2.087   3.190
11406WAT     H134460   0.030   2.119   3.278
11406WAT     H234461   0.081   1.988   3.194
11407WAT      O34462   1.754   8.407   5.885
11407WAT     H134463   1.679   8.342   5.871
11407WAT     H234464   1.837   8.370   5.844
11408WAT      O34465   3.492   2.010   6.577
11408WAT     H134466   3.426   1.935   6.567
11408WAT     H234467   3.486   2.047   6.670
11409WAT      O34468   9.821   8.642   7.551
11409WAT     H134469   9.860   8.608   7.465
11409WAT     H234470   9.866   8.728   7.576
11410WAT      O34471   1.523   8.725   1.293
11410WAT     H134472   1.425   8.729   1.273
11410WAT     H234473   1.567   8.808   1.260
11411WAT      O34474   4.681   2.344   8.542
11411WAT     H134475   4.646   2.251   8.527
11411WAT     H234476   4.776   2.350   8.509
11412WAT      O34477   9.329   6.459   6.425
11412WAT     H134478   9.263   6.525   6.389
11412WAT     H234479   9.409   6.508   6.460
11413WAT      O34480   4.705   5.505   5.651
11413WAT     H134481   4.768   5.439   5.609
11413WAT     H234482   4.740   5.598   5.637
11414WAT      O34483   8.521   0.684   4.545
11414WAT     H134484   8.582   0.756   4.579
11414WAT     H234485   8.504   0.617   4.618
11415WAT      O34486   0.135   8.078   5.215
11415WAT     H134487   0.145   8.021   5.296
11415WAT     H234488   0.134   8.174   5.242
11416WAT      O34489   9.505   6.432   6.775
11416WAT     H134490   9.597   6.408   6.804
11416WAT     H234491   9.489   6.529   6.794
11417WAT      O34492   1.154   1.004   3.840
11417WAT     H134493   1.231   0.962   3.791
11417WAT     H234494   1.140   1.097   3.805
11418WAT      O34495   0.635   2.075   1.257
11418WAT     H134496   0.596   2.082   1.165
11418WAT     H234497   0.606   2.154   1.312
11419WAT      O34498   5.012   5.202   6.897
11419WAT     H134499   5.071   5.275   6.862
11419WAT     H234500   4.968   5.232   6.982
11420WAT      O34501   8.201   0.206   1.230
11420WAT     H134502   8.248   0.289   1.261
11420WAT     H234503   8.268   0.141   1.194
11421WAT      O34504   4.055   2.245   8.631
11421WAT     H134505   3.992   2.255   8.554
11421WAT     H234506   4.029   2.165   8.685
11422WAT      O34507   3.822   1.604   4.065
11422WAT     H134508   3.795   1.692   4.026
11422WAT     H234509   3.882   1.619   4.144
11423WAT      O34510   6.771   1.426   2.624
11423WAT     H134511   6.853   1.402   2.572
11423WAT     H234512   6.777   1.521   2.654
11424WAT      O34513   3.213   0.421   3.350
11424WAT     H134514   3.291   0.416   3.412
11424WAT     H234515   3.207   0.513   3.311
11425WAT      O34516   8.140   2.310   5.998
11425WAT     H134517   8.071   2.369   5.956
11425WAT     H234518   8.159   2.341   6.091
11426WAT      O34519   4.396   8.279   9.060
11426WAT     H134520   4.387   8.324   8.972
11426WAT     H234521   4.375   8.344   9.133
11427WAT      O34522   4.690   2.360   2.592
11427WAT     H134523   4.700   2.443   2.647
11427WAT     H234524   4.661   2.385   2.500
11428WAT      O34525   3.864   7.923   5.442
11428WAT     H134526   3.774   7.898   5.477
11428WAT     H234527   3.892   7.858   5.372
11429WAT      O34528   2.781   0.527   8.424
11429WAT     H134529   2.798   0.544   8.326
11429WAT     H234530   2.797   0.612   8.475
11430WAT      O34531   9.042   0.803   3.659
11430WAT     H134532   8.983   0.882   3.644
11430WAT     H234533   9.117   0.828   3.720
11431WAT      O34534   7.212   3.151   7.378
11431WAT     H134535   7.236   3.166   7.474
11431WAT     H234536   7.289   3.109   7.331
11432WAT      O34537   8.685   4.328   2.796
11432WAT     H134538   8.779   4.348   2.826
11432WAT     H234539   8.682   4.237   2.754
11433WAT      O34540   5.300   7.996   0.034
11433WAT     H134541   5.312   8.032  -0.058
11433WAT     H234542   5.270   8.069   0.095
11434WAT      O34543   1.303   5.900   4.624
11434WAT     H134544   1.369   5.973   4.641
11434WAT     H234545   1.302   5.880   4.526
11435WAT      O34546   6.133   2.346   3.093
11435WAT     H134547   6.190   2.426   3.072
11435WAT     H234548   6.170   2.300   3.173
11436WAT      O34549   8.890   1.694   1.319
11436WAT     H134550   8.852   1.773   1.367
11436WAT     H234551   8.815   1.635   1.288
11437WAT      O34552   6.708   9.785   2.191
11437WAT     H134553   6.635   9.753   2.251
11437WAT     H234554   6.720   9.719   2.116
11438WAT      O34555   0.267   5.331   5.395
11438WAT     H134556   0.175   5.314   5.361
11438WAT     H234557   0.301   5.250   5.443
11439WAT      O34558   0.894   9.530   6.241
11439WAT     H134559   0.923   9.439   6.213
11439WAT     H234560   0.838   9.570   6.168
11440WAT      O34561   3.949   7.142   8.213
11440WAT     H134562   3.868   7.146   8.153
11440WAT     H234563   4.032   7.141   8.157
11441WAT      O34564   3.893   6.127   0.081
11441WAT     H134565   3.904   6.036   0.122
11441WAT     H234566   3.925   6.196   0.146
11442WAT      O34567   6.777   5.507   5.283
11442WAT     H134568   6.708   5.459   5.338
11442WAT     H234569   6.830   5.441   5.230
11443WAT      O34570   5.781   0.347   9.053
11443WAT     H134571   5.754   0.366   9.147
11443WAT     H234572   5.836   0.263   9.051
11444WAT      O34573   3.137   1.457   1.450
11444WAT     H134574   3.149   1.372   1.399
11444WAT     H234575   3.219   1.513   1.441
11445WAT      O34576   2.652   0.927   5.363
11445WAT     H134577   2.685   0.990   5.434
11445WAT     H234578   2.561   0.893   5.389
11446WAT      O34579   0.032   7.172   1.239
11446WAT     H134580  -0.050   7.116   1.247
11446WAT     H234581   0.061   7.202   1.330
11447WAT      O34582   0.046   1.039   3.156
11447WAT     H134583   0.108   1.117   3.155
11447WAT     H234584  -0.041   1.065   3.115
11448WAT      O34585   6.115   9.130   2.342
11448WAT     H134586   6.132   9.175   2.430
11448WAT     H234587   6.064   9.046   2.357
11449WAT      O34588   4.119   6.347   2.609
11449WAT     H134589   4.113   6.256   2.567
11449WAT     H234590   4.086   6.415   2.543
11450WAT      O34591   3.219   8.385   7.477
11450WAT     H134592   3.211   8.286   7.463
11450WAT     H234593   3.304   8.418   7.436
11451WAT      O34594   7.474   4.260   7.740
11451WAT     H134595   7.379   4.233   7.723
11451WAT     H234596   7.530   4.240   7.660
11452WAT      O34597   9.585   8.986   2.055
11452WAT     H134598   9.634   8.937   1.983
11452WAT     H234599   9.581   8.930   2.137
11453WAT      O34600   0.646   6.849   7.819
11453WAT     H134601   0.656   6.948   7.815
11453WAT     H234602   0.731   6.808   7.852
11454WAT      O34603   6.866   6.523   5.136
11454WAT     H134604   6.889   6.594   5.068
11454WAT     H234605   6.874   6.433   5.094
11455WAT      O34606   0.524   7.054   1.920
11455WAT     H134607   0.553   7.109   1.999
11455WAT     H234608   0.475   6.973   1.953
11456WAT      O34609   6.365   7.641   8.969
11456WAT     H134610   6.437   7.572   8.961
11456WAT     H234611   6.386   7.717   8.908
11457WAT      O34612   9.473   9.743   0.683
11457WAT     H134613   9.415   9.820   0.711
11457WAT     H234614   9.568   9.775   0.673
11458WAT      O34615   3.722   6.088   9.369
11458WAT     H134616   3.722   6.071   9.468
11458WAT     H234617   3.758   6.008   9.322
11459WAT      O34618   3.472   0.725   0.057
11459WAT     H134619   3.394   0.736  -0.004
11459WAT     H234620   3.542   0.793   0.036
11460WAT      O34621   5.729   4.726   8.581
11460WAT     H134622   5.821   4.757   8.559
11460WAT     H234623   5.688   4.681   8.501
11461WAT      O34624   0.357   6.507   4.558
11461WAT     H134625   0.382   6.576   4.625
11461WAT     H234626   0.264   6.474   4.578
11462WAT      O34627   0.331   8.688   6.790
11462WAT     H134628   0.392   8.648   6.858
11462WAT     H234629   0.353   8.652   6.699
11463WAT      O34630   3.693   3.247   8.564
11463WAT     H134631   3.622   3.186   8.529
11463WAT     H234632   3.651   3.326   8.608
11464WAT      O34633   7.226   5.103   9.358
11464WAT     H134634   7.140   5.055   9.379
11464WAT     H234635   7.212   5.165   9.281
11465WAT      O34636   3.576   8.998   0.275
11465WAT     H134637   3.596   8.953   0.188
11465WAT     H234638   3.486   8.967   0.308
11466WAT      O34639   9.548   8.604   2.967
11466WAT     H134640   9.548   8.507   2.939
11466WAT     H234641   9.624   8.619   3.031
11467WAT      O34642   5.675   3.108   8.250
11467WAT     H134643   5.692   3.151   8.162
11467WAT     H234644   5.593   3.052   8.245
11468WAT      O34645   6.002   7.982   1.555
11468WAT     H134646   6.071   7.971   1.484
11468WAT     H234647   6.038   8.042   1.627
11469WAT      O34648   9.059   3.976   5.550
11469WAT     H134649   9.004   3.900   5.517
11469WAT     H234650   9.143   3.941   5.593
11470WAT      O34651   8.574   4.200   7.036
11470WAT     H134652   8.621   4.264   6.975
11470WAT     H234653   8.612   4.207   7.128
11471WAT      O34654   8.528   9.172   8.976
11471WAT     H134655   8.469   9.158   9.055
11471WAT     H234656   8.473   9.181   8.894
11472WAT      O34657   8.495   3.439   6.246
11472WAT     H134658   8.489   3.480   6.336
11472WAT     H234659   8.516   3.509   6.178
11473WAT      O34660   2.092   8.794   6.035
11473WAT     H134661   2.134   8.715   6.079
11473WAT     H234662   2.071   8.863   6.104
11474WAT      O34663   2.636   5.761   4.844
11474WAT     H134664   2.589   5.702   4.778
11474WAT     H234665   2.700   5.707   4.898
11475WAT      O34666   1.425   0.529   7.737
11475WAT     H134667   1.423   0.563   7.643
11475WAT     H234668   1.516   0.490   7.756
11476WAT      O34669   4.440   2.239   3.717
11476WAT     H134670   4.509   2.230   3.645
11476WAT     H234671   4.361   2.289   3.681
11477WAT      O34672   8.510   2.843   7.375
11477WAT     H134673   8.573   2.803   7.308
11477WAT     H234674   8.557   2.918   7.422
11478WAT      O34675   6.729   8.860   7.976
11478WAT     H134676   6.727   8.955   8.007
11478WAT     H234677   6.752   8.801   8.052
11479WAT      O34678   0.084   8.063   2.366
11479WAT     H134679   0.081   8.040   2.269
11479WAT     H234680   0.171   8.106   2.388
11480WAT      O34681   7.141   3.132   2.875
11480WAT     H134682   7.080   3.171   2.806
11480WAT     H234683   7.222   3.190   2.884
11481WAT      O34684   0.181   9.296   8.412
11481WAT     H134685   0.205   9.323   8.505
11481WAT     H234686   0.147   9.376   8.362
11482WAT      O34687   6.218   7.841   9.426
11482WAT     H134688   6.285   7.858   9.354
11482WAT     H234689   6.136   7.800   9.386
11483WAT      O34690   9.467  -0.005   4.792
11483WAT     H134691   9.382   0.047   4.779
11483WAT     H234692   9.520   0.036   4.866
11484WAT      O34693   7.143   5.159   8.850
11484WAT     H134694   7.240   5.163   8.827
11484WAT     H234695   7.091   5.211   8.782
11485WAT      O34696   2.643   4.280   2.120
11485WAT     H134697   2.687   4.366   2.146
11485WAT     H234698   2.690   4.204   2.164
11486WAT      O34699   8.765   0.485   8.827
11486WAT     H134700   8.704   0.441   8.893
11486WAT     H234701   8.796   0.572   8.864
11487WAT      O34702   7.534   0.237   2.055
11487WAT     H134703   7.538   0.209   2.151
11487WAT     H234704   7.509   0.333   2.049
11488WAT      O34705   6.048   5.177   1.521
11488WAT     H134706   6.010   5.242   1.454
11488WAT     H234707   6.100   5.228   1.590
11489WAT      O34708   7.889   0.574   0.394
11489WAT     H134709   7.851   0.484   0.414
11489WAT     H234710   7.937   0.571   0.306
11490WAT      O34711   1.285   1.290   5.207
11490WAT     H134712   1.269   1.306   5.305
11490WAT     H234713   1.232   1.357   5.154
11491WAT      O34714   5.463   8.641   9.716
11491WAT     H134715   5.393   8.641   9.645
11491WAT     H234716   5.442   8.571   9.784
11492WAT      O34717   2.226   7.734   5.077
11492WAT     H134718   2.230   7.745   4.978
11492WAT     H234719   2.146   7.680   5.102
11493WAT      O34720   2.235   5.206   4.214
11493WAT     H134721   2.147   5.247   4.238
11493WAT     H234722   2.229   5.107   4.221
11494WAT      O34723   7.632   4.772   4.042
11494WAT     H134724   7.631   4.866   4.076
11494WAT     H234725   7.713   4.725   4.076
11495WAT      O34726   4.435   3.313   3.830
11495WAT     H134727   4.467   3.341   3.740
11495WAT     H234728   4.336   3.297   3.827
11496WAT      O34729   6.879   5.783   8.045
11496WAT     H134730   6.908   5.706   7.988
11496WAT     H234731   6.954   5.849   8.052
11497WAT      O34732   9.064   4.131   0.900
11497WAT     H134733   9.032   4.188   0.975
11497WAT     H234734   9.115   4.187   0.834
11498WAT      O34735   0.466   8.334   1.907
11498WAT     H134736   0.527   8.399   1.864
11498WAT     H234737   0.385   8.319   1.850
11499WAT      O34738   3.234   0.065   7.632
11499WAT     H134739   3.246   0.162   7.653
11499WAT     H234740   3.222   0.014   7.718
11500WAT      O34741   8.681   0.994   4.260
11500WAT     H134742   8.608   0.999   4.192
11500WAT     H234743   8.711   1.087   4.284
11501WAT      O34744   0.947   1.945   2.131
11501WAT     H134745   0.878   1.969   2.063
11501WAT     H234746   0.905   1.941   2.222
11502WAT      O34747   1.419   0.442   3.039
11502WAT     H134748   1.484   0.418   3.111
11502WAT     H234749   1.340   0.381   3.044
11503WAT      O34750   8.667   5.911   3.354
11503WAT     H134751   8.700   5.944   3.443
11503WAT     H234752   8.576   5.949   3.337
11504WAT      O34753   5.042   0.138   4.768
11504WAT     H134754   5.008   0.114   4.677
11504WAT     H234755   5.139   0.158   4.764
11505WAT      O34756   2.484   0.583   4.184
11505WAT     H134757   2.447   0.491   4.198
11505WAT     H234758   2.410   0.650   4.196
11506WAT      O34759   8.572   4.222   1.519
11506WAT     H134760   8.554   4.320   1.507
11506WAT     H234761   8.670   4.205   1.513
11507WAT      O34762   7.320   5.382   5.253
11507WAT     H134763   7.390   5.417   5.316
11507WAT     H234764   7.357   5.380   5.160
11508WAT      O34765   7.424   3.067   8.326
11508WAT     H134766   7.335   3.112   8.328
11508WAT     H234767   7.466   3.080   8.236
11509WAT      O34768   7.810   4.926   6.367
11509WAT     H134769   7.796   5.025   6.366
11509WAT     H234770   7.903   4.905   6.336
11510WAT      O34771   6.701   7.368   6.314
11510WAT     H134772   6.695   7.466   6.330
11510WAT     H234773   6.627   7.322   6.363
11511WAT      O34774   8.980   5.894   1.381
11511WAT     H134775   9.009   5.888   1.477
11511WAT     H234776   8.887   5.931   1.377
11512WAT      O34777   8.041   7.316   9.160
11512WAT     H134778   8.054   7.318   9.061
11512WAT     H234779   7.944   7.324   9.181
11513WAT      O34780   0.230   9.225   7.895
11513WAT     H134781   0.160   9.217   7.966
11513WAT     H234782   0.281   9.139   7.890
11514WAT      O34783   3.010   0.898   5.504
11514WAT     H134784   2.952   0.906   5.585
11514WAT     H234785   2.955   0.861   5.428
11515WAT      O34786   7.130   6.490   0.875
11515WAT     H134787   7.143   6.576   0.926
11515WAT     H234788   7.124   6.511   0.777
11516WAT      O34789   6.604   5.142   3.531
11516WAT     H134790   6.654   5.133   3.617
11516WAT     H234791   6.553   5.228   3.531
11517WAT      O34792   3.453   4.802   0.203
11517WAT     H134793   3.522   4.804   0.130
11517WAT     H234794   3.420   4.709   0.216
11518WAT      O34795   5.916   3.510   2.651
11518WAT     H134796   5.972   3.591   2.670
11518WAT     H234797   5.821   3.538   2.640
11519WAT      O34798   7.331   0.178   0.127
11519WAT     H134799   7.347   0.088   0.086
11519WAT     H234800   7.417   0.212   0.166
11520WAT      O34801   4.335   9.271   3.723
11520WAT     H134802   4.345   9.239   3.629
11520WAT     H234803   4.425   9.271   3.768
11521WAT      O34804   7.493   8.511   7.606
11521WAT     H134805   7.399   8.512   7.642
11521WAT     H234806   7.491   8.533   7.508
11522WAT      O34807   8.086   3.104   7.317
11522WAT     H134808   7.999   3.119   7.269
11522WAT     H234809   8.071   3.041   7.393
11523WAT      O34810   4.600   2.035   6.665
11523WAT     H134811   4.607   1.935   6.674
11523WAT     H234812   4.581   2.076   6.754
11524WAT      O34813   4.627   4.761   6.610
11524WAT     H134814   4.711   4.719   6.643
11524WAT     H234815   4.569   4.784   6.688
11525WAT      O34816   9.484   4.562   5.282
11525WAT     H134817   9.550   4.591   5.212
11525WAT     H234818   9.533   4.526   5.361
11526WAT      O34819   7.604   7.671   6.557
11526WAT     H134820   7.603   7.682   6.458
11526WAT     H234821   7.699   7.672   6.590
11527WAT      O34822   2.918   3.177   9.442
11527WAT     H134823   2.932   3.112   9.516
11527WAT     H234824   2.957   3.141   9.357
11528WAT      O34825   2.230   0.043   2.690
11528WAT     H134826   2.131   0.035   2.682
11528WAT     H234827   2.264  -0.026   2.754
11529WAT      O34828   7.486   7.048   1.088
11529WAT     H134829   7.535   7.130   1.059
11529WAT     H234830   7.394   7.073   1.119
11530WAT      O34831   7.661   1.950   4.902
11530WAT     H134832   7.562   1.942   4.914
11530WAT     H234833   7.680   2.007   4.823
11531WAT      O34834   9.877   0.781   6.652
11531WAT     H134835   9.955   0.753   6.707
11531WAT     H234836   9.822   0.701   6.629
11532WAT      O34837   5.624   6.191   5.059
11532WAT     H134838   5.573   6.276   5.078
11532WAT     H234839   5.601   6.123   5.128
11533WAT      O34840   0.182   9.234   5.900
11533WAT     H134841   0.163   9.136   5.897
11533WAT     H234842   0.278   9.250   5.876
11534WAT      O34843   8.316   1.993   7.991
11534WAT     H134844   8.273   1.969   8.078
11534WAT     H234845   8.253   1.972   7.916
11535WAT      O34846   4.916   5.847   9.737
11535WAT     H134847   4.838   5.846   9.674
11535WAT     H234848   4.898   5.910   9.813
11536WAT      O34849   6.885   7.012   8.092
11536WAT     H134850   6.887   6.982   7.997
11536WAT     H234851   6.972   7.055   8.116
11537WAT      O34852   5.496   4.016   3.463
11537WAT     H134853   5.474   3.922   3.437
11537WAT     H234854   5.451   4.039   3.549
11538WAT      O34855   0.807   4.999   4.536
11538WAT     H134856   0.810   5.098   4.551
11538WAT     H234857   0.900   4.962   4.540
11539WAT      O34858   8.811   1.836   3.017
11539WAT     H134859   8.735   1.884   2.972
11539WAT     H234860   8.828   1.879   3.106
11540WAT      O34861   9.635   3.234   5.390
11540WAT     H134862   9.721   3.282   5.376
11540WAT     H234863   9.567   3.267   5.324
11541WAT      O34864   3.618   7.289   1.768
11541WAT     H134865   3.695   7.339   1.726
11541WAT     H234866   3.596   7.210   1.712
11542WAT      O34867   6.762   6.258   5.843
11542WAT     H134868   6.772   6.357   5.847
11542WAT     H234869   6.839   6.214   5.888
11543WAT      O34870   8.972   3.698   7.750
11543WAT     H134871   8.877   3.665   7.754
11543WAT     H234872   8.986   3.748   7.664
11544WAT      O34873   2.551   3.101   0.187
11544WAT     H134874   2.566   3.198   0.203
11544WAT     H234875   2.627   3.064   0.133
11545WAT      O34876   6.473   5.736   4.591
11545WAT     H134877   6.463   5.774   4.499
11545WAT     H234878   6.488   5.638   4.585
11546WAT      O34879   8.796   9.819   6.360
11546WAT     H134880   8.758   9.731   6.390
11546WAT     H234881   8.737   9.859   6.291
11547WAT      O34882   2.169   1.212   2.981
11547WAT     H134883   2.164   1.137   3.046
11547WAT     H234884   2.077   1.233   2.946
11548WAT      O34885   6.877   0.148   3.830
11548WAT     H134886   6.807   0.205   3.873
11548WAT     H234887   6.955   0.139   3.891
11549WAT      O34888   8.792   1.855   0.391
11549WAT     H134889   8.884   1.838   0.358
11549WAT     H234890   8.750   1.768   0.418
11550WAT      O34891   4.093   3.251   4.553
11550WAT     H134892   4.012   3.241   4.612
11550WAT     H234893   4.064   3.285   4.463
11551WAT      O34894   7.183   7.249   9.819
11551WAT     H134895   7.188   7.310   9.740
11551WAT     H234896   7.089   7.215   9.828
11552WAT      O34897   1.126   1.960   6.730
11552WAT     H134898   1.195   1.964   6.658
11552WAT     H234899   1.152   2.022   6.805
11553WAT      O34900   0.889   5.271   4.652
11553WAT     H134901   0.941   5.297   4.733
11553WAT     H234902   0.792   5.295   4.665
11554WAT      O34903   3.517   7.950   2.131
11554WAT     H134904   3.603   7.912   2.098
11554WAT     H234905   3.478   8.011   2.061
11555WAT      O34906   1.065   4.561   5.902
11555WAT     H134907   0.983   4.590   5.854
11555WAT     H234908   1.074   4.613   5.987
11556WAT      O34909   5.193   2.219   3.207
11556WAT     H134910   5.173   2.138   3.152
11556WAT     H234911   5.256   2.279   3.157
11557WAT      O34912   9.613   6.940   5.259
11557WAT     H134913   9.579   7.034   5.250
11557WAT     H234914   9.545   6.885   5.308
11558WAT      O34915   0.547   7.142   7.593
11558WAT     H134916   0.458   7.110   7.560
11558WAT     H234917   0.616   7.131   7.521
11559WAT      O34918   0.667   8.097   7.538
11559WAT     H134919   0.634   8.121   7.629
11559WAT     H234920   0.634   8.005   7.514
11560WAT      O34921   0.434   3.859   5.031
11560WAT     H134922   0.518   3.830   5.076
11560WAT     H234923   0.356   3.834   5.087
11561WAT      O34924   3.099   2.186   6.964
11561WAT     H134925   3.068   2.140   7.047
11561WAT     H234926   3.053   2.275   6.956
11562WAT      O34927   6.846   7.036   1.560
11562WAT     H134928   6.748   7.017   1.547
11562WAT     H234929   6.861   7.068   1.654
11563WAT      O34930   4.021   5.770   8.355
11563WAT     H134931   3.924   5.746   8.359
11563WAT     H234932   4.076   5.689   8.375
11564WAT      O34933   3.283   1.099   7.344
11564WAT     H134934   3.323   1.185   7.312
11564WAT     H234935   3.308   1.084   7.439
11565WAT      O34936   5.806   3.227   9.181
11565WAT     H134937   5.874   3.300   9.170
11565WAT     H234938   5.741   3.253   9.252
11566WAT      O34939   9.624   6.778   7.554
11566WAT     H134940   9.560   6.793   7.629
11566WAT     H234941   9.605   6.688   7.513
11567WAT      O34942   1.999   1.064   2.249
11567WAT     H134943   1.948   1.076   2.164
11567WAT     H234944   2.093   1.096   2.237
11568WAT      O34945   0.673   0.677   4.692
11568WAT     H134946   0.653   0.625   4.610
11568WAT     H234947   0.755   0.640   4.737
11569WAT      O34948   8.768   1.597   2.178
11569WAT     H134949   8.749   1.653   2.098
11569WAT     H234950   8.718   1.510   2.170
11570WAT      O34951   6.288   5.573   7.221
11570WAT     H134952   6.203   5.568   7.273
11570WAT     H234953   6.276   5.526   7.133
11571WAT      O34954   2.224   5.336   3.042
11571WAT     H134955   2.234   5.312   3.138
11571WAT     H234956   2.151   5.403   3.032
11572WAT      O34957   8.385   1.296   4.617
11572WAT     H134958   8.414   1.233   4.545
11572WAT     H234959   8.453   1.369   4.628
11573WAT      O34960   6.612   9.618   6.561
11573WAT     H134961   6.513   9.607   6.566
11573WAT     H234962   6.651   9.543   6.509
11574WAT      O34963   6.762   5.831   0.685
11574WAT     H134964   6.851   5.823   0.640
11574WAT     H234965   6.775   5.850   0.782
11575WAT      O34966   4.298   9.186   0.465
11575WAT     H134967   4.295   9.113   0.396
11575WAT     H234968   4.215   9.181   0.521
11576WAT      O34969   7.204   6.743   5.373
11576WAT     H134970   7.131   6.675   5.382
11576WAT     H234971   7.281   6.703   5.324
11577WAT      O34972   9.405   2.186   3.510
11577WAT     H134973   9.325   2.136   3.477
11577WAT     H234974   9.405   2.278   3.471
11578WAT      O34975   8.170   4.790   2.940
11578WAT     H134976   8.111   4.863   2.905
11578WAT     H234977   8.203   4.815   3.031
11579WAT      O34978   3.970   1.107   2.431
11579WAT     H134979   3.879   1.147   2.437
11579WAT     H234980   4.039   1.179   2.445
11580WAT      O34981   0.360   4.973   0.877
11580WAT     H134982   0.324   4.880   0.887
11580WAT     H234983   0.302   5.024   0.813
11581WAT      O34984   3.023   5.201   3.858
11581WAT     H134985   3.094   5.270   3.843
11581WAT     H234986   3.059   5.110   3.837
11582WAT      O34987   9.097   1.919   0.246
11582WAT     H134988   9.189   1.897   0.214
11582WAT     H234989   9.034   1.919   0.168
11583WAT      O34990   3.277   6.427   6.381
11583WAT     H134991   3.259   6.525   6.393
11583WAT     H234992   3.280   6.383   6.471
11584WAT      O34993   8.545   8.204   9.080
11584WAT     H134994   8.550   8.290   9.130
11584WAT     H234995   8.616   8.142   9.115
11585WAT      O34996   2.883   0.844   0.363
11585WAT     H134997   2.894   0.861   0.461
11585WAT     H234998   2.832   0.919   0.321
11586WAT      O34999   0.398   8.840   0.766
11586WAT     H135000   0.302   8.864   0.751
11586WAT     H235001   0.411   8.742   0.748
11587WAT      O35002   4.914   7.807   0.315
11587WAT     H135003   4.877   7.720   0.282
11587WAT     H235004   4.864   7.882   0.272
11588WAT      O35005   5.326   4.440   3.841
11588WAT     H135006   5.400   4.455   3.775
11588WAT     H235007   5.303   4.526   3.885
11589WAT      O35008   8.406   1.317   7.939
11589WAT     H135009   8.430   1.250   8.009
11589WAT     H235010   8.489   1.358   7.901
11590WAT      O35011   0.697   5.996   5.334
11590WAT     H135012   0.693   5.984   5.433
11590WAT     H235013   0.664   5.913   5.289
11591WAT      O35014   8.977   2.342   8.063
11591WAT     H135015   8.902   2.347   8.130
11591WAT     H235016   8.954   2.277   7.991
11592WAT      O35017   2.835   5.544   2.860
11592WAT     H135018   2.919   5.511   2.902
11592WAT     H235019   2.799   5.620   2.913
11593WAT      O35020   7.449   4.504   6.913
11593WAT     H135021   7.397   4.518   6.997
11593WAT     H235022   7.411   4.426   6.863
11594WAT      O35023   9.654   2.206   6.256
11594WAT     H135024   9.745   2.247   6.256
11594WAT     H235025   9.660   2.112   6.224
11595WAT      O35026   5.114   2.063   5.679
11595WAT     H135027   5.175   1.985   5.671
11595WAT     H235028   5.037   2.053   5.615
11596WAT      O35029   9.752   8.298   6.610
11596WAT     H135030   9.749   8.345   6.698
11596WAT     H235031   9.803   8.353   6.544
11597WAT      O35032   3.584   3.023   0.039
11597WAT     H135033   3.682   3.036   0.025
11597WAT     H235034   3.535   3.043  -0.046
11598WAT      O35035   7.033   5.088   8.504
11598WAT     H135036   7.061   4.998   8.535
11598WAT     H235037   7.112   5.150   8.504
11599WAT      O35038   3.989   5.922   7.255
11599WAT     H135039   4.031   5.952   7.170
11599WAT     H235040   3.891   5.905   7.240
11600WAT      O35041   9.255   6.915   7.749
11600WAT     H135042   9.177   6.902   7.687
11600WAT     H235043   9.330   6.959   7.699
11601WAT      O35044   6.323   1.241   0.181
11601WAT     H135045   6.223   1.250   0.177
11601WAT     H235046   6.348   1.163   0.238
11602WAT      O35047   8.837   8.406   7.069
11602WAT     H135048   8.750   8.364   7.044
11602WAT     H235049   8.905   8.334   7.084
11603WAT      O35050   6.571   2.362   5.485
11603WAT     H135051   6.578   2.308   5.401
11603WAT     H235052   6.479   2.402   5.491
11604WAT      O35053   5.248   1.176   7.800
11604WAT     H135054   5.345   1.194   7.820
11604WAT     H235055   5.242   1.120   7.717
11605WAT      O35056   3.281   6.790   9.254
11605WAT     H135057   3.322   6.791   9.346
11605WAT     H235058   3.213   6.716   9.250
11606WAT      O35059   1.354   6.611   7.331
11606WAT     H135060   1.379   6.662   7.248
11606WAT     H235061   1.417   6.634   7.404
11607WAT      O35062   8.137   0.082   1.960
11607WAT     H135063   8.177  -0.002   1.996
11607WAT     H235064   8.131   0.150   2.033
11608WAT      O35065   0.810   8.105   5.714
11608WAT     H135066   0.771   8.196   5.725
11608WAT     H235067   0.880   8.106   5.642
11609WAT      O35068   2.990   6.518   4.615
11609WAT     H135069   2.997   6.574   4.533
11609WAT     H235070   3.081   6.508   4.656
11610WAT      O35071   5.741   1.135   9.177
11610WAT     H135072   5.827   1.166   9.216
11610WAT     H235073   5.757   1.100   9.085
11611WAT      O35074   9.043   3.203   2.317
11611WAT     H135075   9.087   3.237   2.233
11611WAT     H235076   9.091   3.242   2.397
11612WAT      O35077   7.221   3.641   4.215
11612WAT     H135078   7.208   3.654   4.117
11612WAT     H235079   7.244   3.545   4.233
11613WAT      O35080   4.272   7.880   1.743
11613WAT     H135081   4.233   7.877   1.835
11613WAT     H235082   4.277   7.975   1.712
11614WAT      O35083   6.246   4.329   8.449
11614WAT     H135084   6.334   4.281   8.447
11614WAT     H235085   6.180   4.281   8.392
11615WAT      O35086   9.536   7.262   8.246
11615WAT     H135087   9.468   7.218   8.306
11615WAT     H235088   9.599   7.193   8.211
11616WAT      O35089   8.132   0.825   0.028
11616WAT     H135090   8.086   0.903   0.071
11616WAT     H235091   8.080   0.795  -0.051
11617WAT      O35092   8.450   0.504   2.817
11617WAT     H135093   8.527   0.443   2.830
11617WAT     H235094   8.484   0.596   2.795
11618WAT      O35095   2.422   2.706   2.446
11618WAT     H135096   2.393   2.802   2.444
11618WAT     H235097   2.447   2.677   2.354
11619WAT      O35098   8.800   4.252   3.633
11619WAT     H135099   8.767   4.303   3.712
11619WAT     H235100   8.791   4.154   3.650
11620WAT      O35101   8.138   5.704   2.274
11620WAT     H135102   8.066   5.708   2.343
11620WAT     H235103   8.210   5.769   2.298
11621WAT      O35104   0.245   3.153   4.573
11621WAT     H135105   0.271   3.068   4.528
11621WAT     H235106   0.327   3.206   4.595
11622WAT      O35107   6.055   8.330   9.090
11622WAT     H135108   5.998   8.249   9.100
11622WAT     H235109   6.135   8.308   9.035
11623WAT      O35110   8.938   1.580   5.748
11623WAT     H135111   8.887   1.566   5.833
11623WAT     H235112   9.024   1.627   5.767
11624WAT      O35113   3.754   9.221   6.225
11624WAT     H135114   3.704   9.139   6.254
11624WAT     H235115   3.693   9.299   6.223
11625WAT      O35116   2.854   5.323   0.345
11625WAT     H135117   2.891   5.416   0.340
11625WAT     H235118   2.772   5.323   0.402
11626WAT      O35119   9.479   1.268   0.343
11626WAT     H135120   9.532   1.328   0.282
11626WAT     H235121   9.425   1.205   0.288
11627WAT      O35122   4.508   9.624   6.455
11627WAT     H135123   4.479   9.598   6.547
11627WAT     H235124   4.429   9.624   6.393
11628WAT      O35125   3.880   9.776   2.519
11628WAT     H135126   3.969   9.755   2.560
11628WAT     H235127   3.867   9.875   2.515
11629WAT      O35128   2.221   2.119   6.475
11629WAT     H135129   2.287   2.139   6.547
11629WAT     H235130   2.261   2.057   6.408
11630WAT      O35131   1.330   6.786   6.774
11630WAT     H135132   1.406   6.766   6.837
11630WAT     H235133   1.302   6.701   6.729
11631WAT      O35134   3.780   2.050   3.708
11631WAT     H135135   3.695   2.102   3.701
11631WAT     H235136   3.790   2.014   3.800
11632WAT      O35137   1.504   7.725   9.420
11632WAT     H135138   1.405   7.716   9.428
11632WAT     H235139   1.531   7.820   9.437
11633WAT      O35140   8.185   5.953   6.117
11633WAT     H135141   8.118   5.893   6.075
11633WAT     H235142   8.148   6.046   6.124
11634WAT      O35143   4.500   0.725   1.602
11634WAT     H135144   4.426   0.746   1.665
11634WAT     H235145   4.499   0.628   1.579
11635WAT      O35146   8.344   7.989   4.576
11635WAT     H135147   8.348   8.012   4.479
11635WAT     H235148   8.434   7.956   4.606
11636WAT      O35149   9.311   0.439   9.697
11636WAT     H135150   9.288   0.530   9.662
11636WAT     H235151   9.407   0.419   9.676
11637WAT      O35152   1.918   7.027   1.587
11637WAT     H135153   1.925   7.094   1.513
11637WAT     H235154   1.922   6.935   1.548
11638WAT      O35155   6.185   4.795   8.799
11638WAT     H135156   6.256   4.798   8.729
11638WAT     H235157   6.150   4.702   8.808
11639WAT      O35158   3.032   0.104   1.928
11639WAT     H135159   3.015   0.010   1.900
11639WAT     H235160   3.082   0.152   1.855
11640WAT      O35161   1.172   2.353   5.029
11640WAT     H135162   1.178   2.390   4.937
11640WAT     H235163   1.076   2.336   5.052
11641WAT      O35164   2.169   0.822   1.942
11641WAT     H135165   2.076   0.853   1.921
11641WAT     H235166   2.202   0.763   1.868
11642WAT      O35167   8.802   4.557   5.294
11642WAT     H135168   8.780   4.645   5.253
11642WAT     H235169   8.722   4.521   5.342
11643WAT      O35170   3.358   7.273   5.285
11643WAT     H135171   3.363   7.370   5.311
11643WAT     H235172   3.265   7.252   5.255
11644WAT      O35173   7.680   2.410   2.203
11644WAT     H135174   7.775   2.379   2.205
11644WAT     H235175   7.655   2.431   2.108
11645WAT      O35176   8.807   3.928   8.947
11645WAT     H135177   8.724   3.984   8.936
11645WAT     H235178   8.858   3.927   8.862
11646WAT      O35179   6.871   0.587   7.786
11646WAT     H135180   6.945   0.521   7.801
11646WAT     H235181   6.784   0.538   7.784
11647WAT      O35182   9.725   6.427   5.361
11647WAT     H135183   9.814   6.388   5.383
11647WAT     H235184   9.687   6.380   5.282
11648WAT      O35185   1.581   1.484   9.161
11648WAT     H135186   1.605   1.392   9.189
11648WAT     H235187   1.481   1.496   9.167
11649WAT      O35188   1.720   8.200   3.889
11649WAT     H135189   1.801   8.141   3.889
11649WAT     H235190   1.640   8.145   3.865
11650WAT      O35191   9.693   4.769   1.565
11650WAT     H135192   9.763   4.837   1.543
11650WAT     H235193   9.711   4.732   1.656
11651WAT      O35194   1.403   7.535   3.295
11651WAT     H135195   1.379   7.473   3.370
11651WAT     H235196   1.411   7.482   3.210
11652WAT      O35197   3.488   9.148   1.050
11652WAT     H135198   3.584   9.120   1.057
11652WAT     H235199   3.433   9.093   1.113
11653WAT      O35200   4.008   0.844   7.999
11653WAT     H135201   4.104   0.827   7.973
11653WAT     H235202   3.960   0.885   7.922
11654WAT      O35203   5.999   5.264   3.364
11654WAT     H135204   5.916   5.215   3.334
11654WAT     H235205   5.986   5.298   3.457
11655WAT      O35206   0.692   0.948   7.112
11655WAT     H135207   0.777   0.910   7.076
11655WAT     H235208   0.712   1.005   7.192
11656WAT      O35209   9.835   5.646   7.568
11656WAT     H135210   9.805   5.701   7.490
11656WAT     H235211   9.760   5.589   7.600
11657WAT      O35212   9.009   3.014   4.117
11657WAT     H135213   9.032   3.036   4.022
11657WAT     H235214   8.956   3.090   4.156
11658WAT      O35215   8.077   9.583   1.281
11658WAT     H135216   8.069   9.508   1.347
11658WAT     H235217   7.997   9.581   1.221
11659WAT      O35218   7.948   3.070   2.522
11659WAT     H135219   7.977   3.114   2.607
11659WAT     H235220   8.017   3.005   2.492
11660WAT      O35221   5.691   3.094   9.631
11660WAT     H135222   5.690   3.146   9.716
11660WAT     H235223   5.760   3.023   9.636
11661WAT      O35224   4.546   6.114   3.325
11661WAT     H135225   4.577   6.154   3.411
11661WAT     H235226   4.523   6.187   3.261
11662WAT      O35227   9.677   4.586   2.870
11662WAT     H135228   9.774   4.567   2.856
11662WAT     H235229   9.663   4.621   2.963
11663WAT      O35230   1.349   9.666   0.466
11663WAT     H135231   1.342   9.569   0.439
11663WAT     H235232   1.413   9.675   0.541
11664WAT      O35233   5.702   7.899   4.848
11664WAT     H135234   5.670   7.940   4.763
11664WAT     H235235   5.759   7.965   4.898
11665WAT      O35236   6.913   2.548   0.720
11665WAT     H135237   6.832   2.600   0.746
11665WAT     H235238   6.917   2.463   0.772
11666WAT      O35239   8.731   0.781   8.766
11666WAT     H135240   8.775   0.762   8.678
11666WAT     H235241   8.634   0.757   8.761
11667WAT      O35242   0.007   8.007   4.799
11667WAT     H135243   0.017   7.957   4.885
11667WAT     H235244   0.036   8.102   4.812
11668WAT      O35245   7.605   1.108   2.704
11668WAT     H135246   7.599   1.086   2.606
11668WAT     H235247   7.515   1.094   2.746
11669WAT      O35248   7.915   0.419   9.518
11669WAT     H135249   8.005   0.458   9.536
11669WAT     H235250   7.915   0.322   9.542
11670WAT      O35251   2.339   4.052   3.408
11670WAT     H135252   2.356   3.965   3.455
11670WAT     H235253   2.305   4.034   3.316
11671WAT      O35254   7.235   6.375   7.549
11671WAT     H135255   7.293   6.344   7.473
11671WAT     H235256   7.213   6.472   7.537
11672WAT      O35257   2.026   1.322   6.514
11672WAT     H135258   2.099   1.276   6.563
11672WAT     H235259   2.052   1.334   6.418
11673WAT      O35260   8.903   8.981   2.883
11673WAT     H135261   8.895   9.068   2.931
11673WAT     H235262   8.974   8.926   2.927
11674WAT      O35263   1.470   6.377   7.812
11674WAT     H135264   1.400   6.308   7.830
11674WAT     H235265   1.504   6.366   7.718
11675WAT      O35266   8.082   7.508   1.645
11675WAT     H135267   8.018   7.575   1.682
11675WAT     H235268   8.133   7.548   1.569
11676WAT      O35269   2.257   8.596   5.384
11676WAT     H135270   2.291   8.585   5.291
11676WAT     H235271   2.326   8.643   5.439
11677WAT      O35272   8.335   1.740   3.357
11677WAT     H135273   8.396   1.665   3.380
11677WAT     H235274   8.247   1.703   3.325
11678WAT      O35275   0.048   5.893   5.822
11678WAT     H135276   0.110   5.899   5.901
11678WAT     H235277   0.020   5.798   5.808
11679WAT      O35278   5.299   2.437   4.456
11679WAT     H135279   5.258   2.414   4.368
11679WAT     H235280   5.338   2.354   4.497
11680WAT      O35281   9.327   4.418   2.851
11680WAT     H135282   9.282   4.508   2.854
11680WAT     H235283   9.374   4.401   2.937
11681WAT      O35284   0.012   6.757   2.070
11681WAT     H135285   0.093   6.716   2.112
11681WAT     H235286  -0.027   6.692   2.004
11682WAT      O35287   1.915   9.077   4.164
11682WAT     H135288   1.905   9.140   4.087
11682WAT     H235289   1.838   9.014   4.165
11683WAT      O35290   8.576   6.292   8.560
11683WAT     H135291   8.531   6.229   8.496
11683WAT     H235292   8.675   6.285   8.549
11684WAT      O35293   6.127   1.074   8.679
11684WAT     H135294   6.129   0.997   8.742
11684WAT     H235295   6.158   1.156   8.726
11685WAT      O35296   2.213   0.326   4.725
11685WAT     H135297   2.249   0.369   4.808
11685WAT     H235298   2.278   0.338   4.650
11686WAT      O35299   8.158   9.045   1.634
11686WAT     H135300   8.232   8.989   1.670
11686WAT     H235301   8.114   8.997   1.558
11687WAT      O35302   7.753   0.706   8.464
11687WAT     H135303   7.669   0.669   8.424
11687WAT     H235304   7.755   0.805   8.452
11688WAT      O35305   4.555   3.518   2.575
11688WAT     H135306   4.650   3.491   2.561
11688WAT     H235307   4.495   3.448   2.537
11689WAT      O35308   4.873   2.294   8.120
11689WAT     H135309   4.877   2.294   8.020
11689WAT     H235310   4.848   2.203   8.153
11690WAT      O35311   8.454   1.233   4.012
11690WAT     H135312   8.375   1.288   4.040
11690WAT     H235313   8.450   1.143   4.056
11691WAT      O35314   9.277   1.171   2.265
11691WAT     H135315   9.309   1.226   2.188
11691WAT     H235316   9.286   1.074   2.242
11692WAT      O35317   3.903   2.419   6.097
11692WAT     H135318   3.971   2.489   6.076
11692WAT     H235319   3.873   2.376   6.012
11693WAT      O35320   3.270   8.424   6.983
11693WAT     H135321   3.251   8.331   7.017
11693WAT     H235322   3.348   8.421   6.921
11694WAT      O35323   3.546   1.712   0.612
11694WAT     H135324   3.568   1.766   0.530
11694WAT     H235325   3.520   1.774   0.686
11695WAT      O35326   6.349   8.980   1.030
11695WAT     H135327   6.377   9.048   0.962
11695WAT     H235328   6.265   9.010   1.074
11696WAT      O35329   6.283   1.527   4.459
11696WAT     H135330   6.194   1.486   4.444
11696WAT     H235331   6.275   1.601   4.526
11697WAT      O35332   3.955   0.219   5.571
11697WAT     H135333   3.872   0.169   5.596
11697WAT     H235334   3.930   0.309   5.538
11698WAT      O35335   1.208   1.306   5.464
11698WAT     H135336   1.280   1.333   5.528
11698WAT     H235337   1.121   1.303   5.512
11699WAT      O35338   9.419   3.497   6.841
11699WAT     H135339   9.364   3.573   6.807
11699WAT     H235340   9.506   3.493   6.792
11700WAT      O35341   3.348   8.138   2.011
11700WAT     H135342   3.313   8.178   2.096
11700WAT     H235343   3.325   8.197   1.934
11701WAT      O35344   7.805   1.718   5.392
11701WAT     H135345   7.777   1.759   5.305
11701WAT     H235346   7.793   1.785   5.465
11702WAT      O35347   5.011   7.911   8.822
11702WAT     H135348   5.109   7.894   8.821
11702WAT     H235349   4.983   7.939   8.914
11703WAT      O35350   6.498   5.645   2.694
11703WAT     H135351   6.505   5.729   2.639
11703WAT     H235352   6.458   5.572   2.639
11704WAT      O35353   3.288   2.434   5.360
11704WAT     H135354   3.353   2.383   5.305
11704WAT     H235355   3.333   2.514   5.400
11705WAT      O35356   9.042   5.890   3.787
11705WAT     H135357   8.972   5.836   3.834
11705WAT     H235358   9.064   5.848   3.699
11706WAT      O35359   9.057   7.344   4.004
11706WAT     H135360   9.035   7.441   4.002
11706WAT     H235361   9.013   7.298   3.927
11707WAT      O35362   1.466   5.590   8.465
11707WAT     H135363   1.504   5.505   8.429
11707WAT     H235364   1.463   5.584   8.565
11708WAT      O35365   0.221   3.158   6.487
11708WAT     H135366   0.188   3.119   6.401
11708WAT     H235367   0.280   3.236   6.468
11709WAT      O35368   0.733   3.555   0.806
11709WAT     H135369   0.792   3.535   0.884
11709WAT     H235370   0.640   3.523   0.825
11710WAT      O35371   3.890   9.174   5.957
11710WAT     H135372   3.800   9.187   5.917
11710WAT     H235373   3.882   9.166   6.057
11711WAT      O35374   2.925   9.105   3.439
11711WAT     H135375   2.937   9.033   3.370
11711WAT     H235376   3.004   9.107   3.499
11712WAT      O35377   2.191   4.020   1.217
11712WAT     H135378   2.268   3.961   1.195
11712WAT     H235379   2.145   4.047   1.132
11713WAT      O35380   2.699   0.958   0.843
11713WAT     H135381   2.601   0.981   0.848
11713WAT     H235382   2.747   1.000   0.919
11714WAT      O35383   6.442   5.451   4.157
11714WAT     H135384   6.532   5.468   4.197
11714WAT     H235385   6.372   5.501   4.208
11715WAT      O35386   4.901   0.459   5.223
11715WAT     H135387   4.908   0.414   5.134
11715WAT     H235388   4.952   0.406   5.291
11716WAT      O35389   8.741   4.706   7.339
11716WAT     H135390   8.692   4.785   7.303
11716WAT     H235391   8.694   4.622   7.312
11717WAT      O35392   6.222   4.931   7.671
11717WAT     H135393   6.275   5.003   7.626
11717WAT     H235394   6.283   4.870   7.722
11718WAT      O35395   2.716   0.967   1.541
11718WAT     H135396   2.748   0.894   1.481
11718WAT     H235397   2.792   1.029   1.561
11719WAT      O35398   5.896   6.544   3.594
11719WAT     H135399   5.973   6.606   3.581
11719WAT     H235400   5.925   6.465   3.648
11720WAT      O35401   2.576   3.162   2.832
11720WAT     H135402   2.491   3.149   2.780
11720WAT     H235403   2.559   3.144   2.929
11721WAT      O35404   3.191   9.047   1.656
11721WAT     H135405   3.096   9.024   1.636
11721WAT     H235406   3.214   9.133   1.611
11722WAT      O35407   6.595   2.025   6.441
11722WAT     H135408   6.631   2.004   6.350
11722WAT     H235409   6.495   2.037   6.435
11723WAT      O35410   4.027   3.687   6.558
11723WAT     H135411   4.083   3.612   6.594
11723WAT     H235412   4.084   3.767   6.541
11724WAT      O35413   4.071   8.994   4.912
11724WAT     H135414   4.105   9.010   5.005
11724WAT     H235415   3.974   9.019   4.907
11725WAT      O35416   8.694   7.227   2.535
11725WAT     H135417   8.725   7.133   2.552
11725WAT     H235418   8.611   7.244   2.590
11726WAT      O35419   2.376   0.070   5.929
11726WAT     H135420   2.326   0.048   6.013
11726WAT     H235421   2.417   0.161   5.938
11727WAT      O35422   1.198   8.364   9.514
11727WAT     H135423   1.198   8.392   9.610
11727WAT     H235424   1.114   8.314   9.494
11728WAT      O35425   1.242   6.375   8.706
11728WAT     H135426   1.211   6.323   8.786
11728WAT     H235427   1.234   6.473   8.725
11729WAT      O35428   5.640   6.747   2.862
11729WAT     H135429   5.612   6.777   2.954
11729WAT     H235430   5.567   6.693   2.821
11730WAT      O35431   1.538   0.111   4.006
11730WAT     H135432   1.537   0.082   3.910
11730WAT     H235433   1.467   0.061   4.056
11731WAT      O35434   0.371   4.343   1.911
11731WAT     H135435   0.408   4.304   1.827
11731WAT     H235436   0.282   4.301   1.931
11732WAT      O35437   0.871   7.413   0.592
11732WAT     H135438   0.936   7.386   0.662
11732WAT     H235439   0.778   7.405   0.627
11733WAT      O35440   5.491   7.488   2.207
11733WAT     H135441   5.577   7.439   2.188
11733WAT     H235442   5.466   7.543   2.127
11734WAT      O35443   8.553   0.085   0.172
11734WAT     H135444   8.499   0.165   0.200
11734WAT     H235445   8.548   0.015   0.243
11735WAT      O35446   9.134   2.805   8.609
11735WAT     H135447   9.124   2.734   8.539
11735WAT     H235448   9.184   2.883   8.570
11736WAT      O35449   2.327   8.183   0.493
11736WAT     H135450   2.307   8.200   0.397
11736WAT     H235451   2.304   8.264   0.547
11737WAT      O35452   2.590   2.429   1.571
11737WAT     H135453   2.551   2.415   1.480
11737WAT     H235454   2.547   2.508   1.614
11738WAT      O35455   0.690   0.079   9.632
11738WAT     H135456   0.765   0.144   9.622
11738WAT     H235457   0.645   0.065   9.544
11739WAT      O35458   6.778   7.910   1.381
11739WAT     H135459   6.851   7.856   1.422
11739WAT     H235460   6.760   7.991   1.436
11740WAT      O35461   0.159   3.114   8.465
11740WAT     H135462   0.128   3.175   8.537
11740WAT     H235463   0.235   3.156   8.416
11741WAT      O35464   0.025   7.238   4.197
11741WAT     H135465   0.105   7.193   4.235
11741WAT     H235466   0.046   7.334   4.179
11742WAT      O35467   4.732   2.687   1.549
11742WAT     H135468   4.762   2.681   1.645
11742WAT     H235469   4.669   2.612   1.529
11743WAT      O35470   9.146   9.823   0.949
11743WAT     H135471   9.091   9.778   0.878
11743WAT     H235472   9.086   9.880   1.006
11744WAT      O35473   4.762   4.061   5.788
11744WAT     H135474   4.728   4.077   5.880
11744WAT     H235475   4.738   4.138   5.729
11745WAT      O35476   5.553   1.853   8.180
11745WAT     H135477   5.564   1.755   8.197
11745WAT     H235478   5.593   1.875   8.091
11746WAT      O35479   3.727   7.079   8.689
11746WAT     H135480   3.737   7.041   8.597
11746WAT     H235481   3.641   7.045   8.728
11747WAT      O35482   3.393   2.442   3.930
11747WAT     H135483   3.391   2.531   3.884
11747WAT     H235484   3.313   2.389   3.903
11748WAT      O35485   4.078   2.555   7.852
11748WAT     H135486   4.103   2.563   7.755
11748WAT     H235487   4.145   2.602   7.908
11749WAT      O35488   4.280   1.126   6.905
11749WAT     H135489   4.211   1.167   6.845
11749WAT     H235490   4.270   1.026   6.904
11750WAT      O35491   8.053   3.966   2.624
11750WAT     H135492   7.970   4.014   2.654
11750WAT     H235493   8.061   3.879   2.672
11751WAT      O35494   3.240   4.114   2.247
11751WAT     H135495   3.316   4.133   2.185
11751WAT     H235496   3.247   4.175   2.327
11752WAT      O35497   4.752   0.245   3.134
11752WAT     H135498   4.790   0.336   3.118
11752WAT     H235499   4.821   0.175   3.114
11753WAT      O35500   3.131   4.365   7.359
11753WAT     H135501   3.047   4.319   7.390
11753WAT     H235502   3.133   4.366   7.259
11754WAT      O35503   4.073   0.240   0.183
11754WAT     H135504   4.025   0.316   0.227
11754WAT     H235505   4.127   0.190   0.252
11755WAT      O35506   9.350   1.088   7.494
11755WAT     H135507   9.297   1.037   7.428
11755WAT     H235508   9.433   1.123   7.450
11756WAT      O35509   4.379   5.184   8.907
11756WAT     H135510   4.477   5.178   8.921
11756WAT     H235511   4.331   5.141   8.984
11757WAT      O35512   3.233   1.135   3.077
11757WAT     H135513   3.296   1.125   3.000
11757WAT     H235514   3.285   1.139   3.162
11758WAT      O35515   9.526   9.668   1.986
11758WAT     H135516   9.525   9.606   2.065
11758WAT     H235517   9.438   9.715   1.978
11759WAT      O35518   1.665   3.710   6.148
11759WAT     H135519   1.691   3.762   6.229
11759WAT     H235520   1.569   3.683   6.155
11760WAT      O35521   0.585   6.264   6.911
11760WAT     H135522   0.674   6.231   6.943
11760WAT     H235523   0.586   6.363   6.903
11761WAT      O35524   7.055   6.430   1.922
11761WAT     H135525   7.131   6.496   1.918
11761WAT     H235526   7.092   6.338   1.935
11762WAT      O35527   4.260   3.700   8.873
11762WAT     H135528   4.328   3.745   8.816
11762WAT     H235529   4.249   3.752   8.958
11763WAT      O35530   6.342   3.185   4.867
11763WAT     H135531   6.319   3.105   4.921
11763WAT     H235532   6.357   3.263   4.927
11764WAT      O35533   3.061   7.113   9.734
11764WAT     H135534   2.979   7.055   9.738
11764WAT     H235535   3.048   7.192   9.794
11765WAT      O35536   3.993   6.869   4.466
11765WAT     H135537   4.028   6.852   4.374
11765WAT     H235538   4.055   6.933   4.513
11766WAT      O35539   1.041   4.039   5.957
11766WAT     H135540   1.096   4.111   5.998
11766WAT     H235541   1.000   3.984   6.029
11767WAT      O35542   6.850   0.983   5.396
11767WAT     H135543   6.937   0.971   5.348
11767WAT     H235544   6.859   0.948   5.489
11768WAT      O35545   0.932   6.257   2.737
11768WAT     H135546   0.942   6.165   2.700
11768WAT     H235547   1.006   6.315   2.703
11769WAT      O35548   8.283   1.089   5.776
11769WAT     H135549   8.354   1.022   5.755
11769WAT     H235550   8.234   1.062   5.859
11770WAT      O35551   6.478   9.433   7.787
11770WAT     H135552   6.479   9.335   7.808
11770WAT     H235553   6.435   9.483   7.862
11771WAT      O35554   6.957   5.754   3.821
11771WAT     H135555   6.977   5.846   3.787
11771WAT     H235556   6.997   5.743   3.912
11772WAT      O35557   7.051   8.551   9.818
11772WAT     H135558   7.053   8.626   9.751
11772WAT     H235559   6.987   8.573   9.891
11773WAT      O35560   7.365   2.055   4.732
11773WAT     H135561   7.363   1.998   4.814
11773WAT     H235562   7.453   2.103   4.728
11774WAT      O35563   4.037   8.868   7.275
11774WAT     H135564   4.004   8.775   7.293
11774WAT     H235565   4.075   8.907   7.359
11775WAT      O35566   2.225   6.239   7.772
11775WAT     H135567   2.213   6.288   7.858
11775WAT     H235568   2.273   6.153   7.790
11776WAT      O35569   5.388   2.347   0.561
11776WAT     H135570   5.382   2.361   0.660
11776WAT     H235571   5.464   2.285   0.541
11777WAT      O35572   1.849   8.715   9.707
11777WAT     H135573   1.907   8.791   9.735
11777WAT     H235574   1.906   8.638   9.679
11778WAT      O35575   0.752   3.794   0.701
11778WAT     H135576   0.795   3.776   0.613
11778WAT     H235577   0.730   3.708   0.746
11779WAT      O35578   4.008   8.098   0.208
11779WAT     H135579   4.022   8.169   0.277
11779WAT     H235580   4.097   8.059   0.182
11780WAT      O35581   3.145   4.615   1.639
11780WAT     H135582   3.196   4.544   1.591
11780WAT     H235583   3.122   4.583   1.731
11781WAT      O35584   9.194   7.724   0.019
11781WAT     H135585   9.261   7.743  -0.053
11781WAT     H235586   9.159   7.810   0.056
11782WAT      O35587   5.356   3.882   9.773
11782WAT     H135588   5.325   3.798   9.818
11782WAT     H235589   5.452   3.874   9.750
11783WAT      O35590   4.929   2.508   0.617
11783WAT     H135591   4.940   2.419   0.573
11783WAT     H235592   5.020   2.544   0.640
11784WAT      O35593   4.265   8.137   9.747
11784WAT     H135594   4.290   8.042   9.730
11784WAT     H235595   4.165   8.143   9.757
11785WAT      O35596   5.129   2.368   5.311
11785WAT     H135597   5.210   2.323   5.274
11785WAT     H235598   5.113   2.454   5.262
11786WAT      O35599   6.253   0.927   2.630
11786WAT     H135600   6.308   0.914   2.713
11786WAT     H235601   6.300   0.886   2.552
11787WAT      O35602   5.782   1.583   6.625
11787WAT     H135603   5.781   1.586   6.525
11787WAT     H235604   5.692   1.553   6.658
11788WAT      O35605   6.062   8.324   5.617
11788WAT     H135606   6.019   8.345   5.705
11788WAT     H235607   6.157   8.300   5.630
11789WAT      O35608   2.400   3.501   7.797
11789WAT     H135609   2.369   3.421   7.745
11789WAT     H235610   2.351   3.505   7.884
11790WAT      O35611   2.700   4.754   3.416
11790WAT     H135612   2.741   4.707   3.338
11790WAT     H235613   2.700   4.693   3.496
11791WAT      O35614   2.978   7.316   9.160
11791WAT     H135615   2.993   7.221   9.133
11791WAT     H235616   2.936   7.319   9.250
11792WAT      O35617   1.380   7.703   3.580
11792WAT     H135618   1.316   7.727   3.507
11792WAT     H235619   1.347   7.622   3.628
11793WAT      O35620   4.489   9.030   2.268
11793WAT     H135621   4.553   8.997   2.198
11793WAT     H235622   4.494   9.130   2.272
11794WAT      O35623   3.864   7.931   8.847
11794WAT     H135624   3.844   8.009   8.788
11794WAT     H235625   3.933   7.873   8.803
11795WAT      O35626   5.439   4.076   6.287
11795WAT     H135627   5.524   4.037   6.321
11795WAT     H235628   5.361   4.034   6.335
11796WAT      O35629   4.350   6.069   8.319
11796WAT     H135630   4.350   6.110   8.410
11796WAT     H235631   4.439   6.026   8.302
11797WAT      O35632   3.187   9.725   3.394
11797WAT     H135633   3.099   9.693   3.429
11797WAT     H235634   3.239   9.768   3.468
11798WAT      O35635   8.552   5.472   9.079
11798WAT     H135636   8.633   5.419   9.055
11798WAT     H235637   8.568   5.520   9.166
11799WAT      O35638   3.765   8.632   9.607
11799WAT     H135639   3.802   8.724   9.610
11799WAT     H235640   3.772   8.596   9.514
11800WAT      O35641   4.460   3.815   8.470
11800WAT     H135642   4.444   3.800   8.568
11800WAT     H235643   4.539   3.875   8.458
11801WAT      O35644   2.017   2.357   6.775
11801WAT     H135645   1.973   2.281   6.821
11801WAT     H235646   1.972   2.443   6.801
11802WAT      O35647   0.144   4.326   9.376
11802WAT     H135648   0.175   4.404   9.431
11802WAT     H235649   0.211   4.309   9.303
11803WAT      O35650   4.018   1.217   8.642
11803WAT     H135651   4.026   1.204   8.543
11803WAT     H235652   4.088   1.283   8.672
11804WAT      O35653   9.491   9.601   4.663
11804WAT     H135654   9.588   9.581   4.656
11804WAT     H235655   9.478   9.688   4.710
11805WAT      O35656   5.540   0.008   4.636
11805WAT     H135657   5.568  -0.069   4.692
11805WAT     H235658   5.580   0.093   4.672
11806WAT      O35659   1.634   0.115   0.408
11806WAT     H135660   1.612   0.211   0.389
11806WAT     H235661   1.644   0.102   0.507
11807WAT      O35662   0.007   3.415   1.634
11807WAT     H135663   0.075   3.480   1.668
11807WAT     H235664  -0.074   3.465   1.602
11808WAT      O35665   0.024   5.851   0.555
11808WAT     H135666   0.005   5.844   0.457
11808WAT     H235667   0.091   5.782   0.581
11809WAT      O35668   5.506   8.756   4.632
11809WAT     H135669   5.496   8.725   4.537
11809WAT     H235670   5.584   8.710   4.673
11810WAT      O35671   6.698   8.698   2.361
11810WAT     H135672   6.665   8.738   2.446
11810WAT     H235673   6.759   8.621   2.382
11811WAT      O35674   5.969   5.343   1.890
11811WAT     H135675   5.997   5.247   1.896
11811WAT     H235676   5.877   5.353   1.928
11812WAT      O35677   6.550   4.074   3.758
11812WAT     H135678   6.509   4.131   3.830
11812WAT     H235679   6.552   3.979   3.788
11813WAT      O35680   4.655   8.247   7.974
11813WAT     H135681   4.754   8.234   7.970
11813WAT     H235682   4.617   8.250   7.882
11814WAT      O35683   2.163   7.224   8.715
11814WAT     H135684   2.250   7.184   8.688
11814WAT     H235685   2.105   7.234   8.634
11815WAT      O35686   1.108   4.672   8.281
11815WAT     H135687   1.066   4.762   8.274
11815WAT     H235688   1.159   4.652   8.197
11816WAT      O35689   5.970   4.973   9.543
11816WAT     H135690   5.926   5.004   9.627
11816WAT     H235691   5.988   4.875   9.548
11817WAT      O35692   7.014   5.993   3.669
11817WAT     H135693   7.112   5.972   3.670
11817WAT     H235694   7.002   6.093   3.664
11818WAT      O35695   5.108   7.475   4.754
11818WAT     H135696   5.012   7.446   4.751
11818WAT     H235697   5.133   7.499   4.848
11819WAT      O35698   7.312   6.865   9.754
11819WAT     H135699   7.213   6.867   9.743
11819WAT     H235700   7.335   6.843   9.848
11820WAT      O35701   0.642   1.484   3.470
11820WAT     H135702   0.738   1.463   3.489
11820WAT     H235703   0.633   1.512   3.374
11821WAT      O35704   2.824   1.353   2.565
11821WAT     H135705   2.729   1.333   2.588
11821WAT     H235706   2.883   1.282   2.602
11822WAT      O35707   9.579   1.861   2.817
11822WAT     H135708   9.519   1.839   2.739
11822WAT     H235709   9.672   1.830   2.797
11823WAT      O35710   9.755   4.673   0.692
11823WAT     H135711   9.690   4.627   0.632
11823WAT     H235712   9.833   4.612   0.710
11824WAT      O35713   0.789   9.749   5.430
11824WAT     H135714   0.788   9.649   5.425
11824WAT     H235715   0.864   9.784   5.375
11825WAT      O35716   7.079   2.064   0.413
11825WAT     H135717   7.151   2.053   0.345
11825WAT     H235718   7.065   2.161   0.431
11826WAT      O35719   9.390   4.762   6.169
11826WAT     H135720   9.295   4.744   6.195
11826WAT     H235721   9.400   4.857   6.139
11827WAT      O35722   7.328   0.552   0.350
11827WAT     H135723   7.414   0.532   0.303
11827WAT     H235724   7.263   0.477   0.335
11828WAT      O35725   2.167   2.679   7.911
11828WAT     H135726   2.085   2.651   7.862
11828WAT     H235727   2.205   2.761   7.868
11829WAT      O35728   3.528   2.338   7.743
11829WAT     H135729   3.579   2.256   7.769
11829WAT     H235730   3.431   2.315   7.735
11830WAT      O35731   9.045   1.721   2.952
11830WAT     H135732   9.023   1.624   2.944
11830WAT     H235733   8.964   1.771   2.981
11831WAT      O35734   9.464   1.223   2.695
11831WAT     H135735   9.469   1.123   2.702
11831WAT     H235736   9.467   1.249   2.598
11832WAT      O35737   7.813   9.095   5.232
11832WAT     H135738   7.739   9.125   5.293
11832WAT     H235739   7.776   9.078   5.140
11833WAT      O35740   1.947   3.877   7.867
11833WAT     H135741   1.919   3.781   7.868
11833WAT     H235742   1.893   3.927   7.800
11834WAT      O35743   0.320   3.924   3.554
11834WAT     H135744   0.283   3.919   3.462
11834WAT     H235745   0.291   3.843   3.606
11835WAT      O35746   2.655   3.877   6.324
11835WAT     H135747   2.659   3.891   6.225
11835WAT     H235748   2.718   3.941   6.368
11836WAT      O35749   7.061   1.634   5.467
11836WAT     H135750   7.007   1.551   5.453
11836WAT     H235751   7.154   1.609   5.493
11837WAT      O35752   8.170   7.416   0.807
11837WAT     H135753   8.099   7.364   0.759
11837WAT     H235754   8.246   7.355   0.830
11838WAT      O35755   0.267   7.003   8.435
11838WAT     H135756   0.243   6.930   8.499
11838WAT     H235757   0.282   6.963   8.344
11839WAT      O35758   8.658   9.612   2.192
11839WAT     H135759   8.721   9.576   2.124
11839WAT     H235760   8.565   9.614   2.155
11840WAT      O35761   8.890   6.475   8.814
11840WAT     H135762   8.879   6.570   8.841
11840WAT     H235763   8.861   6.415   8.889
11841WAT      O35764   6.652   3.962   2.530
11841WAT     H135765   6.694   4.021   2.599
11841WAT     H235766   6.681   3.867   2.546
11842WAT      O35767   9.669   4.651   8.166
11842WAT     H135768   9.638   4.726   8.108
11842WAT     H235769   9.741   4.600   8.118
11843WAT      O35770   0.557   7.752   7.156
11843WAT     H135771   0.641   7.807   7.164
11843WAT     H235772   0.562   7.675   7.219
11844WAT      O35773   2.261   9.667   5.218
11844WAT     H135774   2.330   9.596   5.223
11844WAT     H235775   2.238   9.698   5.311
11845WAT      O35776   9.829   5.730   9.771
11845WAT     H135777   9.876   5.738   9.683
11845WAT     H235778   9.897   5.731   9.844
11846WAT      O35779   5.385   3.148   6.964
11846WAT     H135780   5.308   3.185   6.912
11846WAT     H235781   5.351   3.100   7.044
11847WAT      O35782   6.309   5.008   2.143
11847WAT     H135783   6.362   4.979   2.064
11847WAT     H235784   6.310   4.936   2.213
11848WAT      O35785   7.957   4.340   4.766
11848WAT     H135786   8.033   4.404   4.755
11848WAT     H235787   7.975   4.282   4.846
11849WAT      O35788   4.598   9.014   6.960
11849WAT     H135789   4.512   9.005   7.010
11849WAT     H235790   4.588   8.974   6.868
11850WAT      O35791   0.380   9.324   3.787
11850WAT     H135792   0.421   9.375   3.711
11850WAT     H235793   0.421   9.353   3.873
11851WAT      O35794   4.211   3.262   1.423
11851WAT     H135795   4.252   3.173   1.439
11851WAT     H235796   4.258   3.307   1.347
11852WAT      O35797   6.278   5.699   8.325
11852WAT     H135798   6.357   5.759   8.338
11852WAT     H235799   6.303   5.605   8.346
11853WAT      O35800   8.548   0.673   0.334
11853WAT     H135801   8.596   0.754   0.300
11853WAT     H235802   8.546   0.603   0.263
11854WAT      O35803   9.473   7.698   6.641
11854WAT     H135804   9.488   7.610   6.686
11854WAT     H235805   9.530   7.768   6.684
11855WAT      O35806   9.079   1.736   6.160
11855WAT     H135807   9.048   1.799   6.231
11855WAT     H235808   9.052   1.771   6.071
11856WAT      O35809   1.788   2.275   4.203
11856WAT     H135810   1.859   2.210   4.176
11856WAT     H235811   1.734   2.301   4.123
11857WAT      O35812   7.067   2.486   6.584
11857WAT     H135813   7.130   2.408   6.583
11857WAT     H235814   7.093   2.550   6.512
11858WAT      O35815   9.338   9.104   1.827
11858WAT     H135816   9.357   9.120   1.923
11858WAT     H235817   9.288   9.018   1.817
11859WAT      O35818   7.641   6.658   8.419
11859WAT     H135819   7.549   6.641   8.384
11859WAT     H235820   7.646   6.752   8.454
11860WAT      O35821   9.586   9.625   7.142
11860WAT     H135822   9.684   9.623   7.165
11860WAT     H235823   9.536   9.671   7.216
11861WAT      O35824   9.785   7.364   8.418
11861WAT     H135825   9.735   7.313   8.349
11861WAT     H235826   9.874   7.321   8.434
11862WAT      O35827   4.515   2.522   3.079
11862WAT     H135828   4.497   2.499   3.175
11862WAT     H235829   4.602   2.571   3.073
11863WAT      O35830   8.241   0.555   8.973
11863WAT     H135831   8.276   0.558   9.067
11863WAT     H235832   8.170   0.624   8.961
11864WAT      O35833   7.087   4.755   7.037
11864WAT     H135834   6.994   4.726   7.015
11864WAT     H235835   7.126   4.806   6.961
11865WAT      O35836   1.801   2.867   8.346
11865WAT     H135837   1.755   2.852   8.259
11865WAT     H235838   1.894   2.901   8.330
11866WAT      O35839   8.682   9.360   6.982
11866WAT     H135840   8.779   9.373   6.963
11866WAT     H235841   8.661   9.392   7.075
11867WAT      O35842   9.653   3.541   1.661
11867WAT     H135843   9.616   3.633   1.680
11867WAT     H235844   9.605   3.502   1.583
11868WAT      O35845   7.949   1.231   9.811
11868WAT     H135846   7.919   1.294   9.740
11868WAT     H235847   7.998   1.154   9.770
11869WAT      O35848   0.875   7.019   0.243
11869WAT     H135849   0.867   7.103   0.297
11869WAT     H235850   0.785   6.996   0.206
11870WAT      O35851   3.965   0.685   1.089
11870WAT     H135852   3.874   0.725   1.079
11870WAT     H235853   4.004   0.671   0.998
11871WAT      O35854   8.182   6.803   5.207
11871WAT     H135855   8.144   6.894   5.226
11871WAT     H235856   8.275   6.814   5.170
11872WAT      O35857   6.021   1.800   8.435
11872WAT     H135858   6.019   1.711   8.481
11872WAT     H235859   5.928   1.836   8.428
11873WAT      O35860   1.198   5.195   6.610
11873WAT     H135861   1.161   5.112   6.567
11873WAT     H235862   1.270   5.171   6.674
11874WAT      O35863   0.652   2.826   3.974
11874WAT     H135864   0.697   2.908   3.940
11874WAT     H235865   0.656   2.754   3.904
11875WAT      O35866   1.092   5.693   0.452
11875WAT     H135867   1.064   5.762   0.386
11875WAT     H235868   1.022   5.686   0.524
11876WAT      O35869   3.581   7.716   4.018
11876WAT     H135870   3.619   7.809   4.016
11876WAT     H235871   3.491   7.716   3.975
11877WAT      O35872   9.587   4.555   6.893
11877WAT     H135873   9.582   4.613   6.811
11877WAT     H235874   9.602   4.460   6.866
11878WAT      O35875   9.294   3.210   4.579
11878WAT     H135876   9.278   3.111   4.575
11878WAT     H235877   9.392   3.227   4.581
11879WAT      O35878   2.553   4.509   9.183
11879WAT     H135879   2.572   4.411   9.175
11879WAT     H235880   2.524   4.529   9.277
11880WAT      O35881   6.927   4.126   0.174
11880WAT     H135882   6.917   4.189   0.252
11880WAT     H235883   6.838   4.115   0.129
11881WAT      O35884   7.285   6.255   4.805
11881WAT     H135885   7.201   6.302   4.778
11881WAT     H235886   7.349   6.320   4.844
11882WAT      O35887   6.235   4.658   4.029
11882WAT     H135888   6.255   4.754   4.005
11882WAT     H235889   6.180   4.655   4.112
11883WAT      O35890   0.540   9.509   8.420
11883WAT     H135891   0.576   9.583   8.362
11883WAT     H235892   0.501   9.438   8.363
11884WAT      O35893   8.419   1.056   6.376
11884WAT     H135894   8.382   1.148   6.372
11884WAT     H235895   8.409   1.012   6.287
11885WAT      O35896   7.461   6.837   9.409
11885WAT     H135897   7.497   6.887   9.488
11885WAT     H235898   7.528   6.840   9.334
11886WAT      O35899   0.769   8.904   9.745
11886WAT     H135900   0.851   8.847   9.748
11886WAT     H235901   0.787   8.986   9.691
11887WAT      O35902   2.337   7.806   0.284
11887WAT     H135903   2.256   7.754   0.310
11887WAT     H235904   2.309   7.891   0.238
11888WAT      O35905   9.120   6.854   3.434
11888WAT     H135906   9.182   6.776   3.428
11888WAT     H235907   9.030   6.824   3.465
11889WAT      O35908   1.685   4.398   8.772
11889WAT     H135909   1.653   4.492   8.781
11889WAT     H235910   1.766   4.384   8.830
11890WAT      O35911   4.340   1.002   9.745
11890WAT     H135912   4.351   1.090   9.700
11890WAT     H235913   4.262   0.953   9.706
11891WAT      O35914   8.486   9.557   8.711
11891WAT     H135915   8.482   9.470   8.662
11891WAT     H235916   8.580   9.590   8.712
11892WAT      O35917   0.017   8.954   7.901
11892WAT     H135918   0.015   9.039   7.954
11892WAT     H235919   0.015   8.876   7.964
11893WAT      O35920   5.804   5.520   7.258
11893WAT     H135921   5.822   5.468   7.174
11893WAT     H235922   5.710   5.554   7.256
11894WAT      O35923   5.423   4.780   7.148
11894WAT     H135924   5.355   4.828   7.204
11894WAT     H235925   5.466   4.845   7.086
11895WAT      O35926   8.605   3.043   1.675
11895WAT     H135927   8.679   3.110   1.677
11895WAT     H235928   8.597   3.000   1.765
11896WAT      O35929   5.293   7.963   1.092
11896WAT     H135930   5.242   7.882   1.062
11896WAT     H235931   5.247   8.005   1.171
11897WAT      O35932   1.992   8.125   3.891
11897WAT     H135933   1.955   8.089   3.976
11897WAT     H235934   2.015   8.050   3.830
11898WAT      O35935   8.165   9.251   2.345
11898WAT     H135936   8.091   9.302   2.301
11898WAT     H235937   8.227   9.215   2.275
11899WAT      O35938   9.411   0.402   8.633
11899WAT     H135939   9.375   0.316   8.599
11899WAT     H235940   9.393   0.475   8.567
11900WAT      O35941   6.673   4.522   2.899
11900WAT     H135942   6.625   4.596   2.945
11900WAT     H235943   6.750   4.559   2.847
11901WAT      O35944   8.812   3.015   9.364
11901WAT     H135945   8.745   3.076   9.406
11901WAT     H235946   8.894   3.010   9.421
11902WAT      O35947   0.634   7.937   5.821
11902WAT     H135948   0.601   7.961   5.913
11902WAT     H235949   0.713   7.992   5.798
11903WAT      O35950   1.880   5.196   3.466
11903WAT     H135951   1.930   5.114   3.437
11903WAT     H235952   1.911   5.275   3.413
11904WAT      O35953   9.411   2.015   3.731
11904WAT     H135954   9.397   2.057   3.820
11904WAT     H235955   9.416   2.086   3.661
11905WAT      O35956   8.591   5.802   7.756
11905WAT     H135957   8.675   5.773   7.710
11905WAT     H235958   8.512   5.786   7.696
11906WAT      O35959   5.181   6.971   9.392
11906WAT     H135960   5.249   7.029   9.347
11906WAT     H235961   5.209   6.875   9.385
11907WAT      O35962   6.335   1.399   1.525
11907WAT     H135963   6.382   1.416   1.438
11907WAT     H235964   6.388   1.440   1.600
11908WAT      O35965   0.438   2.223   4.528
11908WAT     H135966   0.507   2.165   4.485
11908WAT     H235967   0.347   2.183   4.514
11909WAT      O35968   0.655   5.476   0.455
11909WAT     H135969   0.681   5.538   0.530
11909WAT     H235970   0.730   5.411   0.438
11910WAT      O35971   7.940   3.772   6.985
11910WAT     H135972   8.008   3.843   7.001
11910WAT     H235973   7.975   3.707   6.916
11911WAT      O35974   4.704   4.226   6.900
11911WAT     H135975   4.681   4.321   6.921
11911WAT     H235976   4.627   4.182   6.854
11912WAT      O35977   8.155   9.644   2.069
11912WAT     H135978   8.153   9.548   2.040
11912WAT     H235979   8.067   9.668   2.109
11913WAT      O35980   8.244   7.678   0.100
11913WAT     H135981   8.306   7.641   0.170
11913WAT     H235982   8.282   7.763   0.063
11914WAT      O35983   8.605   4.128   3.079
11914WAT     H135984   8.665   4.198   3.118
11914WAT     H235985   8.561   4.077   3.153
11915WAT      O35986   6.750   4.756   1.478
11915WAT     H135987   6.657   4.754   1.514
11915WAT     H235988   6.802   4.828   1.524
11916WAT      O35989   9.214   1.229   8.922
11916WAT     H135990   9.250   1.157   8.981
11916WAT     H235991   9.185   1.306   8.978
11917WAT      O35992   2.722   9.738   0.888
11917WAT     H135993   2.671   9.662   0.927
11917WAT     H235994   2.662   9.793   0.830
11918WAT      O35995   8.744   7.145   7.393
11918WAT     H135996   8.823   7.186   7.348
11918WAT     H235997   8.688   7.216   7.436
11919WAT      O35998   2.838   8.936   6.397
11919WAT     H135999   2.820   8.934   6.298
11919WAT     H236000   2.752   8.932   6.447
11920WAT      O36001   1.165   2.858   3.876
11920WAT     H136002   1.095   2.788   3.861
11920WAT     H236003   1.138   2.914   3.954
11921WAT      O36004   8.841   6.244   5.293
11921WAT     H136005   8.912   6.312   5.275
11921WAT     H236006   8.862   6.160   5.243
11922WAT      O36007   2.779   4.630   8.173
11922WAT     H136008   2.718   4.620   8.094
11922WAT     H236009   2.755   4.563   8.243
11923WAT      O36010   8.319   9.148   2.131
11923WAT     H136011   8.380   9.223   2.104
11923WAT     H236012   8.345   9.064   2.083
11924WAT      O36013   6.082   2.715   1.914
11924WAT     H136014   6.107   2.808   1.938
11924WAT     H236015   6.030   2.715   1.828
11925WAT      O36016   8.656   3.847   5.528
11925WAT     H136017   8.755   3.849   5.541
11925WAT     H236018   8.619   3.760   5.563
11926WAT      O36019   8.452   0.009   8.096
11926WAT     H136020   8.365   0.055   8.078
11926WAT     H236021   8.462  -0.068   8.033
11927WAT      O36022   6.373   6.352   9.426
11927WAT     H136023   6.318   6.435   9.416
11927WAT     H236024   6.374   6.325   9.523
11928WAT      O36025   9.125   4.181   8.670
11928WAT     H136026   9.070   4.264   8.665
11928WAT     H236027   9.168   4.164   8.582
11929WAT      O36028   6.882   3.883   3.531
11929WAT     H136029   6.892   3.845   3.439
11929WAT     H236030   6.785   3.901   3.549
11930WAT      O36031   2.607   1.513   1.140
11930WAT     H136032   2.689   1.488   1.193
11930WAT     H236033   2.623   1.599   1.092
11931WAT      O36034   6.072   5.526   3.153
11931WAT     H136035   5.984   5.493   3.188
11931WAT     H236036   6.056   5.584   3.073
11932WAT      O36037   4.497   1.370   6.247
11932WAT     H136038   4.514   1.332   6.338
11932WAT     H236039   4.435   1.309   6.197
11933WAT      O36040   6.536   0.228   0.777
11933WAT     H136041   6.600   0.264   0.709
11933WAT     H236042   6.551   0.130   0.788
11934WAT      O36043   0.160   6.904   4.125
11934WAT     H136044   0.222   6.880   4.051
11934WAT     H236045   0.198   6.980   4.177
11935WAT      O36046   5.963   0.306   2.527
11935WAT     H136047   5.865   0.310   2.506
11935WAT     H236048   6.005   0.235   2.471
11936WAT      O36049   7.122   2.314   0.206
11936WAT     H136050   7.130   2.308   0.106
11936WAT     H236051   7.204   2.274   0.248
11937WAT      O36052   1.193   6.601   7.745
11937WAT     H136053   1.186   6.502   7.727
11937WAT     H236054   1.183   6.651   7.659
11938WAT      O36055   3.358   4.040   2.633
11938WAT     H136056   3.328   4.107   2.700
11938WAT     H236057   3.285   3.972   2.619
11939WAT      O36058   0.901   9.729   4.993
11939WAT     H136059   0.835   9.772   4.931
11939WAT     H236060   0.928   9.795   5.063
11940WAT      O36061   6.343   6.083   7.886
11940WAT     H136062   6.379   6.176   7.888
11940WAT     H236063   6.390   6.030   7.815
11941WAT      O36064   9.271   6.694   4.327
11941WAT     H136065   9.337   6.626   4.295
11941WAT     H236066   9.316   6.782   4.339
11942WAT      O36067   8.371   4.496   1.724
11942WAT     H136068   8.306   4.556   1.770
11942WAT     H236069   8.322   4.430   1.666
11943WAT      O36070   4.888   9.310   5.439
11943WAT     H136071   4.961   9.378   5.436
11943WAT     H236072   4.875   9.278   5.533
11944WAT      O36073   2.156   3.173   7.013
11944WAT     H136074   2.096   3.099   7.040
11944WAT     H236075   2.147   3.249   7.077
11945WAT      O36076   8.414   1.753   7.878
11945WAT     H136077   8.439   1.691   7.952
11945WAT     H236078   8.374   1.836   7.916
11946WAT      O36079   4.139   7.831   7.362
11946WAT     H136080   4.161   7.771   7.439
11946WAT     H236081   4.112   7.921   7.396
11947WAT      O36082   8.271   0.704   5.158
11947WAT     H136083   8.214   0.767   5.106
11947WAT     H236084   8.330   0.653   5.096
11948WAT      O36085   0.968   1.238   8.721
11948WAT     H136086   1.023   1.306   8.673
11948WAT     H236087   1.028   1.174   8.769
11949WAT      O36088   1.945   8.675   0.340
11949WAT     H136089   1.930   8.693   0.437
11949WAT     H236090   1.972   8.579   0.329
11950WAT      O36091   2.824   4.580   0.623
11950WAT     H136092   2.756   4.524   0.669
11950WAT     H236093   2.823   4.673   0.662
11951WAT      O36094   3.112   8.522   8.129
11951WAT     H136095   3.160   8.574   8.200
11951WAT     H236096   3.045   8.581   8.084
11952WAT      O36097   7.122   7.110   3.225
11952WAT     H136098   7.162   7.028   3.264
11952WAT     H236099   7.071   7.160   3.295
11953WAT      O36100   7.998   5.887   0.206
11953WAT     H136101   7.979   5.802   0.158
11953WAT     H236102   7.927   5.954   0.184
11954WAT      O36103   5.018   6.018   0.762
11954WAT     H136104   4.967   5.988   0.681
11954WAT     H236105   5.092   5.952   0.781
11955WAT      O36106   4.821   6.510   4.373
11955WAT     H136107   4.860   6.445   4.307
11955WAT     H236108   4.838   6.603   4.342
11956WAT      O36109   9.648   9.190   1.834
11956WAT     H136110   9.574   9.158   1.775
11956WAT     H236111   9.650   9.290   1.833
11957WAT      O36112   1.266   0.914   2.858
11957WAT     H136113   1.332   0.846   2.889
11957WAT     H236114   1.314   1.000   2.840
11958WAT      O36115   5.570   8.098   2.870
11958WAT     H136116   5.549   8.049   2.955
11958WAT     H236117   5.528   8.189   2.873
11959WAT      O36118   0.906   6.908   8.901
11959WAT     H136119   0.940   6.880   8.812
11959WAT     H236120   0.831   6.848   8.929
11960WAT      O36121   0.215   4.833   5.308
11960WAT     H136122   0.174   4.786   5.386
11960WAT     H236123   0.312   4.848   5.325
11961WAT      O36124   2.809   4.750   2.573
11961WAT     H136125   2.772   4.744   2.666
11961WAT     H236126   2.772   4.831   2.528
11962WAT      O36127   8.507   0.432   5.361
11962WAT     H136128   8.584   0.387   5.406
11962WAT     H236129   8.456   0.487   5.427
11963WAT      O36130   2.187   3.394   9.030
11963WAT     H136131   2.248   3.360   8.959
11963WAT     H236132   2.164   3.319   9.092
11964WAT      O36133   7.374   8.456   1.573
11964WAT     H136134   7.281   8.423   1.586
11964WAT     H236135   7.427   8.388   1.522
11965WAT      O36136   7.239   8.662   3.744
11965WAT     H136137   7.167   8.638   3.810
11965WAT     H236138   7.217   8.620   3.655
11966WAT      O36139   9.206   4.044   2.342
11966WAT     H136140   9.107   4.054   2.333
11966WAT     H236141   9.246   4.130   2.376
11967WAT      O36142   0.326   0.430   9.668
11967WAT     H136143   0.373   0.435   9.580
11967WAT     H236144   0.229   0.410   9.654
11968WAT      O36145   0.046   3.116   0.473
11968WAT     H136146   0.018   3.055   0.399
11968WAT     H236147   0.141   3.146   0.457
11969WAT      O36148   7.042   0.166   7.320
11969WAT     H136149   7.073   0.168   7.225
11969WAT     H236150   7.118   0.190   7.380
11970WAT      O36151   7.078   7.274   7.987
11970WAT     H136152   7.114   7.269   7.894
11970WAT     H236153   7.114   7.197   8.040
11971WAT      O36154   6.146   0.058   2.914
11971WAT     H136155   6.231   0.005   2.906
11971WAT     H236156   6.152   0.140   2.857
11972WAT      O36157   8.549   7.272   5.026
11972WAT     H136158   8.515   7.189   5.071
11972WAT     H236159   8.540   7.261   4.927
11973WAT      O36160   2.889   7.761   3.627
11973WAT     H136161   2.979   7.755   3.585
11973WAT     H236162   2.822   7.713   3.571
11974WAT      O36163   7.456   8.584   6.709
11974WAT     H136164   7.480   8.676   6.677
11974WAT     H236165   7.514   8.517   6.663
11975WAT      O36166   7.328   0.162   5.715
11975WAT     H136167   7.413   0.204   5.748
11975WAT     H236168   7.268   0.233   5.679
11976WAT      O36169   2.908   5.752   2.726
11976WAT     H136170   2.968   5.806   2.785
11976WAT     H236171   2.888   5.665   2.770
11977WAT      O36172   7.641   2.325   3.100
11977WAT     H136173   7.589   2.390   3.155
11977WAT     H236174   7.584   2.246   3.078
11978WAT      O36175   5.662   9.008   1.762
11978WAT     H136176   5.652   8.942   1.687
11978WAT     H236177   5.726   8.972   1.830
11979WAT      O36178   9.355   0.465   4.793
11979WAT     H136179   9.346   0.375   4.836
11979WAT     H236180   9.265   0.496   4.761
11980WAT      O36181   0.441   1.319   6.978
11980WAT     H136182   0.398   1.284   7.061
11980WAT     H236183   0.387   1.293   6.898
11981WAT      O36184   5.011   1.521   2.704
11981WAT     H136185   4.975   1.581   2.632
11981WAT     H236186   4.949   1.443   2.716
11982WAT      O36187   4.229   9.626   4.336
11982WAT     H136188   4.242   9.677   4.421
11982WAT     H236189   4.282   9.542   4.339
11983WAT      O36190   2.745   7.386   2.218
11983WAT     H136191   2.692   7.464   2.187
11983WAT     H236192   2.686   7.321   2.265
11984WAT      O36193   5.058   0.802   4.749
11984WAT     H136194   5.021   0.815   4.841
11984WAT     H236195   5.064   0.891   4.703
11985WAT      O36196   5.510   7.796   9.374
11985WAT     H136197   5.496   7.708   9.330
11985WAT     H236198   5.424   7.827   9.415
11986WAT      O36199   5.350   2.755   4.116
11986WAT     H136200   5.371   2.675   4.060
11986WAT     H236201   5.325   2.832   4.056
11987WAT      O36202   0.562   8.594   6.101
11987WAT     H136203   0.562   8.650   6.183
11987WAT     H236204   0.469   8.559   6.085
11988WAT      O36205   1.255   7.948   2.558
11988WAT     H136206   1.170   7.915   2.598
11988WAT     H236207   1.235   7.994   2.471
11989WAT      O36208   7.328   6.104   6.887
11989WAT     H136209   7.390   6.182   6.894
11989WAT     H236210   7.241   6.133   6.848
11990WAT      O36211   8.563   8.877   9.225
11990WAT     H136212   8.561   8.779   9.244
11990WAT     H236213   8.646   8.917   9.263
11991WAT      O36214   5.309   0.108   8.221
11991WAT     H136215   5.266   0.125   8.309
11991WAT     H236216   5.405   0.134   8.225
11992WAT      O36217   0.121   2.900   4.924
11992WAT     H136218   0.145   2.818   4.976
11992WAT     H236219   0.162   2.895   4.833
11993WAT      O36220   6.531   5.839   8.318
11993WAT     H136221   6.607   5.774   8.313
11993WAT     H236222   6.530   5.882   8.408
11994WAT      O36223   5.002   8.334   7.701
11994WAT     H136224   5.069   8.358   7.631
11994WAT     H236225   4.989   8.235   7.702
11995WAT      O36226   9.848   4.360   6.885
11995WAT     H136227   9.878   4.306   6.964
11995WAT     H236228   9.875   4.455   6.897
11996WAT      O36229   5.511   4.360   7.180
11996WAT     H136230   5.524   4.437   7.117
11996WAT     H236231   5.481   4.395   7.269
11997WAT      O36232   0.488   0.149   5.454
11997WAT     H136233   0.517   0.053   5.452
11997WAT     H236234   0.466   0.179   5.362
11998WAT      O36235   8.428   2.962   6.497
11998WAT     H136236   8.334   2.928   6.508
11998WAT     H236237   8.464   2.991   6.585
11999WAT      O36238   6.552   1.616   3.859
11999WAT     H136239   6.614   1.611   3.937
11999WAT     H236240   6.591   1.566   3.782
12000WAT      O36241   7.203   4.444   6.019
12000WAT     H136242   7.225   4.534   5.981
12000WAT     H236243   7.248   4.432   6.107
12001WAT      O36244   0.231   5.676   0.814
12001WAT     H136245   0.186   5.635   0.735
12001WAT     H236246   0.324   5.704   0.788
12002WAT      O36247   6.218   2.867   8.099
12002WAT     H136248   6.275   2.850   8.179
12002WAT     H236249   6.272   2.858   8.016
12003WAT      O36250   7.723   3.440   9.102
12003WAT     H136251   7.813   3.429   9.061
12003WAT     H236252   7.722   3.397   9.192
12004WAT      O36253   1.578   2.603   5.030
12004WAT     H136254   1.508   2.672   5.043
12004WAT     H236255   1.552   2.519   5.079
12005WAT      O36256   0.062   7.506   6.694
12005WAT     H136257   0.058   7.465   6.603
12005WAT     H236258   0.128   7.581   6.694
12006WAT      O36259   2.799   1.768   2.941
12006WAT     H136260   2.770   1.834   2.872
12006WAT     H236261   2.759   1.792   3.030
12007WAT      O36262   2.343   1.960   9.103
12007WAT     H136263   2.270   1.968   9.035
12007WAT     H236264   2.349   1.865   9.134
12008WAT      O36265   6.779   9.361   2.273
12008WAT     H136266   6.780   9.459   2.256
12008WAT     H236267   6.810   9.312   2.191
12009WAT      O36268   1.836   5.294   7.603
12009WAT     H136269   1.875   5.211   7.644
12009WAT     H236270   1.796   5.351   7.675
12010WAT      O36271   1.198   3.638   2.849
12010WAT     H136272   1.112   3.591   2.831
12010WAT     H236273   1.182   3.736   2.857
12011WAT      O36274   8.328   2.545   3.980
12011WAT     H136275   8.342   2.465   4.038
12011WAT     H236276   8.375   2.624   4.018
12012WAT      O36277   4.838   0.689   2.586
12012WAT     H136278   4.875   0.772   2.629
12012WAT     H236279   4.844   0.698   2.487
12013WAT      O36280   3.054   8.767   4.822
12013WAT     H136281   2.985   8.755   4.750
12013WAT     H236282   3.042   8.697   4.892
12014WAT      O36283   4.650   4.698   2.293
12014WAT     H136284   4.594   4.737   2.220
12014WAT     H236285   4.673   4.603   2.270
12015WAT      O36286   9.675   3.167   3.632
12015WAT     H136287   9.680   3.255   3.678
12015WAT     H236288   9.681   3.180   3.533
12016WAT      O36289   0.520   8.156   2.906
12016WAT     H136290   0.500   8.091   2.980
12016WAT     H236291   0.463   8.237   2.917
12017WAT      O36292   8.518   4.479   1.466
12017WAT     H136293   8.490   4.492   1.561
12017WAT     H236294   8.502   4.563   1.415
12018WAT      O36295   1.439   3.487   3.884
12018WAT     H136296   1.362   3.433   3.918
12018WAT     H236297   1.517   3.427   3.869
12019WAT      O36298   7.983   1.475   5.670
12019WAT     H136299   8.009   1.517   5.583
12019WAT     H236300   8.064   1.458   5.725
12020WAT      O36301   6.497   0.338   7.459
12020WAT     H136302   6.424   0.359   7.394
12020WAT     H236303   6.496   0.240   7.479
12021WAT      O36304   9.821   8.677   5.152
12021WAT     H136305   9.883   8.755   5.156
12021WAT     H236306   9.846   8.618   5.075
12022WAT      O36307   9.786   7.192   0.248
12022WAT     H136308   9.764   7.157   0.339
12022WAT     H236309   9.844   7.126   0.200
12023WAT      O36310   5.620   2.799   8.514
12023WAT     H136311   5.708   2.763   8.545
12023WAT     H236312   5.559   2.723   8.491
12024WAT      O36313   6.500   9.536   6.991
12024WAT     H136314   6.407   9.573   6.992
12024WAT     H236315   6.562   9.606   6.954
12025WAT      O36316   3.507   6.697   8.259
12025WAT     H136317   3.440   6.753   8.308
12025WAT     H236318   3.465   6.610   8.236
12026WAT      O36319   6.618   5.504   4.881
12026WAT     H136320   6.591   5.444   4.956
12026WAT     H236321   6.552   5.579   4.872
12027WAT      O36322   3.134   1.239   2.160
12027WAT     H136323   3.052   1.283   2.197
12027WAT     H236324   3.175   1.298   2.091
12028WAT      O36325   8.851   8.335   6.457
12028WAT     H136326   8.926   8.390   6.421
12028WAT     H236327   8.836   8.256   6.397
12029WAT      O36328   6.793   4.309   9.814
12029WAT     H136329   6.865   4.281   9.751
12029WAT     H236330   6.740   4.228   9.841
12030WAT      O36331   0.861   3.304   4.542
12030WAT     H136332   0.874   3.394   4.499
12030WAT     H236333   0.911   3.301   4.628
12031WAT      O36334   2.917   1.440   3.230
12031WAT     H136335   2.837   1.399   3.187
12031WAT     H236336   2.894   1.530   3.266
12032WAT      O36337   4.344   9.678   6.927
12032WAT     H136338   4.378   9.731   7.004
12032WAT     H236339   4.333   9.582   6.955
12033WAT      O36340   3.185   3.820   7.536
12033WAT     H136341   3.087   3.841   7.534
12033WAT     H236342   3.229   3.870   7.610
12034WAT      O36343   6.533   1.962   5.608
12034WAT     H136344   6.606   1.988   5.672
12034WAT     H236345   6.515   1.864   5.618
12035WAT      O36346   7.333   4.855   6.475
12035WAT     H136347   7.355   4.809   6.388
12035WAT     H236348   7.377   4.945   6.477
12036WAT      O36349   2.775   7.136   4.908
12036WAT     H136350   2.836   7.057   4.902
12036WAT     H236351   2.829   7.220   4.905
12037WAT      O36352   5.650   7.429   2.898
12037WAT     H136353   5.598   7.480   2.967
12037WAT     H236354   5.604   7.343   2.878
12038WAT      O36355   0.437   5.593   8.658
12038WAT     H136356   0.493   5.620   8.580
12038WAT     H236357   0.382   5.513   8.633
12039WAT      O36358   6.269   2.357   1.088
12039WAT     H136359   6.331   2.433   1.064
12039WAT     H236360   6.187   2.363   1.031
12040WAT      O36361   7.821   0.137   5.414
12040WAT     H136362   7.778   0.206   5.472
12040WAT     H236363   7.751   0.084   5.367
12041WAT      O36364   9.266   0.331   5.068
12041WAT     H136365   9.305   0.239   5.074
12041WAT     H236366   9.187   0.331   5.008
12042WAT      O36367   7.480   0.884   9.501
12042WAT     H136368   7.543   0.860   9.574
12042WAT     H236369   7.388   0.896   9.538
12043WAT      O36370   3.466   5.127   0.756
12043WAT     H136371   3.495   5.034   0.778
12043WAT     H236372   3.405   5.125   0.676
12044WAT      O36373   6.651   8.829   3.342
12044WAT     H136374   6.642   8.876   3.429
12044WAT     H236375   6.562   8.795   3.312
12045WAT      O36376   0.306   6.546   8.918
12045WAT     H136377   0.392   6.519   8.874
12045WAT     H236378   0.244   6.583   8.848
12046WAT      O36379   5.413   2.214   6.972
12046WAT     H136380   5.400   2.263   6.886
12046WAT     H236381   5.477   2.265   7.030
12047WAT      O36382   3.136   8.726   9.738
12047WAT     H136383   3.088   8.750   9.822
12047WAT     H236384   3.089   8.767   9.660
12048WAT      O36385   4.603   7.738   9.172
12048WAT     H136386   4.659   7.692   9.241
12048WAT     H236387   4.573   7.827   9.207
12049WAT      O36388   3.359   8.682   0.670
12049WAT     H136389   3.351   8.589   0.704
12049WAT     H236390   3.273   8.731   0.687
12050WAT      O36391   1.624   1.077   8.332
12050WAT     H136392   1.673   1.015   8.394
12050WAT     H236393   1.662   1.169   8.340
12051WAT      O36394   4.692   2.067   9.658
12051WAT     H136395   4.624   2.047   9.588
12051WAT     H236396   4.677   2.007   9.737
12052WAT      O36397   4.478   2.819   8.701
12052WAT     H136398   4.542   2.748   8.669
12052WAT     H236399   4.510   2.908   8.671
12053WAT      O36400   9.782   9.398   2.026
12053WAT     H136401   9.701   9.395   2.083
12053WAT     H236402   9.827   9.308   2.026
12054WAT      O36403   0.497   4.558   3.403
12054WAT     H136404   0.558   4.479   3.397
12054WAT     H236405   0.487   4.586   3.499
12055WAT      O36406   5.650   2.663   2.281
12055WAT     H136407   5.579   2.682   2.213
12055WAT     H236408   5.740   2.687   2.243
12056WAT      O36409   3.972   9.525   1.497
12056WAT     H136410   3.962   9.439   1.546
12056WAT     H236411   3.999   9.508   1.403
12057WAT      O36412   7.883   1.377   2.125
12057WAT     H136413   7.852   1.348   2.216
12057WAT     H236414   7.833   1.327   2.055
12058WAT      O36415   4.488   4.345   7.569
12058WAT     H136416   4.402   4.396   7.566
12058WAT     H236417   4.482   4.267   7.508
12059WAT      O36418   5.925   6.126   8.754
12059WAT     H136419   5.875   6.144   8.669
12059WAT     H236420   5.928   6.028   8.772
12060WAT      O36421   2.173   2.490   6.601
12060WAT     H136422   2.093   2.524   6.551
12060WAT     H236423   2.143   2.428   6.673
12061WAT      O36424   2.969   9.787   6.430
12061WAT     H136425   2.971   9.887   6.435
12061WAT     H236426   2.947   9.759   6.336
12062WAT      O36427   5.264   9.579   1.667
12062WAT     H136428   5.334   9.617   1.607
12062WAT     H236429   5.262   9.480   1.658
12063WAT      O36430   5.392   5.856   9.117
12063WAT     H136431   5.380   5.947   9.157
12063WAT     H236432   5.309   5.802   9.131
12064WAT      O36433   0.127   5.093   8.037
12064WAT     H136434   0.163   5.010   8.080
12064WAT     H236435   0.051   5.128   8.091
12065WAT      O36436   0.700   6.922   5.176
12065WAT     H136437   0.629   6.965   5.120
12065WAT     H236438   0.657   6.875   5.253
12066WAT      O36439   2.822   6.923   7.996
12066WAT     H136440   2.785   7.003   8.044
12066WAT     H236441   2.831   6.847   8.060
12067WAT      O36442   0.293   7.875   8.840
12067WAT     H136443   0.257   7.960   8.800
12067WAT     H236444   0.359   7.835   8.777
12068WAT      O36445   7.384   5.949   0.375
12068WAT     H136446   7.412   6.021   0.312
12068WAT     H236447   7.337   5.877   0.324
12069WAT      O36448   4.198   2.530   8.993
12069WAT     H136449   4.188   2.529   9.092
12069WAT     H236450   4.260   2.603   8.966
12070WAT      O36451   1.187   7.701   5.460
12070WAT     H136452   1.088   7.694   5.452
12070WAT     H236453   1.211   7.783   5.512
12071WAT      O36454   1.709   0.599   2.073
12071WAT     H136455   1.672   0.576   1.983
12071WAT     H236456   1.702   0.519   2.133
12072WAT      O36457   2.261   8.787   4.766
12072WAT     H136458   2.356   8.778   4.736
12072WAT     H236459   2.222   8.696   4.780
12073WAT      O36460   6.875   1.850   4.945
12073WAT     H136461   6.787   1.857   4.899
12073WAT     H236462   6.861   1.823   5.040
12074WAT      O36463   3.831   0.754   7.732
12074WAT     H136464   3.755   0.735   7.670
12074WAT     H236465   3.855   0.671   7.782
12075WAT      O36466   7.793   5.457   2.770
12075WAT     H136467   7.764   5.463   2.675
12075WAT     H236468   7.875   5.400   2.777
12076WAT      O36469   3.685   8.085   1.012
12076WAT     H136470   3.709   8.033   1.094
12076WAT     H236471   3.629   8.164   1.038
12077WAT      O36472   0.590   5.342   2.444
12077WAT     H136473   0.639   5.257   2.460
12077WAT     H236474   0.515   5.326   2.379
12078WAT      O36475   8.413   2.698   3.298
12078WAT     H136476   8.399   2.602   3.320
12078WAT     H236477   8.498   2.730   3.340
12079WAT      O36478   0.020   9.237   8.873
12079WAT     H136479   0.084   9.186   8.816
12079WAT     H236480  -0.070   9.195   8.868
12080WAT      O36481   4.516   8.683   7.373
12080WAT     H136482   4.434   8.740   7.368
12080WAT     H236483   4.577   8.717   7.445
12081WAT      O36484   8.630   8.736   4.532
12081WAT     H136485   8.705   8.674   4.509
12081WAT     H236486   8.589   8.771   4.448
12082WAT      O36487   7.872   2.594   5.388
12082WAT     H136488   7.894   2.518   5.328
12082WAT     H236489   7.860   2.678   5.335
12083WAT      O36490   3.628   4.964   9.540
12083WAT     H136491   3.531   4.949   9.559
12083WAT     H236492   3.662   5.037   9.598
12084WAT      O36493   9.252   1.463   1.003
12084WAT     H136494   9.307   1.382   0.983
12084WAT     H236495   9.312   1.541   1.019
12085WAT      O36496   0.994   0.976   2.867
12085WAT     H136497   0.942   0.891   2.867
12085WAT     H236498   1.089   0.956   2.842
12086WAT      O36499   3.603   9.311   3.279
12086WAT     H136500   3.684   9.314   3.339
12086WAT     H236501   3.557   9.400   3.282
12087WAT      O36502   1.290   3.799   7.272
12087WAT     H136503   1.353   3.726   7.300
12087WAT     H236504   1.203   3.788   7.321
12088WAT      O36505   7.327   3.045   8.876
12088WAT     H136506   7.425   3.035   8.891
12088WAT     H236507   7.307   3.139   8.851
12089WAT      O36508   9.093   0.106   1.311
12089WAT     H136509   9.121   0.155   1.393
12089WAT     H236510   9.156   0.031   1.294
12090WAT      O36511   9.010   7.921   4.839
12090WAT     H136512   8.980   7.992   4.903
12090WAT     H236513   8.948   7.843   4.845
12091WAT      O36514   5.571   4.271   8.173
12091WAT     H136515   5.567   4.204   8.248
12091WAT     H236516   5.659   4.262   8.126
12092WAT      O36517   3.085   5.455   2.314
12092WAT     H136518   3.044   5.521   2.377
12092WAT     H236519   3.183   5.447   2.333
12093WAT      O36520   1.540   9.553   1.258
12093WAT     H136521   1.469   9.608   1.303
12093WAT     H236522   1.598   9.512   1.328
12094WAT      O36523   3.622   7.692   2.997
12094WAT     H136524   3.567   7.738   3.068
12094WAT     H236525   3.715   7.678   3.031
12095WAT      O36526   8.378   8.587   6.413
12095WAT     H136527   8.310   8.556   6.346
12095WAT     H236528   8.457   8.526   6.411
12096WAT      O36529   1.640   2.388   7.830
12096WAT     H136530   1.680   2.446   7.901
12096WAT     H236531   1.595   2.310   7.873
12097WAT      O36532   2.162   2.808   9.607
12097WAT     H136533   2.147   2.905   9.626
12097WAT     H236534   2.259   2.793   9.588
12098WAT      O36535   7.729   3.164   4.078
12098WAT     H136536   7.781   3.080   4.088
12098WAT     H236537   7.672   3.158   3.996
12099WAT      O36538   0.674   8.744   4.012
12099WAT     H136539   0.726   8.658   4.013
12099WAT     H236540   0.682   8.786   3.921
12100WAT      O36541   6.932   0.577   6.601
12100WAT     H136542   6.990   0.550   6.524
12100WAT     H236543   6.877   0.657   6.574
12101WAT      O36544   2.236   6.719   2.486
12101WAT     H136545   2.203   6.631   2.452
12101WAT     H236546   2.334   6.728   2.468
12102WAT      O36547   8.561   8.386   7.611
12102WAT     H136548   8.532   8.311   7.670
12102WAT     H236549   8.543   8.473   7.656
12103WAT      O36550   5.899   0.104   8.585
12103WAT     H136551   5.882   0.149   8.498
12103WAT     H236552   5.974   0.038   8.574
12104WAT      O36553   6.352   8.145   9.246
12104WAT     H136554   6.313   8.133   9.154
12104WAT     H236555   6.396   8.060   9.275
12105WAT      O36556   0.185   6.703   9.811
12105WAT     H136557   0.154   6.614   9.777
12105WAT     H236558   0.125   6.775   9.776
12106WAT      O36559   7.778   1.341   1.068
12106WAT     H136560   7.783   1.241   1.067
12106WAT     H236561   7.697   1.371   1.017
12107WAT      O36562   1.956   8.777   7.709
12107WAT     H136563   2.016   8.838   7.762
12107WAT     H236564   1.979   8.786   7.612
12108WAT      O36565   2.182   3.674   4.659
12108WAT     H136566   2.243   3.702   4.733
12108WAT     H236567   2.184   3.743   4.586
12109WAT      O36568   6.751   6.851   6.309
12109WAT     H136569   6.803   6.857   6.395
12109WAT     H236570   6.725   6.756   6.293
12110WAT      O36571   6.667   6.167   9.803
12110WAT     H136572   6.626   6.146   9.891
12110WAT     H236573   6.606   6.137   9.730
12111WAT      O36574   2.423   8.892   1.204
12111WAT     H136575   2.384   8.865   1.116
12111WAT     H236576   2.381   8.979   1.233
12112WAT      O36577   4.958   5.032   8.248
12112WAT     H136578   4.878   4.988   8.207
12112WAT     H236579   4.931   5.121   8.285
12113WAT      O36580   7.771   5.936   3.675
12113WAT     H136581   7.826   5.984   3.743
12113WAT     H236582   7.677   5.929   3.707
12114WAT      O36583   9.597   4.697   6.608
12114WAT     H136584   9.545   4.783   6.618
12114WAT     H236585   9.573   4.654   6.521
12115WAT      O36586   1.709   3.631   1.922
12115WAT     H136587   1.609   3.622   1.923
12115WAT     H236588   1.740   3.648   1.829
12116WAT      O36589   5.917   7.700   8.492
12116WAT     H136590   5.925   7.606   8.525
12116WAT     H236591   5.955   7.763   8.560
12117WAT      O36592   7.605   7.814   7.140
12117WAT     H136593   7.534   7.873   7.177
12117WAT     H236594   7.564   7.747   7.078
12118WAT      O36595   5.492   7.325   5.788
12118WAT     H136596   5.430   7.302   5.712
12118WAT     H236597   5.579   7.277   5.775
12119WAT      O36598   6.419   1.384   5.156
12119WAT     H136599   6.498   1.394   5.217
12119WAT     H236600   6.417   1.290   5.121
12120WAT      O36601   5.551   2.759   2.730
12120WAT     H136602   5.573   2.699   2.653
12120WAT     H236603   5.636   2.792   2.771
12121WAT      O36604   8.865   7.290   0.666
12121WAT     H136605   8.938   7.233   0.704
12121WAT     H236606   8.817   7.337   0.741
12122WAT      O36607   7.076   2.431   9.557
12122WAT     H136608   7.073   2.531   9.563
12122WAT     H236609   7.084   2.403   9.462
12123WAT      O36610   4.029   2.612   5.009
12123WAT     H136611   3.980   2.648   4.929
12123WAT     H236612   4.032   2.512   5.004
12124WAT      O36613   8.432   5.478   4.725
12124WAT     H136614   8.443   5.379   4.722
12124WAT     H236615   8.373   5.503   4.802
12125WAT      O36616   0.411   0.158   6.650
12125WAT     H136617   0.408   0.210   6.565
12125WAT     H236618   0.319   0.124   6.672
12126WAT      O36619   3.058   1.787   7.882
12126WAT     H136620   3.029   1.821   7.792
12126WAT     H236621   2.978   1.756   7.934
12127WAT      O36622   2.197   7.084   7.717
12127WAT     H136623   2.163   7.004   7.764
12127WAT     H236624   2.167   7.083   7.622
12128WAT      O36625   6.884   6.921   8.701
12128WAT     H136626   6.927   6.869   8.628
12128WAT     H236627   6.854   7.010   8.666
12129WAT      O36628   9.074   3.568   2.048
12129WAT     H136629   9.023   3.634   1.993
12129WAT     H236630   9.064   3.591   2.145
12130WAT      O36631   5.119   9.406   2.610
12130WAT     H136632   5.038   9.415   2.552
12130WAT     H236633   5.102   9.335   2.679
12131WAT      O36634   6.523   6.958   2.457
12131WAT     H136635   6.521   6.861   2.434
12131WAT     H236636   6.493   7.012   2.379
12132WAT      O36637   1.004   2.216   7.671
12132WAT     H136638   0.935   2.269   7.622
12132WAT     H236639   1.050   2.154   7.607
12133WAT      O36640   9.204   1.920   0.884
12133WAT     H136641   9.148   1.838   0.895
12133WAT     H236642   9.144   1.999   0.873
12134WAT      O36643   9.039   8.250   6.684
12134WAT     H136644   8.968   8.254   6.613
12134WAT     H236645   9.123   8.211   6.645
12135WAT      O36646   8.820   7.505   8.523
12135WAT     H136647   8.836   7.574   8.594
12135WAT     H236648   8.878   7.425   8.541
12136WAT      O36649   8.193   7.035   2.756
12136WAT     H136650   8.131   7.043   2.678
12136WAT     H236651   8.278   6.991   2.726
12137WAT      O36652   7.765   2.106   6.738
12137WAT     H136653   7.690   2.043   6.721
12137WAT     H236654   7.844   2.079   6.683
12138WAT      O36655   1.429   7.221   7.644
12138WAT     H136656   1.407   7.249   7.550
12138WAT     H236657   1.477   7.133   7.642
12139WAT      O36658   0.264   1.137   6.782
12139WAT     H136659   0.259   1.059   6.844
12139WAT     H236660   0.176   1.185   6.781
12140WAT      O36661   1.657   4.542   7.404
12140WAT     H136662   1.590   4.475   7.375
12140WAT     H236663   1.704   4.508   7.486
12141WAT      O36664   0.200   9.012   5.358
12141WAT     H136665   0.177   9.109   5.369
12141WAT     H236666   0.133   8.957   5.408
12142WAT      O36667   1.553   0.996   5.747
12142WAT     H136668   1.573   1.059   5.822
12142WAT     H236669   1.522   1.048   5.668
12143WAT      O36670   4.740   0.421   5.748
12143WAT     H136671   4.739   0.374   5.659
12143WAT     H236672   4.782   0.511   5.738
12144WAT      O36673   3.633   8.331   0.755
12144WAT     H136674   3.717   8.293   0.717
12144WAT     H236675   3.648   8.359   0.850
12145WAT      O36676   7.554   5.112   3.446
12145WAT     H136677   7.614   5.106   3.525
12145WAT     H236678   7.589   5.053   3.373
12146WAT      O36679   6.555   8.510   8.271
12146WAT     H136680   6.498   8.568   8.212
12146WAT     H236681   6.562   8.419   8.232
12147WAT      O36682   3.322   8.140   3.429
12147WAT     H136683   3.314   8.045   3.398
12147WAT     H236684   3.345   8.142   3.526
12148WAT      O36685   1.224   2.786   7.611
12148WAT     H136686   1.250   2.729   7.689
12148WAT     H236687   1.300   2.789   7.546
12149WAT      O36688   8.743   2.487   4.740
12149WAT     H136689   8.734   2.580   4.774
12149WAT     H236690   8.701   2.423   4.805
12150WAT      O36691   3.181   0.630   4.214
12150WAT     H136692   3.207   0.726   4.222
12150WAT     H236693   3.257   0.578   4.173
12151WAT      O36694   3.868   8.796   7.687
12151WAT     H136695   3.801   8.760   7.622
12151WAT     H236696   3.844   8.890   7.711
12152WAT      O36697   1.876   5.766   8.288
12152WAT     H136698   1.909   5.718   8.369
12152WAT     H236699   1.797   5.717   8.250
12153WAT      O36700   9.255   1.061   4.408
12153WAT     H136701   9.352   1.064   4.384
12153WAT     H236702   9.218   0.971   4.384
12154WAT      O36703   0.515   9.705   7.822
12154WAT     H136704   0.502   9.739   7.916
12154WAT     H236705   0.474   9.770   7.758
12155WAT      O36706   7.699   5.961   8.216
12155WAT     H136707   7.606   5.969   8.181
12155WAT     H236708   7.750   5.895   8.160
12156WAT      O36709   1.550   6.902   1.439
12156WAT     H136710   1.520   6.932   1.529
12156WAT     H236711   1.619   6.830   1.448
12157WAT      O36712   2.957   5.357   0.846
12157WAT     H136713   3.025   5.358   0.919
12157WAT     H236714   2.997   5.314   0.764
12158WAT      O36715   0.966   2.705   6.016
12158WAT     H136716   0.972   2.709   5.916
12158WAT     H236717   0.985   2.795   6.054
12159WAT      O36718   9.235   6.252   0.918
12159WAT     H136719   9.261   6.346   0.940
12159WAT     H236720   9.144   6.233   0.953
12160WAT      O36721   5.623   9.607   4.741
12160WAT     H136722   5.646   9.521   4.697
12160WAT     H236723   5.637   9.598   4.840
12161WAT      O36724   2.357   3.219   8.060
12161WAT     H136725   2.322   3.308   8.031
12161WAT     H236726   2.375   3.163   7.979
12162WAT      O36727   5.064   5.674   1.229
12162WAT     H136728   5.087   5.641   1.321
12162WAT     H236729   4.966   5.695   1.226
12163WAT      O36730   5.079   6.189   4.552
12163WAT     H136731   5.002   6.252   4.560
12163WAT     H236732   5.145   6.225   4.487
12164WAT      O36733   1.003   0.136   0.058
12164WAT     H136734   1.081   0.173   0.006
12164WAT     H236735   1.036   0.075   0.130
12165WAT      O36736   2.018   8.116   9.820
12165WAT     H136737   2.115   8.106   9.798
12165WAT     H236738   1.963   8.072   9.749
12166WAT      O36739   7.817   1.544   7.406
12166WAT     H136740   7.746   1.515   7.342
12166WAT     H236741   7.852   1.464   7.455
12167WAT      O36742   7.318   6.538   3.587
12167WAT     H136743   7.227   6.531   3.547
12167WAT     H236744   7.351   6.447   3.612
12168WAT      O36745   7.808   8.662   9.840
12168WAT     H136746   7.818   8.761   9.831
12168WAT     H236747   7.733   8.631   9.781
12169WAT      O36748   1.601   4.237   1.712
12169WAT     H136749   1.613   4.187   1.798
12169WAT     H236750   1.517   4.291   1.716
12170WAT      O36751   1.352   4.789   6.648
12170WAT     H136752   1.257   4.756   6.650
12170WAT     H236753   1.361   4.868   6.708
12171WAT      O36754   7.575   3.580   2.413
12171WAT     H136755   7.609   3.674   2.419
12171WAT     H236756   7.643   3.523   2.366
12172WAT      O36757   8.604   6.448   0.741
12172WAT     H136758   8.543   6.448   0.662
12172WAT     H236759   8.550   6.453   0.825
12173WAT      O36760   1.877   8.287   7.417
12173WAT     H136761   1.862   8.291   7.318
12173WAT     H236762   1.970   8.254   7.436
12174WAT      O36763   6.590   4.561   1.358
12174WAT     H136764   6.655   4.633   1.383
12174WAT     H236765   6.511   4.603   1.313
12175WAT      O36766   3.310   5.579   8.878
12175WAT     H136767   3.360   5.502   8.839
12175WAT     H236768   3.218   5.549   8.906
12176WAT      O36769   4.997   3.959   8.087
12176WAT     H136770   5.016   3.889   8.156
12176WAT     H236771   4.993   4.049   8.132
12177WAT      O36772   5.483   6.434   9.763
12177WAT     H136773   5.485   6.361   9.694
12177WAT     H236774   5.396   6.483   9.758
12178WAT      O36775   7.753   2.190   8.889
12178WAT     H136776   7.810   2.261   8.846
12178WAT     H236777   7.801   2.155   8.969
12179WAT      O36778   8.606   4.185   6.606
12179WAT     H136779   8.661   4.264   6.633
12179WAT     H236780   8.663   4.119   6.558
12180WAT      O36781   6.346   7.079   6.911
12180WAT     H136782   6.359   7.170   6.952
12180WAT     H236783   6.286   7.087   6.831
12181WAT      O36784   7.519   5.970   3.782
12181WAT     H136785   7.455   5.924   3.844
12181WAT     H236786   7.501   6.068   3.782
12182WAT      O36787   8.418   4.080   8.612
12182WAT     H136788   8.429   4.166   8.660
12182WAT     H236789   8.471   4.009   8.657
12183WAT      O36790   1.187   3.249   6.183
12183WAT     H136791   1.249   3.305   6.128
12183WAT     H236792   1.240   3.191   6.245
12184WAT      O36793   8.093   6.110   3.516
12184WAT     H136794   8.190   6.095   3.534
12184WAT     H236795   8.077   6.206   3.493
12185WAT      O36796   1.438   9.295   7.111
12185WAT     H136797   1.423   9.377   7.166
12185WAT     H236798   1.536   9.278   7.101
12186WAT      O36799   3.024   7.283   0.840
12186WAT     H136800   2.958   7.354   0.865
12186WAT     H236801   3.076   7.256   0.921
12187WAT      O36802   0.651   8.226   1.608
12187WAT     H136803   0.729   8.187   1.658
12187WAT     H236804   0.681   8.251   1.515
12188WAT      O36805   7.543   3.701   0.331
12188WAT     H136806   7.530   3.641   0.410
12188WAT     H236807   7.454   3.734   0.299
12189WAT      O36808   0.218   1.269   3.108
12189WAT     H136809   0.302   1.246   3.060
12189WAT     H236810   0.238   1.334   3.181
12190WAT      O36811   9.240   2.791   8.905
12190WAT     H136812   9.212   2.793   8.809
12190WAT     H236813   9.165   2.825   8.962
12191WAT      O36814   5.352   0.252   0.083
12191WAT     H136815   5.329   0.181   0.016
12191WAT     H236816   5.394   0.329   0.036
12192WAT      O36817   2.851   9.093   7.320
12192WAT     H136818   2.798   9.143   7.251
12192WAT     H236819   2.948   9.103   7.301
12193WAT      O36820   1.157   2.421   0.780
12193WAT     H136821   1.196   2.506   0.747
12193WAT     H236822   1.173   2.412   0.879
12194WAT      O36823   4.878   5.305   7.709
12194WAT     H136824   4.815   5.277   7.781
12194WAT     H236825   4.958   5.350   7.751
12195WAT      O36826   5.291   0.241   7.114
12195WAT     H136827   5.251   0.302   7.045
12195WAT     H236828   5.336   0.295   7.185
12196WAT      O36829   2.820   4.338   5.096
12196WAT     H136830   2.858   4.249   5.070
12196WAT     H236831   2.891   4.408   5.092
12197WAT      O36832   7.058   7.060   0.962
12197WAT     H136833   6.968   7.057   1.006
12197WAT     H236834   7.071   6.977   0.908
12198WAT      O36835   4.135   4.572   4.022
12198WAT     H136836   4.219   4.584   4.075
12198WAT     H236837   4.100   4.661   3.993
12199WAT      O36838   9.459   2.639   9.834
12199WAT     H136839   9.487   2.615   9.741
12199WAT     H236840   9.510   2.583   9.899
12200WAT      O36841   7.361   3.416   2.291
12200WAT     H136842   7.366   3.374   2.201
12200WAT     H236843   7.425   3.493   2.296
12201WAT      O36844   4.517   8.329   6.724
12201WAT     H136845   4.603   8.287   6.752
12201WAT     H236846   4.527   8.429   6.725
12202WAT      O36847   7.138   4.030   4.879
12202WAT     H136848   7.189   3.945   4.875
12202WAT     H236849   7.121   4.063   4.786
12203WAT      O36850   4.442   7.074   1.787
12203WAT     H136851   4.536   7.108   1.795
12203WAT     H236852   4.426   7.005   1.859
12204WAT      O36853   2.925   6.974   5.422
12204WAT     H136854   2.927   6.986   5.521
12204WAT     H236855   2.837   6.935   5.395
12205WAT      O36856   8.217   1.581   1.218
12205WAT     H136857   8.118   1.569   1.220
12205WAT     H236858   8.239   1.678   1.226
12206WAT      O36859   8.134   9.722   3.761
12206WAT     H136860   8.131   9.813   3.803
12206WAT     H236861   8.094   9.655   3.823
12207WAT      O36862   8.517   8.913   3.838
12207WAT     H136863   8.436   8.970   3.823
12207WAT     H236864   8.598   8.963   3.807
12208WAT      O36865   3.841   0.363   3.172
12208WAT     H136866   3.751   0.406   3.172
12208WAT     H236867   3.837   0.278   3.224
12209WAT      O36868   6.258   7.530   4.731
12209WAT     H136869   6.278   7.571   4.820
12209WAT     H236870   6.344   7.513   4.682
12210WAT      O36871   5.968   0.866   4.703
12210WAT     H136872   5.870   0.880   4.716
12210WAT     H236873   6.001   0.928   4.631
12211WAT      O36874   0.593   3.956   9.876
12211WAT     H136875   0.534   4.016   9.823
12211WAT     H236876   0.544   3.924   9.958
12212WAT      O36877   5.950   6.696   9.078
12212WAT     H136878   5.924   6.680   8.982
12212WAT     H236879   6.026   6.637   9.103
12213WAT      O36880   9.375   6.982   9.699
12213WAT     H136881   9.430   6.941   9.772
12213WAT     H236882   9.380   6.924   9.618
12214WAT      O36883   7.399   2.884   4.428
12214WAT     H136884   7.460   2.922   4.359
12214WAT     H236885   7.304   2.906   4.405
12215WAT      O36886   6.370   8.779   0.102
12215WAT     H136887   6.298   8.718   0.068
12215WAT     H236888   6.437   8.795   0.030
12216WAT      O36889   6.143   3.785   9.574
12216WAT     H136890   6.089   3.719   9.626
12216WAT     H236891   6.083   3.833   9.509
12217WAT      O36892   1.195   2.036   9.599
12217WAT     H136893   1.123   1.973   9.627
12217WAT     H236894   1.284   1.993   9.612
12218WAT      O36895   5.913   6.931   0.065
12218WAT     H136896   5.864   6.996   0.123
12218WAT     H236897   5.931   6.972  -0.024
12219WAT      O36898   5.133   5.691   9.866
12219WAT     H136899   5.065   5.743   9.815
12219WAT     H236900   5.216   5.745   9.875
12220WAT      O36901   4.569   3.806   2.300
12220WAT     H136902   4.511   3.808   2.382
12220WAT     H236903   4.623   3.889   2.294
12221WAT      O36904   0.996   5.596   1.660
12221WAT     H136905   1.015   5.525   1.728
12221WAT     H236906   0.899   5.593   1.635
12222WAT      O36907   1.935   6.139   2.926
12222WAT     H136908   2.001   6.190   2.871
12222WAT     H236909   1.922   6.048   2.886
12223WAT      O36910   5.646   0.858   5.226
12223WAT     H136911   5.587   0.841   5.147
12223WAT     H236912   5.597   0.914   5.293
12224WAT      O36913   8.624   3.345   8.164
12224WAT     H136914   8.608   3.416   8.232
12224WAT     H236915   8.578   3.369   8.078
12225WAT      O36916   5.897   0.035   1.078
12225WAT     H136917   5.967  -0.003   1.018
12225WAT     H236918   5.821  -0.029   1.086
12226WAT      O36919   1.359   5.199   0.720
12226WAT     H136920   1.269   5.238   0.700
12226WAT     H236921   1.428   5.243   0.664
12227WAT      O36922   5.173   1.455   9.490
12227WAT     H136923   5.118   1.422   9.413
12227WAT     H236924   5.172   1.555   9.492
12228WAT      O36925   4.450   2.352   3.304
12228WAT     H136926   4.406   2.426   3.355
12228WAT     H236927   4.489   2.286   3.368
12229WAT      O36928   2.673   1.975   6.114
12229WAT     H136929   2.631   2.021   6.036
12229WAT     H236930   2.762   2.017   6.134
12230WAT      O36931   6.266   6.737   5.669
12230WAT     H136932   6.285   6.773   5.578
12230WAT     H236933   6.170   6.755   5.692
12231WAT      O36934   9.040   0.968   5.406
12231WAT     H136935   9.033   0.912   5.323
12231WAT     H236936   8.986   1.051   5.395
12232WAT      O36937   1.495   8.247   6.527
12232WAT     H136938   1.486   8.323   6.462
12232WAT     H236939   1.509   8.162   6.477
12233WAT      O36940   1.815   1.467   9.763
12233WAT     H136941   1.823   1.451   9.862
12233WAT     H236942   1.718   1.483   9.740
12234WAT      O36943   9.739   0.889   0.021
12234WAT     H136944   9.788   0.838  -0.051
12234WAT     H236945   9.681   0.826   0.072
12235WAT      O36946   9.545   8.639   9.680
12235WAT     H136947   9.454   8.672   9.703
12235WAT     H236948   9.558   8.642   9.581
12236WAT      O36949   7.456   5.905   6.751
12236WAT     H136950   7.400   5.966   6.807
12236WAT     H236951   7.424   5.810   6.762
12237WAT      O36952   9.206   5.209   0.347
12237WAT     H136953   9.268   5.220   0.425
12237WAT     H236954   9.163   5.119   0.351
12238WAT      O36955   1.024   8.806   7.607
12238WAT     H136956   1.032   8.707   7.619
12238WAT     H236957   0.994   8.847   7.693
12239WAT      O36958   1.921   5.790   6.125
12239WAT     H136959   1.951   5.885   6.125
12239WAT     H236960   1.889   5.766   6.034
12240WAT      O36961   3.777   7.098   3.343
12240WAT     H136962   3.872   7.077   3.320
12240WAT     H236963   3.748   7.180   3.293
12241WAT      O36964   2.526   3.287   5.233
12241WAT     H136965   2.498   3.300   5.328
12241WAT     H236966   2.447   3.261   5.178
12242WAT      O36967   8.488   1.203   2.977
12242WAT     H136968   8.457   1.118   3.019
12242WAT     H236969   8.420   1.235   2.912
12243WAT      O36970   2.987   9.334   5.791
12243WAT     H136971   3.072   9.291   5.823
12243WAT     H236972   3.005   9.430   5.768
12244WAT      O36973   0.327   5.703   6.876
12244WAT     H136974   0.386   5.644   6.821
12244WAT     H236975   0.312   5.789   6.828
12245WAT      O36976   3.953   7.206   2.692
12245WAT     H136977   3.921   7.292   2.731
12245WAT     H236978   3.924   7.130   2.750
12246WAT      O36979   1.824   3.483   3.544
12246WAT     H136980   1.730   3.471   3.575
12246WAT     H236981   1.881   3.409   3.579
12247WAT      O36982   2.943   0.342   4.615
12247WAT     H136983   2.956   0.430   4.660
12247WAT     H236984   2.984   0.343   4.524
12248WAT      O36985   3.382   6.869   2.056
12248WAT     H136986   3.417   6.963   2.049
12248WAT     H236987   3.412   6.828   2.143
12249WAT      O36988   6.046   1.393   4.401
12249WAT     H136989   6.016   1.341   4.322
12249WAT     H236990   5.973   1.394   4.470
12250WAT      O36991   3.617   9.158   7.641
12250WAT     H136992   3.611   9.257   7.631
12250WAT     H236993   3.710   9.134   7.669
12251WAT      O36994   9.855   6.547   1.727
12251WAT     H136995   9.820   6.526   1.819
12251WAT     H236996   9.947   6.584   1.735
12252WAT      O36997   0.501   4.927   3.082
12252WAT     H136998   0.502   4.827   3.086
12252WAT     H236999   0.414   4.961   3.115
12253WAT      O37000   8.983   1.082   2.913
12253WAT     H137001   8.919   1.140   2.963
12253WAT     H237002   9.055   1.139   2.874
12254WAT      O37003   3.805   9.511   8.356
12254WAT     H137004   3.768   9.555   8.438
12254WAT     H237005   3.795   9.572   8.277
12255WAT      O37006   8.120   1.905   7.806
12255WAT     H137007   8.065   1.833   7.848
12255WAT     H237008   8.080   1.930   7.718
12256WAT      O37009   5.403   1.722   7.235
12256WAT     H137010   5.355   1.699   7.150
12256WAT     H237011   5.390   1.820   7.255
12257WAT      O37012   5.237   7.187   1.406
12257WAT     H137013   5.274   7.242   1.331
12257WAT     H237014   5.139   7.204   1.414
12258WAT      O37015   1.453   5.838   0.273
12258WAT     H137016   1.457   5.920   0.216
12258WAT     H237017   1.494   5.762   0.224
12259WAT      O37018   8.914   5.814   9.385
12259WAT     H137019   8.871   5.727   9.362
12259WAT     H237020   8.965   5.804   9.471
12260WAT      O37021   5.222   3.416   0.554
12260WAT     H137022   5.183   3.381   0.639
12260WAT     H237023   5.183   3.366   0.477
12261WAT      O37024   2.400   7.880   8.073
12261WAT     H137025   2.475   7.814   8.079
12261WAT     H237026   2.407   7.931   7.988
12262WAT      O37027   5.851   1.273   6.613
12262WAT     H137028   5.916   1.249   6.540
12262WAT     H237029   5.759   1.244   6.585
12263WAT      O37030   2.554   2.883   9.323
12263WAT     H137031   2.610   2.961   9.293
12263WAT     H237032   2.572   2.805   9.263
12264WAT      O37033   2.723   1.797   5.824
12264WAT     H137034   2.804   1.760   5.870
12264WAT     H237035   2.655   1.724   5.814
12265WAT      O37036   7.950   5.003   9.216
12265WAT     H137037   7.916   4.909   9.210
12265WAT     H237038   7.997   5.017   9.302
12266WAT      O37039   7.816   0.703   3.926
12266WAT     H137040   7.860   0.668   4.009
12266WAT     H237041   7.853   0.794   3.904
12267WAT      O37042   1.675   5.786   3.962
12267WAT     H137043   1.585   5.749   3.985
12267WAT     H237044   1.669   5.886   3.956
12268WAT      O37045   9.622   1.439   7.665
12268WAT     H137046   9.667   1.498   7.599
12268WAT     H237047   9.605   1.489   7.749
12269WAT      O37048   8.868   3.603   2.795
12269WAT     H137049   8.807   3.566   2.865
12269WAT     H237050   8.866   3.703   2.799
12270WAT      O37051   3.518   1.220   6.432
12270WAT     H137052   3.436   1.275   6.449
12270WAT     H237053   3.491   1.127   6.405
12271WAT      O37054   5.195   0.026   5.925
12271WAT     H137055   5.290   0.039   5.895
12271WAT     H237056   5.190  -0.057   5.981
12272WAT      O37057   6.149   2.980   1.953
12272WAT     H137058   6.082   3.013   2.019
12272WAT     H237059   6.240   3.013   1.979
12273WAT      O37060   3.531   3.276   6.658
12273WAT     H137061   3.628   3.263   6.679
12273WAT     H237062   3.508   3.373   6.666
12274WAT      O37063   5.116   8.268   8.630
12274WAT     H137064   5.053   8.192   8.614
12274WAT     H237065   5.063   8.350   8.654
12275WAT      O37066   2.071   5.504   4.444
12275WAT     H137067   2.116   5.457   4.520
12275WAT     H237068   2.113   5.594   4.432
12276WAT      O37069   2.879   5.274   3.638
12276WAT     H137070   2.918   5.243   3.725
12276WAT     H237071   2.949   5.270   3.567
12277WAT      O37072   8.984   6.477   2.588
12277WAT     H137073   8.963   6.472   2.490
12277WAT     H237074   9.080   6.503   2.600
12278WAT      O37075   3.972   4.918   9.506
12278WAT     H137076   3.921   4.839   9.473
12278WAT     H237077   3.918   5.001   9.490
12279WAT      O37078   1.793   3.521   5.989
12279WAT     H137079   1.721   3.460   5.956
12279WAT     H237080   1.752   3.595   6.043
12280WAT      O37081   8.012   3.491   2.565
12280WAT     H137082   7.957   3.410   2.585
12280WAT     H237083   7.958   3.574   2.584
12281WAT      O37084   0.389   8.194   8.923
12281WAT     H137085   0.410   8.181   9.020
12281WAT     H237086   0.299   8.155   8.903
12282WAT      O37087   9.707   3.416   3.719
12282WAT     H137088   9.705   3.392   3.816
12282WAT     H237089   9.763   3.498   3.706
12283WAT      O37090   6.030   5.549   0.547
12283WAT     H137091   6.079   5.608   0.611
12283WAT     H237092   6.065   5.455   0.555
12284WAT      O37093   5.090   7.736   6.340
12284WAT     H137094   5.169   7.682   6.371
12284WAT     H237095   5.119   7.803   6.273
12285WAT      O37096   2.795   7.975   3.761
12285WAT     H137097   2.830   7.884   3.740
12285WAT     H237098   2.803   7.992   3.859
12286WAT      O37099   0.609   2.881   6.555
12286WAT     H137100   0.520   2.912   6.521
12286WAT     H237101   0.649   2.817   6.489
12287WAT      O37102   6.901   1.040   2.762
12287WAT     H137103   6.893   1.139   2.769
12287WAT     H237104   6.922   1.001   2.852
12288WAT      O37105   0.848   2.382   7.184
12288WAT     H137106   0.759   2.337   7.181
12288WAT     H237107   0.840   2.468   7.235
12289WAT      O37108   8.209   6.999   3.965
12289WAT     H137109   8.146   7.012   3.888
12289WAT     H237110   8.163   7.023   4.050
12290WAT      O37111   7.646   6.754   4.122
12290WAT     H137112   7.671   6.721   4.031
12290WAT     H237113   7.570   6.700   4.157
12291WAT      O37114   7.894   2.817   1.715
12291WAT     H137115   7.930   2.892   1.772
12291WAT     H237116   7.949   2.810   1.631
12292WAT      O37117   9.210   8.166   9.744
12292WAT     H137118   9.265   8.120   9.814
12292WAT     H237119   9.242   8.260   9.733
12293WAT      O37120   4.183   3.787   2.115
12293WAT     H137121   4.227   3.862   2.164
12293WAT     H237122   4.084   3.801   2.115
12294WAT      O37123   2.426   0.742   7.047
12294WAT     H137124   2.399   0.781   7.135
12294WAT     H237125   2.488   0.805   7.000
12295WAT      O37126   9.699   7.555   1.333
12295WAT     H137127   9.721   7.529   1.427
12295WAT     H237128   9.621   7.617   1.333
12296WAT      O37129   7.227   4.331   1.975
12296WAT     H137130   7.187   4.309   2.064
12296WAT     H237131   7.183   4.274   1.905
12297WAT      O37132   2.790   4.726   2.835
12297WAT     H137133   2.842   4.644   2.861
12297WAT     H237134   2.852   4.804   2.831
12298WAT      O37135   6.707   8.425   2.403
12298WAT     H137136   6.764   8.363   2.350
12298WAT     H237137   6.612   8.419   2.372
12299WAT      O37138   5.173   7.213   7.294
12299WAT     H137139   5.239   7.160   7.241
12299WAT     H237140   5.080   7.189   7.265
12300WAT      O37141   2.814   5.387   6.564
12300WAT     H137142   2.840   5.407   6.469
12300WAT     H237143   2.886   5.333   6.607
12301WAT      O37144   1.862   6.615   0.177
12301WAT     H137145   1.938   6.657   0.227
12301WAT     H237146   1.842   6.671   0.096
12302WAT      O37147   4.865   7.551   0.134
12302WAT     H137148   4.819   7.474   0.091
12302WAT     H237149   4.951   7.570   0.086
12303WAT      O37150   6.839   2.324   3.879
12303WAT     H137151   6.786   2.244   3.850
12303WAT     H237152   6.935   2.299   3.890
12304WAT      O37153   9.124   2.664   5.475
12304WAT     H137154   9.025   2.654   5.488
12304WAT     H237155   9.170   2.654   5.563
12305WAT      O37156   2.373   9.197   4.766
12305WAT     H137157   2.321   9.128   4.815
12305WAT     H237158   2.470   9.186   4.785
12306WAT      O37159   2.702   8.567   0.176
12306WAT     H137160   2.745   8.655   0.196
12306WAT     H237161   2.769   8.505   0.137
12307WAT      O37162   3.378   9.365   5.439
12307WAT     H137163   3.423   9.310   5.369
12307WAT     H237164   3.447   9.408   5.497
12308WAT      O37165   4.844   2.260   7.834
12308WAT     H137166   4.943   2.267   7.851
12308WAT     H237167   4.811   2.171   7.865
12309WAT      O37168   7.780   3.277   8.715
12309WAT     H137169   7.758   3.223   8.634
12309WAT     H237170   7.701   3.334   8.739
12310WAT      O37171   8.918   3.266   6.547
12310WAT     H137172   8.950   3.174   6.527
12310WAT     H237173   8.881   3.307   6.463
12311WAT      O37174   2.819   0.398   4.222
12311WAT     H137175   2.903   0.373   4.271
12311WAT     H237176   2.791   0.490   4.250
12312WAT      O37177   7.438   3.369   8.596
12312WAT     H137178   7.461   3.271   8.597
12312WAT     H237179   7.494   3.417   8.663
12313WAT      O37180   4.763   3.395   0.034
12313WAT     H137181   4.706   3.378   0.115
12313WAT     H237182   4.793   3.490   0.034
12314WAT      O37183   6.855   1.534   0.515
12314WAT     H137184   6.838   1.614   0.573
12314WAT     H237185   6.806   1.455   0.551
12315WAT      O37186   1.666   1.469   5.206
12315WAT     H137187   1.567   1.458   5.206
12315WAT     H237188   1.696   1.499   5.116
12316WAT      O37189   8.075   5.912   5.104
12316WAT     H137190   8.040   5.826   5.142
12316WAT     H237191   8.158   5.893   5.051
12317WAT      O37192   0.946   7.262   3.246
12317WAT     H137193   0.988   7.195   3.307
12317WAT     H237194   0.853   7.234   3.224
12318WAT      O37195   4.250   1.971   6.476
12318WAT     H137196   4.271   1.908   6.551
12318WAT     H237197   4.224   2.060   6.514
12319WAT      O37198   6.895   0.714   9.484
12319WAT     H137199   6.830   0.643   9.460
12319WAT     H237200   6.939   0.691   9.571
12320WAT      O37201   7.983   8.116   8.166
12320WAT     H137202   7.916   8.106   8.092
12320WAT     H237203   7.940   8.093   8.253
12321WAT      O37204   4.080   3.162   9.339
12321WAT     H137205   4.140   3.097   9.292
12321WAT     H237206   3.987   3.125   9.343
12322WAT      O37207   4.473   3.254   4.313
12322WAT     H137208   4.408   3.178   4.315
12322WAT     H237209   4.558   3.225   4.269
12323WAT      O37210   0.591   8.273   7.353
12323WAT     H137211   0.628   8.199   7.409
12323WAT     H237212   0.588   8.357   7.408
12324WAT      O37213   9.641   7.332   2.437
12324WAT     H137214   9.734   7.336   2.473
12324WAT     H237215   9.644   7.305   2.341
12325WAT      O37216   5.899   9.680   4.737
12325WAT     H137217   5.908   9.705   4.833
12325WAT     H237218   5.803   9.663   4.716
12326WAT      O37219   1.264   7.708   7.642
12326WAT     H137220   1.273   7.610   7.626
12326WAT     H237221   1.354   7.751   7.639
12327WAT      O37222   5.956   7.922   2.348
12327WAT     H137223   6.024   7.983   2.389
12327WAT     H237224   6.002   7.842   2.311
12328WAT      O37225   2.205   0.669   9.456
12328WAT     H137226   2.277   0.607   9.425
12328WAT     H237227   2.238   0.720   9.536
12329WAT      O37228   3.274   4.268   2.824
12329WAT     H137229   3.373   4.283   2.830
12329WAT     H237230   3.238   4.318   2.746
12330WAT      O37231   3.972   8.424   9.674
12330WAT     H137232   4.047   8.489   9.679
12330WAT     H237233   3.888   8.472   9.647
12331WAT      O37234   5.805   5.117   5.614
12331WAT     H137235   5.738   5.169   5.561
12331WAT     H237236   5.864   5.065   5.552
12332WAT      O37237   8.862   2.468   8.507
12332WAT     H137238   8.940   2.525   8.483
12332WAT     H237239   8.878   2.425   8.596
12333WAT      O37240   7.351   5.182   3.911
12333WAT     H137241   7.354   5.140   3.820
12333WAT     H237242   7.392   5.120   3.978
12334WAT      O37243   5.868   8.131   0.762
12334WAT     H137244   5.937   8.190   0.719
12334WAT     H237245   5.876   8.038   0.726
12335WAT      O37246   7.358   7.224   0.121
12335WAT     H137247   7.291   7.235   0.048
12335WAT     H237248   7.384   7.314   0.156
12336WAT      O37249   4.307   5.358   1.243
12336WAT     H137250   4.392   5.364   1.296
12336WAT     H237251   4.329   5.339   1.148
12337WAT      O37252   4.373   9.178   5.754
12337WAT     H137253   4.359   9.155   5.658
12337WAT     H237254   4.285   9.188   5.799
12338WAT      O37255   3.667   0.046   8.884
12338WAT     H137256   3.595   0.001   8.831
12338WAT     H237257   3.625   0.112   8.947
12339WAT      O37258   1.005   9.363   4.864
12339WAT     H137259   1.032   9.267   4.861
12339WAT     H237260   0.940   9.383   4.791
12340WAT      O37261   5.312   2.845   8.827
12340WAT     H137262   5.370   2.894   8.763
12340WAT     H237263   5.366   2.818   8.907
12341WAT      O37264   5.724   5.896   2.236
12341WAT     H137265   5.806   5.872   2.183
12341WAT     H237266   5.672   5.966   2.186
12342WAT      O37267   0.831   9.339   2.665
12342WAT     H137268   0.852   9.310   2.758
12342WAT     H237269   0.898   9.299   2.602
12343WAT      O37270   1.521   9.408   8.721
12343WAT     H137271   1.577   9.473   8.671
12343WAT     H237272   1.459   9.458   8.782
12344WAT      O37273   1.393   5.359   3.771
12344WAT     H137274   1.450   5.420   3.716
12344WAT     H237275   1.307   5.405   3.792
12345WAT      O37276   6.655   2.779   7.228
12345WAT     H137277   6.753   2.789   7.246
12345WAT     H237278   6.635   2.816   7.137
12346WAT      O37279   3.495   2.776   6.895
12346WAT     H137280   3.574   2.730   6.856
12346WAT     H237281   3.483   2.748   6.990
12347WAT      O37282   3.797   2.580   0.610
12347WAT     H137283   3.734   2.614   0.539
12347WAT     H237284   3.754   2.590   0.700
12348WAT      O37285   1.462   8.725   8.165
12348WAT     H137286   1.457   8.678   8.077
12348WAT     H237287   1.555   8.758   8.180
12349WAT      O37288   6.166   6.274   4.795
12349WAT     H137289   6.072   6.309   4.785
12349WAT     H237290   6.190   6.270   4.892
12350WAT      O37291   3.355   6.071   9.520
12350WAT     H137292   3.418   6.001   9.553
12350WAT     H237293   3.282   6.086   9.587
12351WAT      O37294   1.197   7.630   6.303
12351WAT     H137295   1.252   7.549   6.325
12351WAT     H237296   1.101   7.611   6.323
12352WAT      O37297   3.665   7.990   3.908
12352WAT     H137298   3.576   8.023   3.876
12352WAT     H237299   3.727   7.980   3.830
12353WAT      O37300   8.673   0.739   5.357
12353WAT     H137301   8.749   0.680   5.329
12353WAT     H237302   8.702   0.795   5.435
12354WAT      O37303   8.247   4.212   1.987
12354WAT     H137304   8.246   4.309   2.010
12354WAT     H237305   8.266   4.201   1.890
12355WAT      O37306   5.128   3.050   7.719
12355WAT     H137307   5.049   3.086   7.668
12355WAT     H237308   5.121   3.077   7.815
12356WAT      O37309   3.267   1.156   4.188
12356WAT     H137310   3.301   1.195   4.102
12356WAT     H237311   3.292   1.217   4.263
12357WAT      O37312   8.783   1.949   6.335
12357WAT     H137313   8.745   1.898   6.411
12357WAT     H237314   8.883   1.954   6.344
12358WAT      O37315   3.404   5.036   4.908
12358WAT     H137316   3.356   4.963   4.956
12358WAT     H237317   3.468   5.081   4.971
12359WAT      O37318   3.281   1.952   6.306
12359WAT     H137319   3.307   2.043   6.338
12359WAT     H237320   3.363   1.897   6.293
12360WAT      O37321   8.305   9.395   0.412
12360WAT     H137322   8.369   9.380   0.337
12360WAT     H237323   8.353   9.439   0.488
12361WAT      O37324   1.100   7.972   0.132
12361WAT     H137325   1.083   8.070   0.141
12361WAT     H237326   1.071   7.925   0.215
12362WAT      O37327   3.613   5.778   0.232
12362WAT     H137328   3.573   5.806   0.319
12362WAT     H237329   3.626   5.858   0.174
12363WAT      O37330   0.073   1.665   6.246
12363WAT     H137331   0.009   1.588   6.247
12363WAT     H237332   0.105   1.680   6.152
12364WAT      O37333   9.005   9.709   9.176
12364WAT     H137334   8.934   9.773   9.148
12364WAT     H237335   8.963   9.627   9.214
12365WAT      O37336   6.305   7.513   5.691
12365WAT     H137337   6.359   7.429   5.698
12365WAT     H237338   6.261   7.518   5.602
12366WAT      O37339   2.385   4.523   2.315
12366WAT     H137340   2.385   4.425   2.335
12366WAT     H237341   2.367   4.537   2.218
12367WAT      O37342   2.384   3.054   2.227
12367WAT     H137343   2.373   2.972   2.170
12367WAT     H237344   2.448   3.116   2.184
12368WAT      O37345   4.817   4.070   8.666
12368WAT     H137346   4.888   4.005   8.640
12368WAT     H237347   4.817   4.082   8.765
12369WAT      O37348   6.723   4.034   2.843
12369WAT     H137349   6.734   4.120   2.892
12369WAT     H237350   6.813   3.990   2.833
12370WAT      O37351   1.260   8.345   8.409
12370WAT     H137352   1.279   8.443   8.404
12370WAT     H237353   1.309   8.305   8.487
12371WAT      O37354   9.233   9.729   1.241
12371WAT     H137355   9.222   9.633   1.266
12371WAT     H237356   9.216   9.740   1.143
12372WAT      O37357   4.740   9.567   0.167
12372WAT     H137358   4.831   9.607   0.180
12372WAT     H237359   4.690   9.620   0.098
12373WAT      O37360   8.822   0.035   5.348
12373WAT     H137361   8.894   0.017   5.281
12373WAT     H237362   8.734   0.006   5.311
12374WAT      O37363   0.786   4.444   0.960
12374WAT     H137364   0.784   4.405   1.052
12374WAT     H237365   0.730   4.389   0.898
12375WAT      O37366   4.116   4.646   4.279
12375WAT     H137367   4.079   4.613   4.192
12375WAT     H237368   4.208   4.608   4.292
12376WAT      O37369   1.296   1.712   0.786
12376WAT     H137370   1.360   1.639   0.810
12376WAT     H237371   1.208   1.696   0.832
12377WAT      O37372   1.320   2.241   6.245
12377WAT     H137373   1.249   2.216   6.311
12377WAT     H237374   1.290   2.217   6.153
12378WAT      O37375   2.371   9.479   6.583
12378WAT     H137376   2.328   9.433   6.505
12378WAT     H237377   2.327   9.449   6.668
12379WAT      O37378   6.357   2.959   7.309
12379WAT     H137379   6.334   3.028   7.378
12379WAT     H237380   6.446   2.979   7.269
12380WAT      O37381   1.563   2.579   3.334
12380WAT     H137382   1.549   2.657   3.395
12380WAT     H237383   1.526   2.496   3.377
12381WAT      O37384   1.390   8.171   0.160
12381WAT     H137385   1.295   8.191   0.136
12381WAT     H237386   1.425   8.243   0.221
12382WAT      O37387   8.128   9.643   0.710
12382WAT     H137388   8.055   9.582   0.678
12382WAT     H237389   8.211   9.590   0.727
12383WAT      O37390   6.778   9.055   2.749
12383WAT     H137391   6.772   9.097   2.659
12383WAT     H237392   6.863   9.003   2.757
12384WAT      O37393   4.747   3.388   3.336
12384WAT     H137394   4.695   3.390   3.251
12384WAT     H237395   4.844   3.375   3.316
12385WAT      O37396   2.830   0.858   2.335
12385WAT     H137397   2.759   0.812   2.281
12385WAT     H237398   2.920   0.833   2.300
12386WAT      O37399   4.738   9.489   2.176
12386WAT     H137400   4.680   9.416   2.212
12386WAT     H237401   4.794   9.452   2.102
12387WAT      O37402   6.827   3.986   7.241
12387WAT     H137403   6.820   4.079   7.206
12387WAT     H237404   6.744   3.935   7.217
12388WAT      O37405   4.472   7.174   5.688
12388WAT     H137406   4.399   7.106   5.690
12388WAT     H237407   4.557   7.132   5.719
12389WAT      O37408   9.057   2.153   9.288
12389WAT     H137409   9.120   2.075   9.298
12389WAT     H237410   9.110   2.238   9.286
12390WAT      O37411   5.637   5.638   0.165
12390WAT     H137412   5.700   5.716   0.168
12390WAT     H237413   5.625   5.609   0.070
12391WAT      O37414   5.791   0.371   3.884
12391WAT     H137415   5.791   0.421   3.971
12391WAT     H237416   5.790   0.273   3.902
12392WAT      O37417   3.167   2.737   2.857
12392WAT     H137418   3.174   2.659   2.919
12392WAT     H237419   3.191   2.821   2.905
12393WAT      O37420   5.002   7.534   3.408
12393WAT     H137421   5.074   7.548   3.477
12393WAT     H237422   4.924   7.593   3.429
12394WAT      O37423   8.392   1.202   8.359
12394WAT     H137424   8.420   1.211   8.455
12394WAT     H237425   8.320   1.268   8.339
12395WAT      O37426   0.520   7.859   0.388
12395WAT     H137427   0.566   7.872   0.300
12395WAT     H237428   0.423   7.843   0.373
12396WAT      O37429   1.333   2.074   2.599
12396WAT     H137430   1.295   2.159   2.635
12396WAT     H237431   1.312   2.067   2.502
12397WAT      O37432   9.367   9.202   1.557
12397WAT     H137433   9.299   9.181   1.487
12397WAT     H237434   9.332   9.175   1.647
12398WAT      O37435   1.908   2.371   0.498
12398WAT     H137436   1.911   2.271   0.495
12398WAT     H237437   1.824   2.399   0.546
12399WAT      O37438   1.200   3.171   4.728
12399WAT     H137439   1.171   3.086   4.682
12399WAT     H237440   1.275   3.212   4.677
12400WAT      O37441   2.349   6.146   0.693
12400WAT     H137442   2.266   6.092   0.703
12400WAT     H237443   2.414   6.121   0.766
12401WAT      O37444   4.952   5.863   3.629
12401WAT     H137445   5.044   5.830   3.607
12401WAT     H237446   4.908   5.896   3.546
12402WAT      O37447   1.620   4.328   3.526
12402WAT     H137448   1.673   4.404   3.562
12402WAT     H237449   1.532   4.323   3.574
12403WAT      O37450   1.121   3.286   0.510
12403WAT     H137451   1.027   3.318   0.523
12403WAT     H237452   1.171   3.297   0.596
12404WAT      O37453   8.648   0.954   3.805
12404WAT     H137454   8.590   1.029   3.773
12404WAT     H237455   8.638   0.875   3.744
12405WAT      O37456   9.410   4.702   2.234
12405WAT     H137457   9.373   4.611   2.218
12405WAT     H237458   9.398   4.727   2.330
12406WAT      O37459   0.506   6.831   8.200
12406WAT     H137460   0.429   6.889   8.176
12406WAT     H237461   0.474   6.750   8.248
12407WAT      O37462   7.835   8.894   6.224
12407WAT     H137463   7.929   8.920   6.202
12407WAT     H237464   7.833   8.850   6.314
12408WAT      O37465   8.617   6.013   0.278
12408WAT     H137466   8.550   6.037   0.207
12408WAT     H237467   8.570   5.969   0.354
12409WAT      O37468   6.227   7.339   8.138
12409WAT     H137469   6.208   7.334   8.040
12409WAT     H237470   6.192   7.425   8.174
12410WAT      O37471   2.953   9.639   3.502
12410WAT     H137472   2.894   9.594   3.435
12410WAT     H237473   2.934   9.603   3.593
12411WAT      O37474   7.015   4.945   9.380
12411WAT     H137475   6.978   4.859   9.413
12411WAT     H237476   6.961   4.978   9.303
12412WAT      O37477   0.371   1.594   4.950
12412WAT     H137478   0.463   1.632   4.963
12412WAT     H237479   0.372   1.497   4.974
12413WAT      O37480   4.231   0.934   2.391
12413WAT     H137481   4.182   0.847   2.392
12413WAT     H237482   4.184   0.999   2.451
12414WAT      O37483   8.893   1.569   8.482
12414WAT     H137484   8.823   1.499   8.468
12414WAT     H237485   8.984   1.527   8.479
12415WAT      O37486   0.463   4.036   8.395
12415WAT     H137487   0.410   4.116   8.426
12415WAT     H237488   0.448   4.023   8.297
12416WAT      O37489   9.284  -0.003   3.496
12416WAT     H137490   9.355   0.039   3.439
12416WAT     H237491   9.223   0.068   3.531
12417WAT      O37492   3.717   2.654   6.814
12417WAT     H137493   3.708   2.629   6.718
12417WAT     H237494   3.750   2.575   6.866
12418WAT      O37495   4.107   6.503   2.247
12418WAT     H137496   4.159   6.419   2.237
12418WAT     H237497   4.045   6.496   2.326
12419WAT      O37498   6.509   4.430   9.571
12419WAT     H137499   6.521   4.333   9.548
12419WAT     H237500   6.597   4.469   9.598
12420WAT      O37501   8.129   7.395   3.489
12420WAT     H137502   8.037   7.431   3.507
12420WAT     H237503   8.158   7.422   3.397
12421WAT      O37504   9.290   6.221   4.725
12421WAT     H137505   9.343   6.173   4.656
12421WAT     H237506   9.335   6.308   4.747
12422WAT      O37507   0.882   2.975   6.572
12422WAT     H137508   0.785   2.952   6.572
12422WAT     H237509   0.907   3.020   6.658
12423WAT      O37510   6.098   7.764   5.363
12423WAT     H137511   6.105   7.665   5.352
12423WAT     H237512   6.069   7.786   5.457
12424WAT      O37513   9.775   9.121   3.715
12424WAT     H137514   9.849   9.158   3.772
12424WAT     H237515   9.700   9.091   3.774
12425WAT      O37516   6.660   9.165   8.023
12425WAT     H137517   6.589   9.167   7.952
12425WAT     H237518   6.618   9.174   8.113
12426WAT      O37519   0.738   9.001   8.166
12426WAT     H137520   0.738   9.083   8.224
12426WAT     H237521   0.739   9.028   8.070
12427WAT      O37522   6.988   4.887   5.837
12427WAT     H137523   6.940   4.975   5.842
12427WAT     H237524   7.084   4.903   5.812
12428WAT      O37525   2.638   4.091   3.031
12428WAT     H137526   2.704   4.163   3.009
12428WAT     H237527   2.580   4.122   3.107
12429WAT      O37528   2.220   1.113   4.048
12429WAT     H137529   2.233   1.149   3.956
12429WAT     H237530   2.126   1.082   4.060
12430WAT      O37531   2.189   4.365   7.603
12430WAT     H137532   2.267   4.396   7.548
12430WAT     H237533   2.221   4.299   7.671
12431WAT      O37534   2.594   1.190   1.180
12431WAT     H137535   2.609   1.240   1.265
12431WAT     H237536   2.526   1.238   1.124
12432WAT      O37537   8.443   7.457   8.409
12432WAT     H137538   8.369   7.430   8.348
12432WAT     H237539   8.531   7.435   8.366
12433WAT      O37540   7.337   6.020   9.172
12433WAT     H137541   7.312   6.111   9.138
12433WAT     H237542   7.267   5.988   9.235
12434WAT      O37543   3.500   1.824   6.276
12434WAT     H137544   3.577   1.875   6.238
12434WAT     H237545   3.490   1.737   6.227
12435WAT      O37546   0.849   3.119   7.801
12435WAT     H137547   0.934   3.072   7.777
12435WAT     H237548   0.849   3.210   7.760
12436WAT      O37549   7.862   9.101   5.909
12436WAT     H137550   7.915   9.084   5.992
12436WAT     H237551   7.765   9.109   5.932
12437WAT      O37552   8.338   2.768   1.338
12437WAT     H137553   8.427   2.792   1.299
12437WAT     H237554   8.312   2.676   1.307
12438WAT      O37555   8.499   1.481   5.232
12438WAT     H137556   8.503   1.578   5.209
12438WAT     H237557   8.502   1.427   5.148
12439WAT      O37558   0.318   5.735   4.682
12439WAT     H137559   0.270   5.721   4.596
12439WAT     H237560   0.258   5.781   4.748
12440WAT      O37561   3.600   7.748   1.552
12440WAT     H137562   3.660   7.673   1.525
12440WAT     H237563   3.508   7.712   1.572
12441WAT      O37564   3.972   6.602   2.460
12441WAT     H137565   4.009   6.634   2.547
12441WAT     H237566   3.962   6.680   2.398
12442WAT      O37567   5.300   8.079   9.683
12442WAT     H137568   5.346   8.068   9.595
12442WAT     H237569   5.209   8.040   9.678
12443WAT      O37570   1.813   0.095   6.675
12443WAT     H137571   1.861   0.107   6.588
12443WAT     H237572   1.767   0.181   6.699
12444WAT      O37573   8.882   3.984   1.674
12444WAT     H137574   8.920   4.044   1.745
12444WAT     H237575   8.870   4.036   1.590
12445WAT      O37576   2.485   5.172   0.187
12445WAT     H137577   2.535   5.209   0.265
12445WAT     H237578   2.388   5.192   0.198
12446WAT      O37579   1.316   2.832   2.996
12446WAT     H137580   1.385   2.893   3.035
12446WAT     H237581   1.353   2.787   2.914
12447WAT      O37582   4.317   9.020   4.070
12447WAT     H137583   4.401   9.020   4.015
12447WAT     H237584   4.252   9.085   4.031
12448WAT      O37585   7.973   5.229   3.262
12448WAT     H137586   7.968   5.318   3.216
12448WAT     H237587   7.916   5.231   3.344
12449WAT      O37588   0.888   1.208   2.984
12449WAT     H137589   0.788   1.203   2.973
12449WAT     H237590   0.931   1.131   2.938
12450WAT      O37591   0.945   9.640   8.933
12450WAT     H137592   0.904   9.663   8.845
12450WAT     H237593   0.991   9.721   8.970
12451WAT      O37594   1.969   4.830   7.543
12451WAT     H137595   1.914   4.787   7.471
12451WAT     H237596   2.059   4.786   7.547
12452WAT      O37597   1.850   8.780   6.737
12452WAT     H137598   1.835   8.685   6.767
12452WAT     H237599   1.761   8.822   6.717
12453WAT      O37600   2.925   3.577   3.977
12453WAT     H137601   2.929   3.621   4.067
12453WAT     H237602   2.948   3.643   3.906
12454WAT      O37603   2.107   3.681   3.318
12454WAT     H137604   2.166   3.702   3.240
12454WAT     H237605   2.061   3.765   3.348
12455WAT      O37606   8.155   7.443   3.845
12455WAT     H137607   8.251   7.414   3.839
12455WAT     H237608   8.148   7.538   3.817
12456WAT      O37609   4.108   9.691   9.193
12456WAT     H137610   4.142   9.618   9.253
12456WAT     H237611   4.018   9.667   9.159
12457WAT      O37612   1.607   6.235   1.602
12457WAT     H137613   1.548   6.311   1.575
12457WAT     H237614   1.592   6.214   1.698
12458WAT      O37615   1.963   2.400   9.085
12458WAT     H137616   2.033   2.411   9.156
12458WAT     H237617   1.968   2.475   9.020
12459WAT      O37618   1.176   7.676   1.904
12459WAT     H137619   1.246   7.745   1.886
12459WAT     H237620   1.218   7.585   1.909
12460WAT      O37621   7.523   8.626   2.360
12460WAT     H137622   7.599   8.663   2.307
12460WAT     H237623   7.559   8.561   2.428
12461WAT      O37624   2.054   8.574   5.672
12461WAT     H137625   2.064   8.484   5.714
12461WAT     H237626   2.009   8.565   5.583
12462WAT      O37627   4.703   2.085   4.325
12462WAT     H137628   4.720   2.183   4.312
12462WAT     H237629   4.635   2.054   4.258
12463WAT      O37630   3.248   0.656   5.223
12463WAT     H137631   3.205   0.686   5.139
12463WAT     H237632   3.262   0.734   5.284
12464WAT      O37633   7.053   8.202   0.807
12464WAT     H137634   7.004   8.288   0.795
12464WAT     H237635   6.990   8.126   0.792
12465WAT      O37636   7.107   5.300   1.452
12465WAT     H137637   7.093   5.352   1.368
12465WAT     H237638   7.138   5.208   1.429
12466WAT      O37639   5.330   3.062   6.075
12466WAT     H137640   5.327   3.151   6.028
12466WAT     H237641   5.275   2.996   6.024
12467WAT      O37642   3.580   1.923   2.848
12467WAT     H137643   3.483   1.918   2.870
12467WAT     H237644   3.629   1.850   2.897
12468WAT      O37645   2.204   0.720   6.557
12468WAT     H137646   2.151   0.800   6.587
12468WAT     H237647   2.241   0.672   6.637
12469WAT      O37648   1.863   2.890   6.773
12469WAT     H137649   1.796   2.963   6.786
12469WAT     H237650   1.841   2.839   6.690
12470WAT      O37651   7.382   9.165   0.602
12470WAT     H137652   7.479   9.139   0.600
12470WAT     H237653   7.368   9.236   0.671
12471WAT      O37654   1.958   1.465   4.210
12471WAT     H137655   2.055   1.484   4.194
12471WAT     H237656   1.919   1.422   4.128
12472WAT      O37657   9.743   1.527   5.649
12472WAT     H137658   9.769   1.583   5.728
12472WAT     H237659   9.676   1.577   5.594
12473WAT      O37660   2.720   9.133   1.477
12473WAT     H137661   2.702   9.137   1.378
12473WAT     H237662   2.713   9.225   1.516
12474WAT      O37663   0.651   1.005   6.585
12474WAT     H137664   0.624   0.927   6.529
12474WAT     H237665   0.655   0.977   6.681
12475WAT      O37666   9.359   8.368   0.258
12475WAT     H137667   9.455   8.375   0.233
12475WAT     H237668   9.336   8.442   0.322
12476WAT      O37669   6.984   7.067   9.030
12476WAT     H137670   7.042   7.070   8.948
12476WAT     H237671   6.924   6.987   9.025
12477WAT      O37672   8.408   3.429   7.499
12477WAT     H137673   8.446   3.506   7.447
12477WAT     H237674   8.479   3.392   7.560
12478WAT      O37675   9.402   7.169   0.963
12478WAT     H137676   9.461   7.249   0.956
12478WAT     H237677   9.331   7.174   0.893
12479WAT      O37678   5.181   3.461   9.491
12479WAT     H137679   5.109   3.478   9.558
12479WAT     H237680   5.218   3.548   9.458
12480WAT      O37681   6.883   6.065   3.926
12480WAT     H137682   6.797   6.077   3.976
12480WAT     H237683   6.955   6.037   3.990
12481WAT      O37684   2.478   4.995   9.044
12481WAT     H137685   2.577   4.996   9.057
12481WAT     H237686   2.455   5.049   8.963
12482WAT      O37687   3.948   9.024   4.628
12482WAT     H137688   3.912   9.117   4.623
12482WAT     H237689   4.008   9.007   4.549
12483WAT      O37690   1.896   7.914   0.813
12483WAT     H137691   1.964   7.890   0.744
12483WAT     H237692   1.904   8.011   0.836
12484WAT      O37693   7.744   1.719   4.423
12484WAT     H137694   7.813   1.713   4.351
12484WAT     H237695   7.680   1.793   4.401
12485WAT      O37696   6.637   2.010   0.705
12485WAT     H137697   6.543   2.041   0.702
12485WAT     H237698   6.698   2.082   0.670
12486WAT      O37699   1.189   6.316   5.522
12486WAT     H137700   1.260   6.275   5.465
12486WAT     H237701   1.205   6.290   5.617
12487WAT      O37702   3.797   5.087   6.972
12487WAT     H137703   3.788   5.120   6.878
12487WAT     H237704   3.712   5.106   7.021
12488WAT      O37705   5.537   0.939   7.368
12488WAT     H137706   5.622   0.991   7.380
12488WAT     H237707   5.464   0.979   7.423
12489WAT      O37708   2.829   5.570   4.993
12489WAT     H137709   2.816   5.578   5.091
12489WAT     H237710   2.815   5.475   4.965
12490WAT      O37711   3.571   0.482   1.276
12490WAT     H137712   3.487   0.532   1.296
12490WAT     H237713   3.597   0.496   1.181
12491WAT      O37714   9.670   0.395   8.737
12491WAT     H137715   9.578   0.396   8.696
12491WAT     H237716   9.665   0.356   8.829
12492WAT      O37717   1.044   4.049   3.351
12492WAT     H137718   1.036   4.025   3.254
12492WAT     H237719   1.064   4.146   3.360
12493WAT      O37720   7.279   5.871   3.938
12493WAT     H137721   7.261   5.886   3.841
12493WAT     H237722   7.194   5.877   3.989
12494WAT      O37723   9.582   0.088   2.400
12494WAT     H137724   9.619   0.019   2.462
12494WAT     H237725   9.654   0.123   2.340
12495WAT      O37726   5.053   8.617   0.370
12495WAT     H137727   5.073   8.703   0.322
12495WAT     H237728   5.088   8.622   0.463
12496WAT      O37729   6.200   1.180   3.711
12496WAT     H137730   6.203   1.276   3.681
12496WAT     H237731   6.185   1.177   3.810
12497WAT      O37732   4.661   5.252   0.695
12497WAT     H137733   4.595   5.221   0.627
12497WAT     H237734   4.715   5.173   0.727
12498WAT      O37735   0.099   2.615   4.963
12498WAT     H137736   0.134   2.536   4.913
12498WAT     H237737   0.038   2.585   5.036
12499WAT      O37738   5.992   0.961   2.748
12499WAT     H137739   5.911   0.924   2.702
12499WAT     H237740   6.074   0.914   2.715
12500WAT      O37741   0.528   2.857   9.133
12500WAT     H137742   0.609   2.900   9.093
12500WAT     H237743   0.540   2.758   9.135
12501WAT      O37744   1.073   8.485   2.828
12501WAT     H137745   1.103   8.580   2.825
12501WAT     H237746   1.091   8.447   2.919
12502WAT      O37747   7.642   0.055   9.573
12502WAT     H137748   7.731   0.086   9.542
12502WAT     H237749   7.643  -0.044   9.586
12503WAT      O37750   6.065   8.956   8.455
12503WAT     H137751   6.087   8.921   8.364
12503WAT     H237752   6.005   8.892   8.502
12504WAT      O37753   9.077   0.319   2.696
12504WAT     H137754   9.108   0.300   2.789
12504WAT     H237755   9.079   0.417   2.679
12505WAT      O37756   0.993   0.188   8.483
12505WAT     H137757   1.023   0.118   8.418
12505WAT     H237758   1.054   0.190   8.562
12506WAT      O37759   9.319   3.409   9.420
12506WAT     H137760   9.352   3.334   9.362
12506WAT     H237761   9.331   3.496   9.373
12507WAT      O37762   0.242   6.193   6.326
12507WAT     H137763   0.185   6.168   6.404
12507WAT     H237764   0.204   6.155   6.242
12508WAT      O37765   0.780   0.065   8.989
12508WAT     H137766   0.787   0.019   9.078
12508WAT     H237767   0.706   0.022   8.936
12509WAT      O37768   7.516   2.071   3.005
12509WAT     H137769   7.496   2.007   2.930
12509WAT     H237770   7.574   2.025   3.072
12510WAT      O37771   8.934   4.573   9.273
12510WAT     H137772   8.843   4.534   9.263
12510WAT     H237773   8.960   4.572   9.370
12511WAT      O37774   6.044   0.639   0.948
12511WAT     H137775   5.968   0.684   0.900
12511WAT     H237776   6.020   0.545   0.968
12512WAT      O37777   0.255   4.396   6.990
12512WAT     H137778   0.335   4.412   7.048
12512WAT     H237779   0.174   4.382   7.046
12513WAT      O37780   8.742   3.592   1.168
12513WAT     H137781   8.682   3.601   1.088
12513WAT     H237782   8.737   3.676   1.223
12514WAT      O37783   1.148   0.183   8.733
12514WAT     H137784   1.110   0.158   8.823
12514WAT     H237785   1.215   0.256   8.745
12515WAT      O37786   0.122   5.817   2.224
12515WAT     H137787   0.046   5.832   2.287
12515WAT     H237788   0.201   5.871   2.253
12516WAT      O37789   9.417   0.054   8.786
12516WAT     H137790   9.409   0.131   8.849
12516WAT     H237791   9.477  -0.015   8.826
12517WAT      O37792   3.721   2.614   3.196
12517WAT     H137793   3.746   2.545   3.128
12517WAT     H237794   3.698   2.699   3.150
12518WAT      O37795   4.789   6.305   9.207
12518WAT     H137796   4.765   6.267   9.118
12518WAT     H237797   4.716   6.368   9.236
12519WAT      O37798   4.291   6.942   7.451
12519WAT     H137799   4.265   6.882   7.527
12519WAT     H237800   4.234   6.921   7.372
12520WAT      O37801   5.737   6.437   0.553
12520WAT     H137802   5.826   6.473   0.583
12520WAT     H237803   5.733   6.339   0.572
12521WAT      O37804   5.598   8.306   0.229
12521WAT     H137805   5.537   8.238   0.270
12521WAT     H237806   5.640   8.361   0.301
12522WAT      O37807   6.331   7.923   0.213
12522WAT     H137808   6.240   7.882   0.216
12522WAT     H237809   6.360   7.946   0.305
12523WAT      O37810   6.534   2.329   2.763
12523WAT     H137811   6.549   2.418   2.806
12523WAT     H237812   6.451   2.332   2.708
12524WAT      O37813   9.430   6.087   5.335
12524WAT     H137814   9.431   6.089   5.435
12524WAT     H237815   9.520   6.057   5.301
12525WAT      O37816   8.194   2.158   2.008
12525WAT     H137817   8.199   2.256   1.988
12525WAT     H237818   8.142   2.112   1.936
12526WAT      O37819   4.853   3.632   4.776
12526WAT     H137820   4.848   3.653   4.873
12526WAT     H237821   4.768   3.590   4.746
12527WAT      O37822   9.103   0.206   4.124
12527WAT     H137823   9.177   0.178   4.184
12527WAT     H237824   9.135   0.208   4.029
12528WAT      O37825   7.709   3.920   9.020
12528WAT     H137826   7.701   4.003   8.964
12528WAT     H237827   7.801   3.882   9.011
12529WAT      O37828   4.851   7.296   4.091
12529WAT     H137829   4.931   7.272   4.147
12529WAT     H237830   4.879   7.361   4.020
12530WAT      O37831   7.921   4.976   7.207
12530WAT     H137832   8.017   4.977   7.177
12530WAT     H237833   7.890   5.069   7.224
12531WAT      O37834   8.531   0.363   9.817
12531WAT     H137835   8.625   0.374   9.787
12531WAT     H237836   8.470   0.416   9.756
12532WAT      O37837   0.061   8.495   4.611
12532WAT     H137838   0.033   8.400   4.621
12532WAT     H237839   0.054   8.523   4.515
12533WAT      O37840   4.682   9.329   1.144
12533WAT     H137841   4.701   9.370   1.055
12533WAT     H237842   4.712   9.391   1.217
12534WAT      O37843   4.858   9.483   3.559
12534WAT     H137844   4.783   9.549   3.567
12534WAT     H237845   4.900   9.491   3.468
12535WAT      O37846   0.286   6.356   9.173
12535WAT     H137847   0.320   6.399   9.256
12535WAT     H237848   0.304   6.415   9.095
12536WAT      O37849   8.292   8.996   5.470
12536WAT     H137850   8.205   8.977   5.514
12536WAT     H237851   8.284   8.977   5.372
12537WAT      O37852   2.252   7.770   3.006
12537WAT     H137853   2.300   7.689   3.038
12537WAT     H237854   2.208   7.816   3.084
12538WAT      O37855   5.117   0.054   7.238
12538WAT     H137856   5.171   0.128   7.198
12538WAT     H237857   5.044   0.028   7.175
12539WAT      O37858   4.130   6.036   9.741
12539WAT     H137859   4.222   6.011   9.770
12539WAT     H237860   4.110   6.129   9.772
12540WAT      O37861   8.116   8.521   4.095
12540WAT     H137862   8.088   8.425   4.103
12540WAT     H237863   8.094   8.569   4.180
12541WAT      O37864   2.600   4.403   1.134
12541WAT     H137865   2.678   4.449   1.176
12541WAT     H237866   2.552   4.349   1.203
12542WAT      O37867   3.172   9.585   1.831
12542WAT     H137868   3.141   9.593   1.926
12542WAT     H237869   3.131   9.503   1.790
12543WAT      O37870   0.401   1.624   1.752
12543WAT     H137871   0.457   1.564   1.809
12543WAT     H237872   0.308   1.627   1.789
12544WAT      O37873   9.200   7.121   8.768
12544WAT     H137874   9.184   7.041   8.709
12544WAT     H237875   9.113   7.152   8.805
12545WAT      O37876   2.303   7.872   4.463
12545WAT     H137877   2.205   7.851   4.461
12545WAT     H237878   2.316   7.970   4.477
12546WAT      O37879   6.440   9.601   0.598
12546WAT     H137880   6.354   9.649   0.616
12546WAT     H237881   6.445   9.577   0.501
12547WAT      O37882   5.152   3.138   1.048
12547WAT     H137883   5.243   3.106   1.074
12547WAT     H237884   5.115   3.196   1.120
12548WAT      O37885   0.472   8.934   8.075
12548WAT     H137886   0.410   8.932   7.997
12548WAT     H237887   0.547   8.997   8.056
12549WAT      O37888   6.789   7.852   8.762
12549WAT     H137889   6.823   7.920   8.827
12549WAT     H237890   6.777   7.894   8.673
12550WAT      O37891   4.904   7.656   5.990
12550WAT     H137892   4.866   7.593   6.059
12550WAT     H237893   4.946   7.734   6.036
12551WAT      O37894   1.897   4.111   9.564
12551WAT     H137895   1.932   4.054   9.490
12551WAT     H237896   1.800   4.131   9.548
12552WAT      O37897   2.658   2.224   7.114
12552WAT     H137898   2.566   2.235   7.075
12552WAT     H237899   2.680   2.127   7.120
12553WAT      O37900   5.453   9.722   7.538
12553WAT     H137901   5.446   9.705   7.440
12553WAT     H237902   5.373   9.684   7.585
12554WAT      O37903   0.226   0.012   8.761
12554WAT     H137904   0.279   0.059   8.833
12554WAT     H237905   0.219   0.072   8.681
12555WAT      O37906   4.470   8.544   4.160
12555WAT     H137907   4.431   8.571   4.072
12555WAT     H237908   4.419   8.467   4.197
12556WAT      O37909   8.326   4.288   1.357
12556WAT     H137910   8.334   4.188   1.358
12556WAT     H237911   8.413   4.329   1.382
12557WAT      O37912   7.092   2.392   9.280
12557WAT     H137913   7.065   2.303   9.317
12557WAT     H237914   7.050   2.404   9.190
12558WAT      O37915   2.817   1.476   9.598
12558WAT     H137916   2.822   1.401   9.532
12558WAT     H237917   2.769   1.446   9.680
12559WAT      O37918   4.711   7.567   4.726
12559WAT     H137919   4.791   7.509   4.742
12559WAT     H237920   4.741   7.656   4.690
12560WAT      O37921   0.522   6.512   6.841
12560WAT     H137922   0.431   6.549   6.856
12560WAT     H237923   0.590   6.584   6.857
12561WAT      O37924   5.373   0.537   5.819
12561WAT     H137925   5.379   0.512   5.916
12561WAT     H237926   5.278   0.557   5.795
12562WAT      O37927   2.494   1.825   9.660
12562WAT     H137928   2.434   1.867   9.592
12562WAT     H237929   2.586   1.815   9.621
12563WAT      O37930   7.157   2.680   5.473
12563WAT     H137931   7.132   2.768   5.433
12563WAT     H237932   7.092   2.656   5.545
12564WAT      O37933   6.848   3.558   4.529
12564WAT     H137934   6.791   3.618   4.585
12564WAT     H237935   6.798   3.473   4.511
12565WAT      O37936   1.011   1.349   3.191
12565WAT     H137937   0.961   1.293   3.124
12565WAT     H237938   0.994   1.445   3.172
12566WAT      O37939   3.656   7.522   1.105
12566WAT     H137940   3.584   7.576   1.148
12566WAT     H237941   3.617   7.471   1.028
12567WAT      O37942   9.507   8.113   1.168
12567WAT     H137943   9.435   8.060   1.211
12567WAT     H237944   9.570   8.147   1.238
12568WAT      O37945   9.190   6.586   4.613
12568WAT     H137946   9.095   6.558   4.595
12568WAT     H237947   9.234   6.612   4.528
12569WAT      O37948   9.799   6.106   0.527
12569WAT     H137949   9.875   6.170   0.514
12569WAT     H237950   9.828   6.014   0.503
12570WAT      O37951   7.856   7.593   8.673
12570WAT     H137952   7.844   7.565   8.769
12570WAT     H237953   7.785   7.552   8.617
12571WAT      O37954   7.527   1.423   5.341
12571WAT     H137955   7.488   1.485   5.273
12571WAT     H237956   7.626   1.438   5.347
12572WAT      O37957   5.622   3.635   7.252
12572WAT     H137958   5.600   3.638   7.154
12572WAT     H237959   5.542   3.662   7.305
12573WAT      O37960   0.152   6.142   6.045
12573WAT     H137961   0.237   6.127   5.995
12573WAT     H237962   0.121   6.236   6.031
12574WAT      O37963   5.855   5.827   6.672
12574WAT     H137964   5.948   5.822   6.706
12574WAT     H237965   5.840   5.753   6.606
12575WAT      O37966   2.553   9.692   1.876
12575WAT     H137967   2.478   9.645   1.923
12575WAT     H237968   2.639   9.644   1.893
12576WAT      O37969   5.132   3.909   9.611
12576WAT     H137970   5.208   3.918   9.675
12576WAT     H237971   5.091   3.999   9.595
12577WAT      O37972   6.845   8.814   5.625
12577WAT     H137973   6.868   8.840   5.719
12577WAT     H237974   6.911   8.747   5.592
12578WAT      O37975   9.806   3.754   5.473
12578WAT     H137976   9.762   3.731   5.385
12578WAT     H237977   9.860   3.676   5.504
12579WAT      O37978   9.775   2.221   4.077
12579WAT     H137979   9.758   2.313   4.111
12579WAT     H237980   9.856   2.183   4.123
12580WAT      O37981   2.970   5.616   0.824
12580WAT     H137982   2.972   5.516   0.826
12580WAT     H237983   2.916   5.649   0.901
12581WAT      O37984   7.716   3.571   6.533
12581WAT     H137985   7.673   3.661   6.544
12581WAT     H237986   7.692   3.513   6.611
12582WAT      O37987   7.842   7.854   0.228
12582WAT     H137988   7.792   7.936   0.199
12582WAT     H237989   7.885   7.871   0.316
12583WAT      O37990   5.044   4.235   9.118
12583WAT     H137991   5.024   4.250   9.021
12583WAT     H237992   5.090   4.148   9.130
12584WAT      O37993   5.022   7.949   8.414
12584WAT     H137994   5.112   7.968   8.375
12584WAT     H237995   5.003   7.851   8.409
12585WAT      O37996   4.562   6.118   4.973
12585WAT     H137997   4.582   6.083   4.881
12585WAT     H237998   4.552   6.218   4.969
12586WAT      O37999   3.010   7.595   9.768
12586WAT     H138000   3.095   7.604   9.819
12586WAT     H238001   3.021   7.636   9.677
12587WAT      O38002   7.128   9.348   5.870
12587WAT     H138003   7.140   9.277   5.939
12587WAT     H238004   7.214   9.399   5.859
12588WAT      O38005   4.968   0.412   6.185
12588WAT     H138006   4.985   0.509   6.173
12588WAT     H238007   4.921   0.375   6.105
12589WAT      O38008   1.612   8.299   6.761
12589WAT     H138009   1.646   8.207   6.784
12589WAT     H238010   1.547   8.293   6.686
12590WAT      O38011   2.475   0.417   3.563
12590WAT     H138012   2.418   0.348   3.608
12590WAT     H238013   2.437   0.508   3.578
12591WAT      O38014   9.540   4.633   3.139
12591WAT     H138015   9.597   4.576   3.198
12591WAT     H238016   9.445   4.629   3.171
12592WAT      O38017   9.073   8.569   8.303
12592WAT     H138018   9.086   8.664   8.331
12592WAT     H238019   9.161   8.527   8.284
12593WAT      O38020   9.565   5.578   8.215
12593WAT     H138021   9.563   5.567   8.116
12593WAT     H238022   9.513   5.659   8.241
12594WAT      O38023   5.070   7.520   9.008
12594WAT     H138024   5.007   7.470   8.948
12594WAT     H238025   5.158   7.531   8.962
12595WAT      O38026   3.104   0.596   8.930
12595WAT     H138027   3.039   0.522   8.951
12595WAT     H238028   3.109   0.609   8.831
12596WAT      O38029   5.585   1.755   9.358
12596WAT     H138030   5.637   1.727   9.276
12596WAT     H238031   5.539   1.675   9.397
12597WAT      O38032   6.152   1.903   0.911
12597WAT     H138033   6.129   1.948   0.825
12597WAT     H238034   6.250   1.885   0.915
12598WAT      O38035   7.976   4.976   2.106
12598WAT     H138036   7.981   5.045   2.033
12598WAT     H238037   8.055   4.986   2.167
12599WAT      O38038   3.788   6.817   4.677
12599WAT     H138039   3.791   6.814   4.577
12599WAT     H238040   3.875   6.783   4.714
12600WAT      O38041   8.930   8.748   3.097
12600WAT     H138042   9.005   8.782   3.040
12600WAT     H238043   8.942   8.779   3.191
12601WAT      O38044   4.968   2.268   2.539
12601WAT     H138045   4.961   2.271   2.440
12601WAT     H238046   4.876   2.274   2.579
12602WAT      O38047   5.560   2.019   2.480
12602WAT     H138048   5.590   2.047   2.571
12602WAT     H238049   5.469   2.057   2.463
12603WAT      O38050   8.884   1.335   5.133
12603WAT     H138051   8.862   1.333   5.035
12603WAT     H238052   8.881   1.429   5.166
12604WAT      O38053   7.046   2.155   9.403
12604WAT     H138054   7.007   2.086   9.342
12604WAT     H238055   7.030   2.128   9.498
12605WAT      O38056   6.065   0.023   7.053
12605WAT     H138057   6.035   0.090   6.986
12605WAT     H238058   5.986  -0.007   7.108
12606WAT      O38059   1.021   4.685   1.936
12606WAT     H138060   0.984   4.699   2.028
12606WAT     H238061   0.954   4.716   1.868
12607WAT      O38062   9.305   7.517   5.861
12607WAT     H138063   9.286   7.466   5.945
12607WAT     H238064   9.279   7.462   5.782
12608WAT      O38065   8.870   9.013   5.007
12608WAT     H138066   8.880   9.108   5.035
12608WAT     H238067   8.808   9.007   4.929
12609WAT      O38068   1.947   4.623   8.330
12609WAT     H138069   1.899   4.543   8.295
12609WAT     H238070   1.933   4.630   8.429
12610WAT      O38071   0.023   3.886   2.577
12610WAT     H138072   0.121   3.871   2.595
12610WAT     H238073  -0.002   3.978   2.608
12611WAT      O38074   9.030   1.846   7.474
12611WAT     H138075   9.129   1.836   7.478
12611WAT     H238076   9.001   1.852   7.378
12612WAT      O38077   6.795   3.291   0.894
12612WAT     H138078   6.779   3.269   0.797
12612WAT     H238079   6.714   3.335   0.932
12613WAT      O38080   7.598   8.898   3.628
12613WAT     H138081   7.606   8.978   3.568
12613WAT     H238082   7.533   8.833   3.590
12614WAT      O38083   4.682   7.925   4.432
12614WAT     H138084   4.737   7.882   4.504
12614WAT     H238085   4.604   7.972   4.473
12615WAT      O38086   0.258   5.195   1.658
12615WAT     H138087   0.317   5.227   1.583
12615WAT     H238088   0.212   5.272   1.700
12616WAT      O38089   8.767   0.425   4.125
12616WAT     H138090   8.725   0.445   4.214
12616WAT     H238091   8.749   0.500   4.062
12617WAT      O38092   6.025   9.545   1.535
12617WAT     H138093   6.015   9.446   1.537
12617WAT     H238094   6.099   9.572   1.597
12618WAT      O38095   5.740   0.440   6.835
12618WAT     H138096   5.719   0.386   6.753
12618WAT     H238097   5.655   0.459   6.885
12619WAT      O38098   1.300   2.174   3.804
12619WAT     H138099   1.346   2.086   3.788
12619WAT     H238100   1.360   2.249   3.777
12620WAT      O38101   9.572   9.197   9.579
12620WAT     H138102   9.653   9.173   9.632
12620WAT     H238103   9.597   9.263   9.508
12621WAT      O38104   6.345   2.828   7.858
12621WAT     H138105   6.324   2.732   7.843
12621WAT     H238106   6.442   2.839   7.877
12622WAT      O38107   1.185   3.748   0.567
12622WAT     H138108   1.125   3.827   0.579
12622WAT     H238109   1.219   3.747   0.473
12623WAT      O38110   9.509   4.664   7.119
12623WAT     H138111   9.542   4.622   7.035
12623WAT     H238112   9.560   4.749   7.136
12624WAT      O38113   5.254   3.337   8.816
12624WAT     H138114   5.346   3.298   8.809
12624WAT     H238115   5.247   3.390   8.900
12625WAT      O38116   5.847   2.150   8.768
12625WAT     H138117   5.918   2.091   8.728
12625WAT     H238118   5.779   2.171   8.698
12626WAT      O38119   1.583   5.469   7.672
12626WAT     H138120   1.506   5.419   7.711
12626WAT     H238121   1.659   5.470   7.736
12627WAT      O38122   7.730   5.946   3.975
12627WAT     H138123   7.648   5.888   3.968
12627WAT     H238124   7.702   6.042   3.977
12628WAT      O38125   6.362   5.910   5.558
12628WAT     H138126   6.379   5.867   5.470
12628WAT     H238127   6.263   5.913   5.575
12629WAT      O38128   7.616   6.861   6.586
12629WAT     H138129   7.605   6.946   6.534
12629WAT     H238130   7.655   6.881   6.675
12630WAT      O38131   1.315   7.139   4.046
12630WAT     H138132   1.410   7.138   4.077
12630WAT     H238133   1.257   7.178   4.117
12631WAT      O38134   3.097   8.932   6.223
12631WAT     H138135   3.142   8.853   6.263
12631WAT     H238136   3.013   8.953   6.273
12632WAT      O38137   7.138   3.046   5.599
12632WAT     H138138   7.059   3.063   5.659
12632WAT     H238139   7.107   3.000   5.516
12633WAT      O38140   4.821   6.656   5.040
12633WAT     H138141   4.832   6.639   4.942
12633WAT     H238142   4.834   6.570   5.091
12634WAT      O38143   3.309   7.066   6.066
12634WAT     H138144   3.345   7.091   5.976
12634WAT     H238145   3.383   7.066   6.133
12635WAT      O38146   7.032   0.495   7.244
12635WAT     H138147   6.992   0.547   7.319
12635WAT     H238148   6.960   0.467   7.181
12636WAT      O38149   3.196   8.946   0.086
12636WAT     H138150   3.144   8.865   0.110
12636WAT     H238151   3.294   8.925   0.088
12637WAT      O38152   6.868   5.874   7.332
12637WAT     H138153   6.774   5.880   7.297
12637WAT     H238154   6.923   5.817   7.272
12638WAT      O38155   2.203   7.600   7.397
12638WAT     H138156   2.189   7.508   7.432
12638WAT     H238157   2.206   7.597   7.297
12639WAT      O38158   1.495   4.337   7.836
12639WAT     H138159   1.537   4.257   7.879
12639WAT     H238160   1.548   4.419   7.860
12640WAT      O38161   8.515   2.121   5.220
12640WAT     H138162   8.549   2.208   5.257
12640WAT     H238163   8.518   2.052   5.292
12641WAT      O38164   4.832   7.791   1.430
12641WAT     H138165   4.923   7.828   1.407
12641WAT     H238166   4.809   7.816   1.524
12642WAT      O38167   7.633   8.404   5.225
12642WAT     H138168   7.598   8.395   5.132
12642WAT     H238169   7.632   8.500   5.253
12643WAT      O38170   5.821   8.908   7.159
12643WAT     H138171   5.841   8.812   7.137
12643WAT     H238172   5.746   8.940   7.100
12644WAT      O38173   5.955   5.859   9.570
12644WAT     H138174   5.902   5.774   9.561
12644WAT     H238175   5.967   5.880   9.667
12645WAT      O38176   8.612   8.623   0.315
12645WAT     H138177   8.512   8.622   0.314
12645WAT     H238178   8.645   8.568   0.393
12646WAT      O38179   1.743   7.336   9.877
12646WAT     H138180   1.811   7.403   9.844
12646WAT     H238181   1.720   7.274   9.803
12647WAT      O38182   4.300   5.673   5.958
12647WAT     H138183   4.264   5.738   6.025
12647WAT     H238184   4.336   5.723   5.879
12648WAT      O38185   9.264   5.364   7.640
12648WAT     H138186   9.262   5.357   7.540
12648WAT     H238187   9.193   5.306   7.679
12649WAT      O38188   5.295   7.857   7.392
12649WAT     H138189   5.324   7.867   7.487
12649WAT     H238190   5.215   7.797   7.388
12650WAT      O38191   5.935   3.818   4.812
12650WAT     H138192   5.906   3.723   4.815
12650WAT     H238193   5.880   3.869   4.746
12651WAT      O38194   0.567   3.787   7.857
12651WAT     H138195   0.536   3.804   7.763
12651WAT     H238196   0.657   3.827   7.870
12652WAT      O38197   5.660   2.202   0.176
12652WAT     H138198   5.594   2.178   0.247
12652WAT     H238199   5.620   2.271   0.116
12653WAT      O38200   3.974   4.510   9.290
12653WAT     H138201   3.993   4.413   9.279
12653WAT     H238202   4.050   4.554   9.338
12654WAT      O38203   7.392   5.715   8.491
12654WAT     H138204   7.401   5.745   8.396
12654WAT     H238205   7.372   5.794   8.549
12655WAT      O38206   8.208   8.011   0.502
12655WAT     H138207   8.128   7.955   0.481
12655WAT     H238208   8.224   8.076   0.428
12656WAT      O38209   9.508   1.116   4.310
12656WAT     H138210   9.588   1.158   4.353
12656WAT     H238211   9.535   1.029   4.267
12657WAT      O38212   0.675   2.116   3.051
12657WAT     H138213   0.577   2.105   3.034
12657WAT     H238214   0.692   2.203   3.097
12658WAT      O38215   0.655   7.511   5.012
12658WAT     H138216   0.601   7.471   4.938
12658WAT     H238217   0.665   7.610   4.996
12659WAT      O38218   1.801   4.179   2.957
12659WAT     H138219   1.733   4.239   3.000
12659WAT     H238220   1.779   4.169   2.860
12660WAT      O38221   7.055   6.770   4.918
12660WAT     H138222   7.030   6.785   4.822
12660WAT     H238223   7.091   6.677   4.928
12661WAT      O38224   0.257   9.082   2.018
12661WAT     H138225   0.163   9.101   1.990
12661WAT     H238226   0.287   8.995   1.979
12662WAT      O38227   0.106   3.605   0.326
12662WAT     H138228   0.015   3.638   0.301
12662WAT     H238229   0.171   3.632   0.255
12663WAT      O38230   8.291   1.051   7.945
12663WAT     H138231   8.316   1.146   7.926
12663WAT     H238232   8.293   1.035   8.044
12664WAT      O38233   4.048   9.095   6.447
12664WAT     H138234   4.101   9.131   6.370
12664WAT     H238235   4.003   9.010   6.420
12665WAT      O38236   8.891   3.590   9.259
12665WAT     H138237   8.925   3.681   9.237
12665WAT     H238238   8.966   3.535   9.297
12666WAT      O38239   6.402   9.596   7.405
12666WAT     H138240   6.445   9.673   7.357
12666WAT     H238241   6.470   9.523   7.417
12667WAT      O38242   9.661   8.899   4.898
12667WAT     H138243   9.754   8.874   4.869
12667WAT     H238244   9.596   8.836   4.857
12668WAT      O38245   6.585   0.403   9.032
12668WAT     H138246   6.576   0.319   9.086
12668WAT     H238247   6.503   0.415   8.976
12669WAT      O38248   8.275   1.922   5.302
12669WAT     H138249   8.359   1.928   5.356
12669WAT     H238250   8.200   1.962   5.354
12670WAT      O38251   1.290   9.107   1.644
12670WAT     H138252   1.320   9.174   1.712
12670WAT     H238253   1.367   9.081   1.586
12671WAT      O38254   0.805   6.278   3.862
12671WAT     H138255   0.787   6.209   3.791
12671WAT     H238256   0.722   6.332   3.878
12672WAT      O38257   4.551   7.506   7.924
12672WAT     H138258   4.531   7.493   7.827
12672WAT     H238259   4.479   7.561   7.966
12673WAT      O38260   5.557   3.676   3.648
12673WAT     H138261   5.539   3.698   3.552
12673WAT     H238262   5.476   3.699   3.703
12674WAT      O38263   1.446   2.989   8.341
12674WAT     H138264   1.528   3.005   8.395
12674WAT     H238265   1.394   3.074   8.334
12675WAT      O38266   6.430   6.286   8.688
12675WAT     H138267   6.456   6.342   8.609
12675WAT     H238268   6.333   6.263   8.682
12676WAT      O38269   8.098   4.856   7.859
12676WAT     H138270   8.139   4.946   7.848
12676WAT     H238271   8.169   4.791   7.887
12677WAT      O38272   3.519   8.418   3.943
12677WAT     H138273   3.598   8.468   3.980
12677WAT     H238274   3.450   8.483   3.912
12678WAT      O38275   3.520   4.642   1.785
12678WAT     H138276   3.513   4.543   1.772
12678WAT     H238277   3.463   4.670   1.863
12679WAT      O38278   9.303   5.660   2.074
12679WAT     H138279   9.232   5.680   2.140
12679WAT     H238280   9.270   5.592   2.009
12680WAT      O38281   2.319   5.028   6.918
12680WAT     H138282   2.238   4.977   6.946
12680WAT     H238283   2.309   5.124   6.944
12681WAT      O38284   7.032   7.586   3.253
12681WAT     H138285   7.057   7.502   3.206
12681WAT     H238286   6.967   7.638   3.198
12682WAT      O38287   9.140   7.101   0.544
12682WAT     H138288   9.166   7.004   0.543
12682WAT     H238289   9.075   7.118   0.470
12683WAT      O38290   6.337   4.089   4.253
12683WAT     H138291   6.344   4.184   4.283
12683WAT     H238292   6.337   4.028   4.332
12684WAT      O38293   8.178   3.943   8.299
12684WAT     H138294   8.240   3.865   8.309
12684WAT     H238295   8.101   3.917   8.241
12685WAT      O38296   8.777   8.360   0.335
12685WAT     H138297   8.702   8.296   0.345
12685WAT     H238298   8.824   8.344   0.248
12686WAT      O38299   6.959   4.643   0.448
12686WAT     H138300   6.960   4.742   0.462
12686WAT     H238301   6.866   4.609   0.461
12687WAT      O38302   5.481   2.157   6.056
12687WAT     H138303   5.436   2.071   6.079
12687WAT     H238304   5.554   2.140   5.989
12688WAT      O38305   4.316   3.408   9.770
12688WAT     H138306   4.217   3.417   9.786
12688WAT     H238307   4.365   3.449   9.847
12689WAT      O38308   0.184   2.668   6.890
12689WAT     H138309   0.123   2.744   6.868
12689WAT     H238310   0.264   2.672   6.830
12690WAT      O38311   5.225   3.512   4.400
12690WAT     H138312   5.320   3.483   4.412
12690WAT     H238313   5.217   3.610   4.414
12691WAT      O38314   2.773   3.895   9.430
12691WAT     H138315   2.731   3.804   9.438
12691WAT     H238316   2.785   3.917   9.333
12692WAT      O38317   6.671   2.137   9.610
12692WAT     H138318   6.661   2.234   9.587
12692WAT     H238319   6.768   2.112   9.607
12693WAT      O38320   7.440   5.706   4.548
12693WAT     H138321   7.403   5.701   4.640
12693WAT     H238322   7.539   5.722   4.553
12694WAT      O38323   3.136   0.976   2.614
12694WAT     H138324   3.217   0.973   2.556
12694WAT     H238325   3.118   1.071   2.640
12695WAT      O38326   0.789   4.827   6.425
12695WAT     H138327   0.825   4.748   6.475
12695WAT     H238328   0.761   4.898   6.490
12696WAT      O38329   7.773   8.242   0.809
12696WAT     H138330   7.835   8.295   0.752
12696WAT     H238331   7.735   8.300   0.881
12697WAT      O38332   3.238   8.590   4.596
12697WAT     H138333   3.291   8.582   4.680
12697WAT     H238334   3.144   8.616   4.618
12698WAT      O38335   7.324   1.681   9.596
12698WAT     H138336   7.407   1.642   9.555
12698WAT     H238337   7.248   1.672   9.532
12699WAT      O38338   4.741   8.117   4.690
12699WAT     H138339   4.783   8.168   4.615
12699WAT     H238340   4.811   8.063   4.737
12700WAT      O38341   1.774   6.484   2.800
12700WAT     H138342   1.856   6.462   2.748
12700WAT     H238343   1.744   6.403   2.851
12701WAT      O38344   5.313   0.853   1.938
12701WAT     H138345   5.271   0.927   1.990
12701WAT     H238346   5.331   0.884   1.845
12702WAT      O38347   5.657   8.452   1.993
12702WAT     H138348   5.631   8.360   1.966
12702WAT     H238349   5.657   8.459   2.092
12703WAT      O38350   0.993   4.288   2.482
12703WAT     H138351   0.905   4.328   2.510
12703WAT     H238352   1.067   4.353   2.503
12704WAT      O38353   4.772   8.542   1.576
12704WAT     H138354   4.731   8.634   1.574
12704WAT     H238355   4.780   8.508   1.482
12705WAT      O38356   2.587   2.759   0.934
12705WAT     H138357   2.521   2.769   0.859
12705WAT     H238358   2.666   2.818   0.916
12706WAT      O38359   5.196   7.479   1.830
12706WAT     H138360   5.122   7.515   1.773
12706WAT     H238361   5.245   7.555   1.872
12707WAT      O38362   1.804   2.961   1.474
12707WAT     H138363   1.758   3.034   1.525
12707WAT     H238364   1.846   3.000   1.391
12708WAT      O38365   3.313   9.089   9.379
12708WAT     H138366   3.280   9.084   9.285
12708WAT     H238367   3.401   9.042   9.386
12709WAT      O38368   0.328   0.131   9.273
12709WAT     H138369   0.413   0.139   9.324
12709WAT     H238370   0.251   0.126   9.336
12710WAT      O38371   7.927   1.634   2.056
12710WAT     H138372   7.946   1.543   2.093
12710WAT     H238373   7.830   1.654   2.068
12711WAT      O38374   4.656   2.956   4.052
12711WAT     H138375   4.590   2.972   3.979
12711WAT     H238376   4.680   3.044   4.094
12712WAT      O38377   9.789   9.642   3.046
12712WAT     H138378   9.886   9.653   3.069
12712WAT     H238379   9.750   9.570   3.104
12713WAT      O38380   3.172   4.835   3.626
12713WAT     H138381   3.089   4.783   3.605
12713WAT     H238382   3.252   4.776   3.617
12714WAT      O38383   1.847   0.835   5.616
12714WAT     H138384   1.789   0.809   5.692
12714WAT     H238385   1.791   0.872   5.542
12715WAT      O38386   7.143   0.791   5.898
12715WAT     H138387   7.110   0.736   5.821
12715WAT     H238388   7.237   0.764   5.920
12716WAT      O38389   7.044   9.439   2.462
12716WAT     H138390   7.107   9.416   2.536
12716WAT     H238391   7.061   9.379   2.383
12717WAT      O38392   9.088   4.931   2.204
12717WAT     H138393   9.119   4.881   2.123
12717WAT     H238394   9.060   4.866   2.275
12718WAT      O38395   4.595   5.036   7.746
12718WAT     H138396   4.541   5.109   7.704
12718WAT     H238397   4.535   4.962   7.774
12719WAT      O38398   8.295   8.449   5.092
12719WAT     H138399   8.237   8.471   5.171
12719WAT     H238400   8.358   8.376   5.118
12720WAT      O38401   1.564   8.919   1.089
12720WAT     H138402   1.626   8.959   1.156
12720WAT     H238403   1.545   8.987   1.018
12721WAT      O38404   8.227   8.971   8.386
12721WAT     H138405   8.292   8.921   8.329
12721WAT     H238406   8.242   8.948   8.482
12722WAT      O38407   2.756   3.736   8.355
12722WAT     H138408   2.853   3.750   8.336
12722WAT     H238409   2.701   3.767   8.277
12723WAT      O38410   3.244   0.164   0.724
12723WAT     H138411   3.164   0.160   0.664
12723WAT     H238412   3.301   0.084   0.709
12724WAT      O38413   8.858   6.482   2.337
12724WAT     H138414   8.873   6.572   2.296
12724WAT     H238415   8.830   6.417   2.266
12725WAT      O38416   5.009   6.336   9.378
12725WAT     H138417   5.046   6.421   9.342
12725WAT     H238418   4.911   6.332   9.360
12726WAT      O38419   9.340   5.767   2.676
12726WAT     H138420   9.338   5.848   2.617
12726WAT     H238421   9.360   5.687   2.620
12727WAT      O38422   9.867   0.669   2.749
12727WAT     H138423   9.917   0.695   2.665
12727WAT     H238424   9.884   0.573   2.769
12728WAT      O38425   3.072   2.237   7.489
12728WAT     H138426   3.004   2.164   7.497
12728WAT     H238427   3.160   2.199   7.462
12729WAT      O38428   5.510   2.587   0.479
12729WAT     H138429   5.460   2.609   0.563
12729WAT     H238430   5.459   2.518   0.427
12730WAT      O38431   0.936   1.086   4.211
12730WAT     H138432   1.025   1.051   4.184
12730WAT     H238433   0.893   1.132   4.134
12731WAT      O38434   9.462   4.671   1.459
12731WAT     H138435   9.545   4.710   1.499
12731WAT     H238436   9.389   4.673   1.527
12732WAT      O38437   9.688   1.370   0.943
12732WAT     H138438   9.604   1.324   0.912
12732WAT     H238439   9.725   1.425   0.868
12733WAT      O38440   5.478   9.780   7.880
12733WAT     H138441   5.453   9.752   7.973
12733WAT     H238442   5.398   9.818   7.834
12734WAT      O38443   9.308   6.976   4.998
12734WAT     H138444   9.354   6.907   4.942
12734WAT     H238445   9.376   7.035   5.041
12735WAT      O38446   5.862   5.934   2.930
12735WAT     H138447   5.795   5.863   2.951
12735WAT     H238448   5.849   6.011   2.992
12736WAT      O38449   2.289   6.905   4.763
12736WAT     H138450   2.360   6.974   4.753
12736WAT     H238451   2.309   6.827   4.703
12737WAT      O38452   5.622   8.114   6.099
12737WAT     H138453   5.682   8.038   6.072
12737WAT     H238454   5.532   8.102   6.057
12738WAT      O38455   9.391   6.468   4.740
12738WAT     H138456   9.454   6.501   4.670
12738WAT     H238457   9.304   6.515   4.731
12739WAT      O38458   4.307   0.186   2.394
12739WAT     H138459   4.367   0.263   2.373
12739WAT     H238460   4.347   0.133   2.470
12740WAT      O38461   4.497   1.573   4.460
12740WAT     H138462   4.561   1.649   4.449
12740WAT     H238463   4.486   1.552   4.557
12741WAT      O38464   8.226   0.649   2.698
12741WAT     H138465   8.129   0.624   2.712
12741WAT     H238466   8.278   0.566   2.677
12742WAT      O38467   7.421   6.056   2.761
12742WAT     H138468   7.406   6.145   2.803
12742WAT     H238469   7.367   5.987   2.809
12743WAT      O38470   7.122   5.268   9.152
12743WAT     H138471   7.141   5.254   9.055
12743WAT     H238472   7.072   5.354   9.164
12744WAT      O38473   5.975   6.760   3.813
12744WAT     H138474   6.013   6.709   3.736
12744WAT     H238475   6.046   6.778   3.881
12745WAT      O38476   7.194   5.862   1.274
12745WAT     H138477   7.176   5.951   1.316
12745WAT     H238478   7.188   5.790   1.343
12746WAT      O38479   1.163   5.214   2.862
12746WAT     H138480   1.106   5.257   2.792
12746WAT     H238481   1.105   5.181   2.936
12747WAT      O38482   3.003   0.369   6.868
12747WAT     H138483   2.957   0.320   6.943
12747WAT     H238484   3.071   0.310   6.827
12748WAT      O38485   8.846   0.612   6.085
12748WAT     H138486   8.874   0.624   6.181
12748WAT     H238487   8.808   0.698   6.051
12749WAT      O38488   6.268   5.555   0.048
12749WAT     H138489   6.320   5.557   0.133
12749WAT     H238490   6.316   5.608  -0.022
12750WAT      O38491   5.954   4.334   2.836
12750WAT     H138492   5.949   4.401   2.762
12750WAT     H238493   5.891   4.359   2.909
12751WAT      O38494   1.884   3.260   6.687
12751WAT     H138495   1.829   3.217   6.758
12751WAT     H238496   1.952   3.195   6.654
12752WAT      O38497   6.008   0.070   7.649
12752WAT     H138498   6.001   0.170   7.658
12752WAT     H238499   5.916   0.031   7.648
12753WAT      O38500   5.049   2.793   9.665
12753WAT     H138501   5.137   2.762   9.701
12753WAT     H238502   5.012   2.865   9.724
12754WAT      O38503   2.232   5.597   8.592
12754WAT     H138504   2.231   5.688   8.632
12754WAT     H238505   2.249   5.529   8.664
12755WAT      O38506   6.366   0.569   0.270
12755WAT     H138507   6.269   0.595   0.271
12755WAT     H238508   6.396   0.556   0.175
12756WAT      O38509   7.035   9.571   7.525
12756WAT     H138510   6.997   9.657   7.493
12756WAT     H238511   7.011   9.498   7.462
12757WAT      O38512   4.939   8.967   8.214
12757WAT     H138513   4.956   8.979   8.312
12757WAT     H238514   4.878   9.039   8.182
12758WAT      O38515   1.216   2.759   4.784
12758WAT     H138516   1.255   2.705   4.709
12758WAT     H238517   1.151   2.825   4.747
12759WAT      O38518   3.104   4.549   8.177
12759WAT     H138519   3.012   4.571   8.143
12759WAT     H238520   3.142   4.474   8.124
12760WAT      O38521   1.566   8.986   8.831
12760WAT     H138522   1.533   8.923   8.761
12760WAT     H238523   1.633   8.940   8.889
12761WAT      O38524   7.744   9.419   4.625
12761WAT     H138525   7.841   9.433   4.608
12761WAT     H238526   7.697   9.399   4.539
12762WAT      O38527   3.865   0.482   7.837
12762WAT     H138528   3.894   0.458   7.745
12762WAT     H238529   3.767   0.467   7.847
12763WAT      O38530   8.711   0.978   1.370
12763WAT     H138531   8.711   0.991   1.469
12763WAT     H238532   8.733   0.883   1.349
12764WAT      O38533   0.677   0.600   0.043
12764WAT     H138534   0.762   0.595  -0.009
12764WAT     H238535   0.623   0.517   0.027
12765WAT      O38536   4.186   0.363   9.477
12765WAT     H138537   4.280   0.369   9.446
12765WAT     H238538   4.125   0.350   9.398
12766WAT      O38539   4.340   6.800   9.820
12766WAT     H138540   4.347   6.781   9.918
12766WAT     H238541   4.284   6.881   9.806
12767WAT      O38542   4.126   6.666   2.714
12767WAT     H138543   4.113   6.606   2.793
12767WAT     H238544   4.118   6.762   2.743
12768WAT      O38545   0.533   9.730   5.355
12768WAT     H138546   0.498   9.766   5.269
12768WAT     H238547   0.632   9.747   5.361
12769WAT      O38548   1.765   4.819   7.784
12769WAT     H138549   1.832   4.816   7.709
12769WAT     H238550   1.751   4.914   7.812
12770WAT      O38551   0.749   7.930   8.784
12770WAT     H138552   0.829   7.939   8.725
12770WAT     H238553   0.778   7.896   8.874
12771WAT      O38554   8.269   0.934   7.334
12771WAT     H138555   8.178   0.974   7.323
12771WAT     H238556   8.304   0.905   7.245
12772WAT      O38557   5.860   9.555   7.853
12772WAT     H138558   5.772   9.564   7.806
12772WAT     H238559   5.933   9.540   7.786
12773WAT      O38560   7.539   4.910   9.239
12773WAT     H138561   7.548   4.981   9.169
12773WAT     H238562   7.595   4.831   9.213
12774WAT      O38563   5.511   0.985   0.880
12774WAT     H138564   5.495   0.899   0.929
12774WAT     H238565   5.529   1.058   0.945
12775WAT      O38566   8.011   5.174   1.128
12775WAT     H138567   8.041   5.089   1.170
12775WAT     H238568   8.077   5.247   1.147
12776WAT      O38569   2.525   7.153   1.265
12776WAT     H138570   2.441   7.110   1.234
12776WAT     H238571   2.542   7.129   1.361
12777WAT      O38572   5.457   7.177   1.900
12777WAT     H138573   5.394   7.190   1.977
12777WAT     H238574   5.508   7.262   1.885
12778WAT      O38575   4.441   6.551   3.562
12778WAT     H138576   4.475   6.559   3.656
12778WAT     H238577   4.351   6.509   3.563
12779WAT      O38578   9.330   0.526   6.773
12779WAT     H138579   9.417   0.477   6.787
12779WAT     H238580   9.289   0.546   6.862
12780WAT      O38581   7.383   3.209   3.603
12780WAT     H138582   7.364   3.303   3.574
12780WAT     H238583   7.480   3.190   3.593
12781WAT      O38584   7.181   3.672   9.829
12781WAT     H138585   7.123   3.753   9.839
12781WAT     H238586   7.187   3.647   9.732
12782WAT      O38587   7.366   1.905   7.459
12782WAT     H138588   7.446   1.847   7.442
12782WAT     H238589   7.316   1.918   7.374
12783WAT      O38590   1.671   6.694   5.123
12783WAT     H138591   1.582   6.738   5.131
12783WAT     H238592   1.699   6.694   5.027
12784WAT      O38593   2.232   9.816   2.164
12784WAT     H138594   2.300   9.889   2.170
12784WAT     H238595   2.190   9.802   2.254
12785WAT      O38596   9.455   0.074   3.296
12785WAT     H138597   9.375   0.031   3.255
12785WAT     H238598   9.538   0.038   3.252
12786WAT      O38599   7.227   4.674   4.381
12786WAT     H138600   7.320   4.663   4.345
12786WAT     H238601   7.166   4.609   4.335
12787WAT      O38602   6.483   9.463   9.308
12787WAT     H138603   6.462   9.541   9.367
12787WAT     H238604   6.559   9.486   9.248
12788WAT      O38605   2.696   7.453   5.923
12788WAT     H138606   2.598   7.444   5.945
12788WAT     H238607   2.747   7.470   6.007
12789WAT      O38608   6.158   2.831   2.214
12789WAT     H138609   6.163   2.909   2.276
12789WAT     H238610   6.168   2.863   2.120
12790WAT      O38611   4.631   8.430   4.597
12790WAT     H138612   4.531   8.429   4.608
12790WAT     H238613   4.674   8.434   4.687
12791WAT      O38614   2.442   3.435   1.004
12791WAT     H138615   2.503   3.483   0.940
12791WAT     H238616   2.475   3.342   1.017
12792WAT      O38617   0.238   2.226   0.328
12792WAT     H138618   0.267   2.240   0.423
12792WAT     H238619   0.172   2.151   0.324
12793WAT      O38620   4.017   5.238   2.863
12793WAT     H138621   4.023   5.193   2.952
12793WAT     H238622   3.981   5.331   2.875
12794WAT      O38623   8.077   6.650   0.657
12794WAT     H138624   8.108   6.571   0.604
12794WAT     H238625   8.005   6.698   0.606
12795WAT      O38626   4.766   4.132   1.002
12795WAT     H138627   4.751   4.231   0.999
12795WAT     H238628   4.848   4.109   0.950
12796WAT      O38629   5.469   2.259   4.555
12796WAT     H138630   5.535   2.308   4.612
12796WAT     H238631   5.456   2.167   4.592
12797WAT      O38632   1.296   1.589   5.656
12797WAT     H138633   1.343   1.501   5.659
12797WAT     H238634   1.207   1.581   5.701
12798WAT      O38635   9.248   2.568   0.487
12798WAT     H138636   9.180   2.516   0.539
12798WAT     H238637   9.272   2.518   0.404
12799WAT      O38638   6.283   6.546   0.446
12799WAT     H138639   6.190   6.569   0.419
12799WAT     H238640   6.339   6.532   0.365
12800WAT      O38641   0.779   1.620   5.751
12800WAT     H138642   0.728   1.576   5.677
12800WAT     H238643   0.722   1.621   5.834
12801WAT      O38644   6.725   7.135   6.943
12801WAT     H138645   6.720   7.087   7.030
12801WAT     H238646   6.639   7.185   6.927
12802WAT      O38647   5.821   3.835   6.948
12802WAT     H138648   5.794   3.883   7.032
12802WAT     H238649   5.916   3.855   6.927
12803WAT      O38650   6.602   3.652   5.576
12803WAT     H138651   6.636   3.745   5.568
12803WAT     H238652   6.661   3.600   5.637
12804WAT      O38653   0.958   4.103   2.278
12804WAT     H138654   1.037   4.109   2.217
12804WAT     H238655   0.978   4.151   2.363
12805WAT      O38656   9.542   6.549   6.525
12805WAT     H138657   9.637   6.527   6.504
12805WAT     H238658   9.529   6.555   6.624
12806WAT      O38659   4.951   1.825   3.785
12806WAT     H138660   4.937   1.823   3.686
12806WAT     H238661   4.885   1.764   3.829
12807WAT      O38662   0.293   9.590   8.732
12807WAT     H138663   0.257   9.683   8.740
12807WAT     H238664   0.386   9.593   8.695
12808WAT      O38665   4.242   1.408   5.095
12808WAT     H138666   4.196   1.465   5.164
12808WAT     H238667   4.340   1.407   5.112
12809WAT      O38668   4.085   3.342   8.720
12809WAT     H138669   3.991   3.325   8.748
12809WAT     H238670   4.132   3.254   8.705
12810WAT      O38671   1.138   8.515   4.212
12810WAT     H138672   1.140   8.518   4.312
12810WAT     H238673   1.126   8.421   4.182
12811WAT      O38674   7.179   3.383   2.056
12811WAT     H138675   7.197   3.476   2.089
12811WAT     H238676   7.152   3.325   2.133
12812WAT      O38677   0.285   0.916   6.966
12812WAT     H138678   0.229   0.852   6.912
12812WAT     H238679   0.337   0.865   7.034
12813WAT      O38680   0.172   3.449   6.880
12813WAT     H138681   0.105   3.410   6.943
12813WAT     H238682   0.222   3.523   6.925
12814WAT      O38683   1.373   9.792   4.153
12814WAT     H138684   1.328   9.720   4.206
12814WAT     H238685   1.317   9.814   4.073
12815WAT      O38686   0.827   5.280   5.061
12815WAT     H138687   0.801   5.191   5.023
12815WAT     H238688   0.748   5.341   5.060
12816WAT      O38689   8.435   3.066   9.646
12816WAT     H138690   8.484   3.039   9.729
12816WAT     H238691   8.402   2.985   9.599
12817WAT      O38692   2.408   7.500   6.033
12817WAT     H138693   2.446   7.509   6.125
12817WAT     H238694   2.426   7.408   5.999
12818WAT      O38695   0.252   6.826   8.804
12818WAT     H138696   0.205   6.830   8.892
12818WAT     H238697   0.346   6.860   8.815
12819WAT      O38698   7.564   2.160   9.342
12819WAT     H138699   7.469   2.153   9.311
12819WAT     H238700   7.626   2.148   9.264
12820WAT      O38701   0.702   0.651   5.511
12820WAT     H138702   0.638   0.728   5.523
12820WAT     H238703   0.650   0.566   5.504
12821WAT      O38704   1.855   1.195   1.743
12821WAT     H138705   1.881   1.101   1.723
12821WAT     H238706   1.822   1.201   1.837
12822WAT      O38707   4.525   4.041   2.622
12822WAT     H138708   4.539   4.084   2.711
12822WAT     H238709   4.478   3.953   2.633
12823WAT      O38710   5.641   0.596   6.551
12823WAT     H138711   5.657   0.504   6.589
12823WAT     H238712   5.603   0.655   6.622
12824WAT      O38713   7.784   0.498   9.251
12824WAT     H138714   7.738   0.428   9.197
12824WAT     H238715   7.799   0.464   9.344
12825WAT      O38716   7.652   4.970   1.969
12825WAT     H138717   7.718   5.042   1.952
12825WAT     H238718   7.562   4.997   1.933
12826WAT      O38719   0.634   7.824   0.637
12826WAT     H138720   0.617   7.848   0.541
12826WAT     H238721   0.555   7.775   0.673
12827WAT      O38722   5.637   6.387   2.736
12827WAT     H138723   5.659   6.339   2.652
12827WAT     H238724   5.643   6.324   2.813
12828WAT      O38725   8.836   4.767   7.577
12828WAT     H138726   8.773   4.722   7.640
12828WAT     H238727   8.818   4.736   7.483
12829WAT      O38728   8.974   8.192   8.248
12829WAT     H138729   9.028   8.180   8.165
12829WAT     H238730   9.003   8.277   8.294
12830WAT      O38731   0.971   3.101   6.809
12830WAT     H138732   1.065   3.127   6.784
12830WAT     H238733   0.972   3.057   6.899
12831WAT      O38734   9.637   7.877   8.946
12831WAT     H138735   9.693   7.804   8.908
12831WAT     H238736   9.541   7.848   8.948
12832WAT      O38737   5.983   2.757   5.323
12832WAT     H138738   6.022   2.671   5.358
12832WAT     H238739   5.887   2.762   5.348
12833WAT      O38740   1.729   8.345   6.293
12833WAT     H138741   1.789   8.325   6.370
12833WAT     H238742   1.706   8.443   6.292
12834WAT      O38743   1.447   2.254   2.942
12834WAT     H138744   1.395   2.246   2.857
12834WAT     H238745   1.449   2.350   2.970
12835WAT      O38746   1.588   7.986   9.400
12835WAT     H138747   1.675   8.035   9.406
12835WAT     H238748   1.512   8.050   9.411
12836WAT      O38749   0.017   9.042   2.277
12836WAT     H138750   0.031   9.075   2.370
12836WAT     H238751   0.098   8.994   2.246
12837WAT      O38752   1.689   4.884   3.002
12837WAT     H138753   1.593   4.903   2.982
12837WAT     H238754   1.739   4.876   2.916
12838WAT      O38755   1.409   3.053   7.637
12838WAT     H138756   1.368   3.091   7.720
12838WAT     H238757   1.469   2.976   7.661
12839WAT      O38758   3.585   4.864   4.498
12839WAT     H138759   3.653   4.938   4.502
12839WAT     H238760   3.558   4.848   4.403
12840WAT      O38761   9.122   2.556   1.253
12840WAT     H138762   9.053   2.509   1.308
12840WAT     H238763   9.212   2.514   1.269
12841WAT      O38764   8.234   0.902   1.466
12841WAT     H138765   8.167   0.887   1.539
12841WAT     H238766   8.187   0.906   1.378
12842WAT      O38767   3.609   3.399   1.626
12842WAT     H138768   3.594   3.372   1.721
12842WAT     H238769   3.523   3.435   1.588
12843WAT      O38770   6.180   4.494   1.697
12843WAT     H138771   6.157   4.550   1.617
12843WAT     H238772   6.106   4.500   1.764
12844WAT      O38773   7.224   0.396   1.854
12844WAT     H138774   7.287   0.419   1.927
12844WAT     H238775   7.250   0.444   1.770
12845WAT      O38776   1.970   6.997   0.255
12845WAT     H138777   2.056   7.045   0.245
12845WAT     H238778   1.915   7.041   0.327
12846WAT      O38779   9.676   9.465   0.765
12846WAT     H138780   9.716   9.375   0.780
12846WAT     H238781   9.629   9.495   0.847
12847WAT      O38782   7.637   9.085   6.234
12847WAT     H138783   7.554   9.042   6.269
12847WAT     H238784   7.708   9.016   6.224
12848WAT      O38785   7.077   7.603   0.926
12848WAT     H138786   7.032   7.646   1.004
12848WAT     H238787   7.062   7.505   0.928
12849WAT      O38788   7.808   0.737   2.714
12849WAT     H138789   7.847   0.694   2.632
12849WAT     H238790   7.862   0.818   2.738
12850WAT      O38791   7.305   9.723   5.371
12850WAT     H138792   7.247   9.683   5.442
12850WAT     H238793   7.371   9.786   5.413
12851WAT      O38794   1.297   3.033   9.677
12851WAT     H138795   1.302   3.022   9.578
12851WAT     H238796   1.353   3.112   9.704
12852WAT      O38797   1.601   8.721   9.643
12852WAT     H138798   1.534   8.681   9.704
12852WAT     H238799   1.693   8.700   9.676
12853WAT      O38800   3.196   1.550   5.268
12853WAT     H138801   3.159   1.505   5.350
12853WAT     H238802   3.135   1.533   5.191
12854WAT      O38803   6.101   1.020   5.481
12854WAT     H138804   6.148   0.984   5.400
12854WAT     H238805   6.027   0.958   5.507
12855WAT      O38806   2.353   1.025   4.585
12855WAT     H138807   2.409   1.056   4.662
12855WAT     H238808   2.309   0.938   4.608
12856WAT      O38809   7.782   4.698   7.722
12856WAT     H138810   7.858   4.751   7.684
12856WAT     H238811   7.737   4.647   7.649
12857WAT      O38812   2.118   0.972   1.392
12857WAT     H138813   2.195   1.033   1.373
12857WAT     H238814   2.032   1.020   1.373
12858WAT      O38815   5.830   5.386   0.239
12858WAT     H138816   5.895   5.425   0.173
12858WAT     H238817   5.776   5.460   0.280
12859WAT      O38818   7.747   2.901   8.527
12859WAT     H138819   7.695   2.981   8.555
12859WAT     H238820   7.756   2.899   8.428
12860WAT      O38821   5.518   2.770   5.289
12860WAT     H138822   5.618   2.779   5.292
12860WAT     H238823   5.484   2.744   5.379
12861WAT      O38824   5.277   6.187   8.627
12861WAT     H138825   5.236   6.248   8.559
12861WAT     H238826   5.331   6.240   8.691
12862WAT      O38827   7.480   3.902   5.211
12862WAT     H138828   7.549   3.829   5.212
12862WAT     H238829   7.526   3.991   5.215
12863WAT      O38830   3.183   9.369   3.696
12863WAT     H138831   3.152   9.350   3.603
12863WAT     H238832   3.135   9.449   3.731
12864WAT      O38833   5.878   8.980   6.781
12864WAT     H138834   5.930   8.903   6.817
12864WAT     H238835   5.897   9.062   6.836
12865WAT      O38836   4.730   0.010   7.432
12865WAT     H138837   4.823  -0.018   7.457
12865WAT     H238838   4.704   0.090   7.486
12866WAT      O38839   0.002   2.228   7.401
12866WAT     H138840  -0.045   2.316   7.392
12866WAT     H238841   0.100   2.244   7.413
12867WAT      O38842   7.808   7.606   7.522
12867WAT     H138843   7.836   7.652   7.438
12867WAT     H238844   7.756   7.670   7.579
12868WAT      O38845   2.584   5.308   6.477
12868WAT     H138846   2.659   5.340   6.536
12868WAT     H238847   2.619   5.291   6.385
12869WAT      O38848   8.514   7.822   8.731
12869WAT     H138849   8.570   7.901   8.705
12869WAT     H238850   8.474   7.782   8.648
12870WAT      O38851   2.722   0.558   2.504
12870WAT     H138852   2.678   0.642   2.535
12870WAT     H238853   2.770   0.515   2.580
12871WAT      O38854   2.519   4.033   0.900
12871WAT     H138855   2.591   4.095   0.931
12871WAT     H238856   2.545   3.993   0.812
12872WAT      O38857   0.620   2.488   1.199
12872WAT     H138858   0.654   2.518   1.288
12872WAT     H238859   0.689   2.504   1.129
12873WAT      O38860   3.497   3.385   7.764
12873WAT     H138861   3.589   3.365   7.797
12873WAT     H238862   3.487   3.350   7.671
12874WAT      O38863   6.832   9.692   0.499
12874WAT     H138864   6.842   9.647   0.587
12874WAT     H238865   6.878   9.781   0.501
12875WAT      O38866   5.032   0.479   1.617
12875WAT     H138867   5.115   0.535   1.624
12875WAT     H238868   4.956   0.525   1.662
12876WAT      O38869   5.364   0.480   2.261
12876WAT     H138870   5.346   0.578   2.258
12876WAT     H238871   5.448   0.460   2.209
12877WAT      O38872   5.490   6.665   4.043
12877WAT     H138873   5.526   6.637   3.954
12877WAT     H238874   5.432   6.746   4.033
12878WAT      O38875   1.008   8.279   7.903
12878WAT     H138876   1.106   8.290   7.890
12878WAT     H238877   0.959   8.332   7.833
12879WAT      O38878   9.121   7.387   2.015
12879WAT     H138879   9.150   7.307   2.066
12879WAT     H238880   9.196   7.454   2.010
12880WAT      O38881   4.571   3.258   5.437
12880WAT     H138882   4.655   3.262   5.492
12880WAT     H238883   4.549   3.349   5.403
12881WAT      O38884   7.454   7.073   8.686
12881WAT     H138885   7.447   7.108   8.592
12881WAT     H238886   7.515   7.131   8.739
12882WAT      O38887   7.818   7.532   8.944
12882WAT     H138888   7.802   7.474   9.024
12882WAT     H238889   7.911   7.569   8.949
12883WAT      O38890   3.130   0.240   3.163
12883WAT     H138891   3.169   0.299   3.234
12883WAT     H238892   3.044   0.201   3.196
12884WAT      O38893   9.143   6.276   9.261
12884WAT     H138894   9.204   6.332   9.206
12884WAT     H238895   9.177   6.181   9.262
12885WAT      O38896   7.068   4.342   5.825
12885WAT     H138897   6.983   4.394   5.816
12885WAT     H238898   7.115   4.367   5.910
12886WAT      O38899   0.841   1.465   9.691
12886WAT     H138900   0.921   1.516   9.658
12886WAT     H238901   0.837   1.377   9.644
12887WAT      O38902   1.147   8.245   1.512
12887WAT     H138903   1.206   8.173   1.549
12887WAT     H238904   1.154   8.245   1.412
12888WAT      O38905   5.412   4.795   7.960
12888WAT     H138906   5.418   4.796   7.860
12888WAT     H238907   5.472   4.723   7.996
12889WAT      O38908   7.388   3.870   2.546
12889WAT     H138909   7.464   3.925   2.579
12889WAT     H238910   7.422   3.788   2.500
12890WAT      O38911   9.358   6.270   4.281
12890WAT     H138912   9.362   6.369   4.273
12890WAT     H238913   9.423   6.228   4.217
12891WAT      O38914   2.018   1.451   0.679
12891WAT     H138915   2.025   1.448   0.579
12891WAT     H238916   1.975   1.537   0.707
12892WAT      O38917   0.975   5.459   5.337
12892WAT     H138918   0.890   5.449   5.285
12892WAT     H238919   0.971   5.399   5.417
12893WAT      O38920   9.219   5.214   6.984
12893WAT     H138921   9.149   5.153   6.947
12893WAT     H238922   9.176   5.298   7.017
12894WAT      O38923   9.548   3.714   6.076
12894WAT     H138924   9.470   3.689   6.018
12894WAT     H238925   9.526   3.798   6.126
12895WAT      O38926   5.438   1.356   3.631
12895WAT     H138927   5.347   1.396   3.638
12895WAT     H238928   5.449   1.313   3.542
12896WAT      O38929   8.726   0.129   8.374
12896WAT     H138930   8.670   0.136   8.292
12896WAT     H238931   8.734   0.033   8.401
12897WAT      O38932   9.826   4.458   8.644
12897WAT     H138933   9.812   4.541   8.590
12897WAT     H238934   9.880   4.481   8.725
12898WAT      O38935   7.704   5.532   9.739
12898WAT     H138936   7.655   5.531   9.652
12898WAT     H238937   7.641   5.509   9.813
12899WAT      O38938   0.981   0.683   1.573
12899WAT     H138939   0.912   0.686   1.501
12899WAT     H238940   1.072   0.684   1.533
12900WAT      O38941   8.811   1.555   5.976
12900WAT     H138942   8.845   1.615   6.048
12900WAT     H238943   8.852   1.464   5.986
12901WAT      O38944   8.402   0.263   2.235
12901WAT     H138945   8.444   0.177   2.206
12901WAT     H238946   8.474   0.330   2.253
12902WAT      O38947   5.322   1.674   1.102
12902WAT     H138948   5.383   1.669   1.182
12902WAT     H238949   5.229   1.694   1.132
12903WAT      O38950   8.888   9.496   4.369
12903WAT     H138951   8.869   9.511   4.272
12903WAT     H238952   8.921   9.403   4.383
12904WAT      O38953   2.351   3.061   2.729
12904WAT     H138954   2.257   3.093   2.739
12904WAT     H238955   2.367   3.034   2.634
12905WAT      O38956   0.632   5.665   8.875
12905WAT     H138957   0.722   5.680   8.835
12905WAT     H238958   0.565   5.648   8.802
12906WAT      O38959   4.061   1.652   9.722
12906WAT     H138960   3.996   1.599   9.777
12906WAT     H238961   4.015   1.686   9.640
12907WAT      O38962   4.736   8.750   9.699
12907WAT     H138963   4.717   8.848   9.699
12907WAT     H238964   4.650   8.698   9.696
12908WAT      O38965   1.315   4.936   6.383
12908WAT     H138966   1.332   4.865   6.451
12908WAT     H238967   1.386   4.933   6.313
12909WAT      O38968   2.454   9.134   0.232
12909WAT     H138969   2.511   9.058   0.261
12909WAT     H238970   2.492   9.174   0.148
12910WAT      O38971   8.948   5.146   4.366
12910WAT     H138972   9.019   5.164   4.298
12910WAT     H238973   8.954   5.214   4.439
12911WAT      O38974   8.310   4.533   2.530
12911WAT     H138975   8.365   4.514   2.612
12911WAT     H238976   8.264   4.449   2.501
12912WAT      O38977   1.354   8.428   5.201
12912WAT     H138978   1.276   8.490   5.189
12912WAT     H238979   1.384   8.430   5.296
12913WAT      O38980   3.256   5.534   5.403
12913WAT     H138981   3.333   5.525   5.339
12913WAT     H238982   3.196   5.608   5.373
12914WAT      O38983   3.877   0.785   5.789
12914WAT     H138984   3.801   0.833   5.834
12914WAT     H238985   3.957   0.844   5.789
12915WAT      O38986   3.027   0.044   3.746
12915WAT     H138987   3.103   0.078   3.690
12915WAT     H238988   2.957   0.115   3.755
12916WAT      O38989   9.430   0.348   3.107
12916WAT     H138990   9.490   0.278   3.067
12916WAT     H238991   9.411   0.326   3.202
12917WAT      O38992   9.849   9.274   5.727
12917WAT     H138993   9.936   9.256   5.774
12917WAT     H238994   9.852   9.364   5.683
12918WAT      O38995   9.492   8.187   9.209
12918WAT     H138996   9.531   8.099   9.236
12918WAT     H238997   9.469   8.185   9.112
12919WAT      O38998   9.427   7.174   6.585
12919WAT     H138999   9.361   7.189   6.659
12919WAT     H239000   9.492   7.250   6.581
12920WAT      O39001   4.839   8.409   2.334
12920WAT     H139002   4.797   8.428   2.423
12920WAT     H239003   4.936   8.429   2.337
12921WAT      O39004   0.677   2.831   2.923
12921WAT     H139005   0.643   2.923   2.940
12921WAT     H239006   0.742   2.832   2.847
12922WAT      O39007   2.625   9.436   0.908
12922WAT     H139008   2.550   9.491   0.871
12922WAT     H239009   2.691   9.417   0.835
12923WAT      O39010   1.418   0.434   1.483
12923WAT     H139011   1.508   0.393   1.469
12923WAT     H239012   1.347   0.363   1.475
12924WAT      O39013   9.880   5.056   6.330
12924WAT     H139014   9.844   5.125   6.394
12924WAT     H239015   9.808   4.992   6.306
12925WAT      O39016   2.125   9.086   6.453
12925WAT     H139017   2.064   9.157   6.490
12925WAT     H239018   2.089   8.996   6.477
12926WAT      O39019   9.724   2.043   5.311
12926WAT     H139020   9.628   2.044   5.282
12926WAT     H239021   9.768   1.960   5.275
12927WAT      O39022   2.844   5.546   7.577
12927WAT     H139023   2.823   5.633   7.533
12927WAT     H239024   2.801   5.471   7.526
12928WAT      O39025   9.684   9.189   8.569
12928WAT     H139026   9.663   9.209   8.473
12928WAT     H239027   9.739   9.263   8.607
12929WAT      O39028   9.452   2.281   3.923
12929WAT     H139029   9.529   2.237   3.878
12929WAT     H239030   9.450   2.254   4.019
12930WAT      O39031   6.972   7.754   1.134
12930WAT     H139032   6.930   7.845   1.137
12930WAT     H239033   6.921   7.692   1.193
12931WAT      O39034   5.173   4.050   6.692
12931WAT     H139035   5.089   4.103   6.700
12931WAT     H239036   5.201   4.016   6.782
12932WAT      O39037   8.348   3.687   8.608
12932WAT     H139038   8.320   3.700   8.513
12932WAT     H239039   8.423   3.750   8.630
12933WAT      O39040   4.398   7.261   2.687
12933WAT     H139041   4.473   7.320   2.716
12933WAT     H239042   4.311   7.305   2.707
12934WAT      O39043   2.009   9.487   6.520
12934WAT     H139044   2.089   9.433   6.495
12934WAT     H239045   2.034   9.553   6.591
12935WAT      O39046   0.542   6.915   2.998
12935WAT     H139047   0.464   6.939   3.056
12935WAT     H239048   0.549   6.815   2.991
12936WAT      O39049   9.378   6.036   7.884
12936WAT     H139050   9.457   6.076   7.838
12936WAT     H239051   9.366   6.080   7.973
12937WAT      O39052   2.667   8.908   0.935
12937WAT     H139053   2.614   8.969   0.994
12937WAT     H239054   2.746   8.958   0.898
12938WAT      O39055   4.437   3.333   6.813
12938WAT     H139056   4.452   3.289   6.901
12938WAT     H239057   4.348   3.306   6.777
12939WAT      O39058   6.042   2.692   6.727
12939WAT     H139059   6.005   2.677   6.819
12939WAT     H239060   6.097   2.775   6.727
12940WAT      O39061   3.385   3.023   9.423
12940WAT     H139062   3.461   2.964   9.399
12940WAT     H239063   3.401   3.115   9.387
12941WAT      O39064   3.401   5.600   3.842
12941WAT     H139065   3.349   5.682   3.818
12941WAT     H239066   3.497   5.613   3.818
12942WAT      O39067   9.796   7.848   0.133
12942WAT     H139068   9.881   7.838   0.081
12942WAT     H239069   9.775   7.763   0.179
12943WAT      O39070   8.769   6.665   5.211
12943WAT     H139071   8.704   6.645   5.284
12943WAT     H239072   8.718   6.684   5.126
12944WAT      O39073   8.187   2.801   0.006
12944WAT     H139074   8.106   2.841   0.049
12944WAT     H239075   8.188   2.702   0.021
12945WAT      O39076   1.213   3.292   2.517
12945WAT     H139077   1.218   3.292   2.417
12945WAT     H239078   1.296   3.250   2.555
12946WAT      O39079   5.701   1.887   2.858
12946WAT     H139080   5.682   1.952   2.785
12946WAT     H239081   5.661   1.919   2.944
12947WAT      O39082   4.549   1.019   0.517
12947WAT     H139083   4.559   1.002   0.419
12947WAT     H239084   4.555   0.932   0.566
12948WAT      O39085   7.634   9.016   0.929
12948WAT     H139086   7.572   9.039   1.004
12948WAT     H239087   7.589   8.952   0.867
12949WAT      O39088   7.989   5.696   8.876
12949WAT     H139089   8.067   5.635   8.861
12949WAT     H239090   8.021   5.791   8.870
12950WAT      O39091   0.180   6.767   7.886
12950WAT     H139092   0.163   6.850   7.834
12950WAT     H239093   0.278   6.748   7.888
12951WAT      O39094   3.456   9.526   5.082
12951WAT     H139095   3.378   9.463   5.086
12951WAT     H239096   3.523   9.500   5.151
12952WAT      O39097   9.831   0.452   0.860
12952WAT     H139098   9.836   0.544   0.899
12952WAT     H239099   9.923   0.420   0.839
12953WAT      O39100   5.931   7.955   6.214
12953WAT     H139101   5.877   8.016   6.272
12953WAT     H239102   6.013   7.926   6.263
12954WAT      O39103   7.033   4.105   0.559
12954WAT     H139104   7.004   4.106   0.655
12954WAT     H239105   7.126   4.141   0.552
12955WAT      O39106   8.386   8.047   3.726
12955WAT     H139107   8.439   8.127   3.755
12955WAT     H239108   8.366   8.055   3.628
12956WAT      O39109   1.940   9.389   0.437
12956WAT     H139110   1.956   9.373   0.340
12956WAT     H239111   2.027   9.395   0.485
12957WAT      O39112   7.361   4.472   2.401
12957WAT     H139113   7.325   4.562   2.427
12957WAT     H239114   7.385   4.421   2.484
12958WAT      O39115   0.185   1.894   1.905
12958WAT     H139116   0.166   1.796   1.895
12958WAT     H239117   0.194   1.936   1.815
12959WAT      O39118   5.379   0.383   7.328
12959WAT     H139119   5.371   0.306   7.391
12959WAT     H239120   5.302   0.445   7.340
12960WAT      O39121   1.038   6.330   7.117
12960WAT     H139122   1.125   6.339   7.164
12960WAT     H239123   0.966   6.309   7.183
12961WAT      O39124   0.416   9.438   7.080
12961WAT     H139125   0.320   9.458   7.060
12961WAT     H239126   0.422   9.366   7.148
12962WAT      O39127   7.512   0.592   8.107
12962WAT     H139128   7.464   0.677   8.133
12962WAT     H239129   7.593   0.615   8.053
12963WAT      O39130   5.360   4.851   6.057
12963WAT     H139131   5.277   4.807   6.021
12963WAT     H239132   5.439   4.822   6.004
12964WAT      O39133   7.647   8.314   2.294
12964WAT     H139134   7.689   8.238   2.344
12964WAT     H239135   7.708   8.393   2.298
12965WAT      O39136   3.806   7.303   4.602
12965WAT     H139137   3.830   7.329   4.509
12965WAT     H239138   3.809   7.204   4.612
12966WAT      O39139   3.428   6.601   4.807
12966WAT     H139140   3.471   6.691   4.813
12966WAT     H239141   3.460   6.545   4.884
12967WAT      O39142   8.540   6.114   1.981
12967WAT     H139143   8.591   6.115   1.895
12967WAT     H239144   8.490   6.200   1.991
12968WAT      O39145   7.793   4.104   6.119
12968WAT     H139146   7.860   4.144   6.058
12968WAT     H239147   7.743   4.032   6.071
12969WAT      O39148   1.368   2.742   5.200
12969WAT     H139149   1.459   2.785   5.206
12969WAT     H239150   1.308   2.800   5.146
12970WAT      O39151   6.628   1.278   4.339
12970WAT     H139152   6.692   1.331   4.283
12970WAT     H239153   6.661   1.273   4.433
12971WAT      O39154   0.624   8.956   6.373
12971WAT     H139155   0.700   9.004   6.329
12971WAT     H239156   0.624   8.976   6.471
12972WAT      O39157   4.062   4.404   8.224
12972WAT     H139158   4.122   4.357   8.288
12972WAT     H239159   4.025   4.486   8.267
12973WAT      O39160   3.878   8.492   0.073
12973WAT     H139161   3.797   8.447   0.036
12973WAT     H239162   3.863   8.590   0.077
12974WAT      O39163   5.655   4.877   8.197
12974WAT     H139164   5.565   4.914   8.217
12974WAT     H239165   5.725   4.940   8.230
12975WAT      O39166   1.954   5.034   5.636
12975WAT     H139167   2.052   5.022   5.651
12975WAT     H239168   1.916   5.086   5.712
12976WAT      O39169   9.843   2.672   9.778
12976WAT     H139170   9.862   2.622   9.863
12976WAT     H239171   9.809   2.609   9.709
12977WAT      O39172   0.358   6.049   1.554
12977WAT     H139173   0.352   6.055   1.654
12977WAT     H239174   0.273   6.081   1.513
12978WAT      O39175   4.425   5.098   1.454
12978WAT     H139176   4.441   5.191   1.488
12978WAT     H239177   4.339   5.095   1.402
12979WAT      O39178   8.273   1.020   3.286
12979WAT     H139179   8.179   1.004   3.316
12979WAT     H239180   8.318   0.932   3.269
12980WAT      O39181   3.620   1.403   8.628
12980WAT     H139182   3.667   1.337   8.569
12980WAT     H239183   3.648   1.388   8.723
12981WAT      O39184   8.460   9.209   6.737
12981WAT     H139185   8.457   9.303   6.772
12981WAT     H239186   8.398   9.200   6.659
12982WAT      O39187   9.304   5.077   5.162
12982WAT     H139188   9.240   5.029   5.222
12982WAT     H239189   9.294   5.175   5.173
12983WAT      O39190   9.140   8.623   2.736
12983WAT     H139191   9.094   8.691   2.794
12983WAT     H239192   9.163   8.665   2.649
12984WAT      O39193   5.289   4.260   1.969
12984WAT     H139194   5.262   4.347   2.010
12984WAT     H239195   5.278   4.186   2.036
12985WAT      O39196   1.134   7.276   9.808
12985WAT     H139197   1.121   7.177   9.812
12985WAT     H239198   1.203   7.302   9.877
12986WAT      O39199   9.354   9.026   7.332
12986WAT     H139200   9.259   9.020   7.300
12986WAT     H239201   9.387   8.934   7.352
12987WAT      O39202   7.606   9.267   3.049
12987WAT     H139203   7.692   9.308   3.020
12987WAT     H239204   7.584   9.297   3.142
12988WAT      O39205   1.330   9.802   7.134
12988WAT     H139206   1.396   9.729   7.152
12988WAT     H239207   1.303   9.799   7.038
12989WAT      O39208   0.748   3.925   5.376
12989WAT     H139209   0.681   3.892   5.310
12989WAT     H239210   0.819   3.977   5.329
12990WAT      O39211   2.232   9.740   0.577
12990WAT     H139212   2.199   9.649   0.555
12990WAT     H239213   2.249   9.747   0.675
12991WAT      O39214   3.377   0.516   6.041
12991WAT     H139215   3.305   0.472   6.094
12991WAT     H239216   3.383   0.473   5.951
12992WAT      O39217   7.660   9.566   6.191
12992WAT     H139218   7.679   9.650   6.140
12992WAT     H239219   7.647   9.588   6.288
12993WAT      O39220   5.718   6.534   7.473
12993WAT     H139221   5.644   6.487   7.425
12993WAT     H239222   5.686   6.567   7.561
12994WAT      O39223   1.373   8.111   4.094
12994WAT     H139224   1.340   8.022   4.123
12994WAT     H239225   1.435   8.100   4.016
12995WAT      O39226   2.180   4.274   2.104
12995WAT     H139227   2.221   4.183   2.100
12995WAT     H239228   2.247   4.341   2.073
12996WAT      O39229   5.397   3.614   0.497
12996WAT     H139230   5.487   3.590   0.531
12996WAT     H239231   5.332   3.540   0.518
12997WAT      O39232   5.451   7.886   8.530
12997WAT     H139233   5.537   7.905   8.576
12997WAT     H239234   5.442   7.788   8.515
12998WAT      O39235   4.612   3.465   0.271
12998WAT     H139236   4.693   3.509   0.310
12998WAT     H239237   4.560   3.420   0.344
12999WAT      O39238   0.477   8.681   2.116
12999WAT     H139239   0.412   8.606   2.131
12999WAT     H239240   0.536   8.689   2.196
13000WAT      O39241   6.434   7.019   3.431
13000WAT     H139242   6.366   6.987   3.496
13000WAT     H239243   6.390   7.072   3.359
13001WAT      O39244   0.478   8.374   6.460
13001WAT     H139245   0.503   8.334   6.549
13001WAT     H239246   0.559   8.378   6.402
13002WAT      O39247   8.038   4.988   5.928
13002WAT     H139248   8.024   4.957   6.022
13002WAT     H239249   8.127   4.955   5.895
13003WAT      O39250   5.783   0.888   3.912
13003WAT     H139251   5.704   0.911   3.968
13003WAT     H239252   5.801   0.962   3.847
13004WAT      O39253   6.759   4.378   8.424
13004WAT     H139254   6.676   4.328   8.449
13004WAT     H239255   6.823   4.376   8.501
13005WAT      O39256   7.583   8.240   5.425
13005WAT     H139257   7.489   8.250   5.458
13005WAT     H239258   7.601   8.307   5.354
13006WAT      O39259   7.547   9.442   3.308
13006WAT     H139260   7.599   9.480   3.384
13006WAT     H239261   7.472   9.386   3.343
13007WAT      O39262   4.363   4.372   9.339
13007WAT     H139263   4.317   4.299   9.389
13007WAT     H239264   4.448   4.397   9.385
13008WAT      O39265   1.963   4.092   5.584
13008WAT     H139266   2.063   4.092   5.598
13008WAT     H239267   1.933   4.000   5.561
13009WAT      O39268   8.710   6.034   2.918
13009WAT     H139269   8.611   6.030   2.913
13009WAT     H239270   8.750   5.977   2.846
13010WAT      O39271   1.025   9.556   0.380
13010WAT     H139272   1.116   9.516   0.389
13010WAT     H239273   0.958   9.484   0.363
13011WAT      O39274   9.014   9.359   1.598
13011WAT     H139275   9.104   9.358   1.642
13011WAT     H239276   9.002   9.444   1.548
13012WAT      O39277   7.906   4.723   9.365
13012WAT     H139278   7.955   4.749   9.449
13012WAT     H239279   7.923   4.627   9.345
13013WAT      O39280   1.491   9.585   8.252
13013WAT     H139281   1.535   9.639   8.180
13013WAT     H239282   1.441   9.646   8.314
13014WAT      O39283   2.879   6.724   9.271
13014WAT     H139284   2.863   6.761   9.179
13014WAT     H239285   2.898   6.799   9.334
13015WAT      O39286   0.499   1.253   0.459
13015WAT     H139287   0.563   1.309   0.511
13015WAT     H239288   0.416   1.306   0.440
13016WAT      O39289   3.380   9.786   6.451
13016WAT     H139290   3.454   9.851   6.470
13016WAT     H239291   3.408   9.694   6.479
13017WAT      O39292   4.474   1.183   7.121
13017WAT     H139293   4.465   1.105   7.183
13017WAT     H239294   4.425   1.165   7.036
13018WAT      O39295   4.045   0.567   9.823
13018WAT     H139296   4.028   0.627   9.746
13018WAT     H239297   4.048   0.472   9.791
13019WAT      O39298   2.696   3.383   3.593
13019WAT     H139299   2.788   3.384   3.633
13019WAT     H239300   2.697   3.433   3.507
13020WAT      O39301   5.760   3.589   8.852
13020WAT     H139302   5.688   3.658   8.843
13020WAT     H239303   5.841   3.619   8.802
13021WAT      O39304   5.008   8.528   9.290
13021WAT     H139305   4.955   8.583   9.354
13021WAT     H239306   4.971   8.435   9.287
13022WAT      O39307   4.509   2.751   3.741
13022WAT     H139308   4.523   2.815   3.666
13022WAT     H239309   4.597   2.709   3.765
13023WAT      O39310   7.821   9.305   6.215
13023WAT     H139311   7.765   9.222   6.216
13023WAT     H239312   7.761   9.385   6.216
13024WAT      O39313   9.046   3.260   5.194
13024WAT     H139314   9.077   3.192   5.128
13024WAT     H239315   9.001   3.335   5.147
13025WAT      O39316   6.158   6.595   4.297
13025WAT     H139317   6.166   6.506   4.343
13025WAT     H239318   6.239   6.650   4.318
13026WAT      O39319   0.199   1.040   8.964
13026WAT     H139320   0.275   1.084   9.011
13026WAT     H239321   0.223   0.945   8.943
13027WAT      O39322   5.689   9.650   4.413
13027WAT     H139323   5.697   9.724   4.346
13027WAT     H239324   5.639   9.682   4.493
13028WAT      O39325   8.615   2.533   0.992
13028WAT     H139326   8.552   2.482   1.051
13028WAT     H239327   8.562   2.594   0.933
13029WAT      O39328   9.808   9.322   4.870
13029WAT     H139329   9.745   9.249   4.843
13029WAT     H239330   9.774   9.366   4.954
13030WAT      O39331   3.188   2.647   5.726
13030WAT     H139332   3.253   2.585   5.772
13030WAT     H239333   3.236   2.729   5.696
13031WAT      O39334   9.058   4.400   9.099
13031WAT     H139335   8.992   4.453   9.153
13031WAT     H239336   9.139   4.456   9.080
13032WAT      O39337   0.247   6.781   6.411
13032WAT     H139338   0.270   6.703   6.469
13032WAT     H239339   0.193   6.750   6.333
13033WAT      O39340   5.297   5.460   9.157
13033WAT     H139341   5.327   5.446   9.062
13033WAT     H239342   5.254   5.377   9.191
13034WAT      O39343   4.105   2.596   2.159
13034WAT     H139344   4.098   2.511   2.210
13034WAT     H239345   4.091   2.674   2.221
13035WAT      O39346   2.114   5.503   3.498
13035WAT     H139347   2.137   5.600   3.508
13035WAT     H239348   2.024   5.494   3.455
13036WAT      O39349   6.397   8.285   3.883
13036WAT     H139350   6.353   8.333   3.807
13036WAT     H239351   6.433   8.351   3.949
13037WAT      O39352   1.554   2.038   3.987
13037WAT     H139353   1.628   1.988   4.031
13037WAT     H239354   1.480   2.053   4.053
13038WAT      O39355   0.949   4.944   5.698
13038WAT     H139356   1.015   4.954   5.772
13038WAT     H239357   0.994   4.962   5.611
13039WAT      O39358   8.514   9.463   7.614
13039WAT     H139359   8.496   9.473   7.516
13039WAT     H239360   8.518   9.554   7.656
13040WAT      O39361   1.679   0.903   8.113
13040WAT     H139362   1.687   0.968   8.189
13040WAT     H239363   1.595   0.850   8.124
13041WAT      O39364   2.048   4.821   0.883
13041WAT     H139365   2.026   4.853   0.791
13041WAT     H239366   2.046   4.899   0.946
13042WAT      O39367   0.224   9.301   6.884
13042WAT     H139368   0.163   9.360   6.936
13042WAT     H239369   0.171   9.230   6.837
13043WAT      O39370   2.117   1.334   6.268
13043WAT     H139371   2.044   1.376   6.213
13043WAT     H239372   2.206   1.364   6.233
13044WAT      O39373   1.446   0.111   5.367
13044WAT     H139374   1.375   0.054   5.326
13044WAT     H239375   1.403   0.186   5.418
13045WAT      O39376   0.460   7.441   0.510
13045WAT     H139377   0.543   7.400   0.548
13045WAT     H239378   0.389   7.371   0.503
13046WAT      O39379   4.290   0.070   9.453
13046WAT     H139380   4.242   0.158   9.452
13046WAT     H239381   4.364   0.072   9.520
13047WAT      O39382   4.788   2.597   0.114
13047WAT     H139383   4.818   2.510   0.153
13047WAT     H239384   4.770   2.585   0.017
13048WAT      O39385   2.064   5.458   7.938
13048WAT     H139386   2.068   5.360   7.956
13048WAT     H239387   2.069   5.507   8.025
13049WAT      O39388   1.544   8.025   8.389
13049WAT     H139389   1.511   7.958   8.323
13049WAT     H239390   1.601   8.092   8.343
13050WAT      O39391   4.707   4.459   8.401
13050WAT     H139392   4.688   4.511   8.318
13050WAT     H239393   4.662   4.504   8.479
13051WAT      O39394   9.286   9.118   3.209
13051WAT     H139395   9.222   9.188   3.176
13051WAT     H239396   9.281   9.113   3.308
13052WAT      O39397   4.585   8.922   3.514
13052WAT     H139398   4.562   8.878   3.600
13052WAT     H239399   4.515   8.990   3.492
13053WAT      O39400   3.366   4.880   9.579
13053WAT     H139401   3.393   4.806   9.518
13053WAT     H239402   3.281   4.921   9.546
13054WAT      O39403   8.053   7.045   5.260
13054WAT     H139404   8.091   7.123   5.310
13054WAT     H239405   8.040   7.071   5.164
13055WAT      O39406   5.802   1.609   0.393
13055WAT     H139407   5.874   1.571   0.336
13055WAT     H239408   5.757   1.683   0.344
13056WAT      O39409   8.031   0.886   2.398
13056WAT     H139410   7.973   0.957   2.437
13056WAT     H239411   8.127   0.913   2.405
13057WAT      O39412   5.669   8.512   2.268
13057WAT     H139413   5.767   8.509   2.287
13057WAT     H239414   5.637   8.606   2.277
13058WAT      O39415   2.213   5.435   8.826
13058WAT     H139416   2.309   5.423   8.852
13058WAT     H239417   2.158   5.449   8.908
13059WAT      O39418   7.793   3.499   3.166
13059WAT     H139419   7.738   3.582   3.163
13059WAT     H239420   7.738   3.425   3.205
13060WAT      O39421   6.839   5.032   9.819
13060WAT     H139422   6.902   5.036   9.897
13060WAT     H239423   6.885   5.069   9.738
13061WAT      O39424   1.127   2.519   4.337
13061WAT     H139425   1.137   2.512   4.238
13061WAT     H239426   1.214   2.546   4.378
13062WAT      O39427   5.025   6.421   8.858
13062WAT     H139428   4.967   6.352   8.815
13062WAT     H239429   4.983   6.452   8.944
13063WAT      O39430   0.042   4.615   4.650
13063WAT     H139431   0.093   4.691   4.691
13063WAT     H239432   0.032   4.631   4.552
13064WAT      O39433   3.085   6.616   2.306
13064WAT     H139434   3.164   6.649   2.356
13064WAT     H239435   3.006   6.612   2.367
13065WAT      O39436   8.692   1.493   6.468
13065WAT     H139437   8.625   1.426   6.500
13065WAT     H239438   8.762   1.447   6.414
13066WAT      O39439   1.972   2.650   8.192
13066WAT     H139440   1.958   2.617   8.285
13066WAT     H239441   2.059   2.700   8.187
13067WAT      O39442   8.531   6.151   1.006
13067WAT     H139443   8.434   6.160   1.030
13067WAT     H239444   8.543   6.175   0.910
13068WAT      O39445   0.546   3.542   5.493
13068WAT     H139446   0.550   3.509   5.587
13068WAT     H239447   0.507   3.634   5.492
13069WAT      O39448   4.443   2.583   9.768
13069WAT     H139449   4.409   2.515   9.833
13069WAT     H239450   4.519   2.544   9.716
13070WAT      O39451   9.272   7.506   8.791
13070WAT     H139452   9.184   7.482   8.832
13070WAT     H239453   9.343   7.444   8.825
13071WAT      O39454   9.657   9.723   0.390
13071WAT     H139455   9.595   9.653   0.426
13071WAT     H239456   9.734   9.735   0.453
13072WAT      O39457   2.888   7.940   4.516
13072WAT     H139458   2.931   7.943   4.606
13072WAT     H239459   2.791   7.919   4.525
13073WAT      O39460   8.757   1.070   3.321
13073WAT     H139461   8.822   1.060   3.396
13073WAT     H239462   8.699   0.989   3.315
13074WAT      O39463   3.273   4.049   7.131
13074WAT     H139464   3.323   4.133   7.154
13074WAT     H239465   3.334   3.988   7.081
13075WAT      O39466   6.099   8.497   1.460
13075WAT     H139467   6.104   8.570   1.528
13075WAT     H239468   6.003   8.471   1.445
13076WAT      O39469   3.161   5.713   5.892
13076WAT     H139470   3.208   5.771   5.826
13076WAT     H239471   3.210   5.626   5.900
13077WAT      O39472   3.790   8.971   8.452
13077WAT     H139473   3.791   8.880   8.412
13077WAT     H239474   3.819   9.038   8.384
13078WAT      O39475   2.196   6.410   9.425
13078WAT     H139476   2.231   6.372   9.510
13078WAT     H239477   2.180   6.336   9.359
13079WAT      O39478   2.969   4.426   0.269
13079WAT     H139479   3.014   4.514   0.276
13079WAT     H239480   3.008   4.362   0.336
13080WAT      O39481   6.663   1.960   1.744
13080WAT     H139482   6.668   2.016   1.826
13080WAT     H239483   6.620   2.012   1.670
13081WAT      O39484   5.791   3.442   7.822
13081WAT     H139485   5.768   3.531   7.782
13081WAT     H239486   5.752   3.369   7.765
13082WAT      O39487   9.782   3.118   9.646
13082WAT     H139488   9.781   3.146   9.742
13082WAT     H239489   9.735   3.187   9.591
13083WAT      O39490   6.888   0.314   0.019
13083WAT     H139491   6.872   0.380  -0.055
13083WAT     H239492   6.972   0.264   0.001
13084WAT      O39493   6.566   4.827   9.429
13084WAT     H139494   6.619   4.898   9.476
13084WAT     H239495   6.487   4.802   9.486
13085WAT      O39496   5.485   8.548   6.908
13085WAT     H139497   5.387   8.550   6.885
13085WAT     H239498   5.498   8.580   7.002
13086WAT      O39499   9.260   2.340   6.432
13086WAT     H139500   9.178   2.320   6.379
13086WAT     H239501   9.313   2.257   6.445
13087WAT      O39502   2.582   2.513   6.212
13087WAT     H139503   2.640   2.575   6.158
13087WAT     H239504   2.509   2.477   6.154
13088WAT      O39505   6.711   4.031   9.513
13088WAT     H139506   6.620   4.069   9.531
13088WAT     H239507   6.721   4.011   9.416
13089WAT      O39508   8.166   0.948   4.225
13089WAT     H139509   8.232   0.880   4.258
13089WAT     H239510   8.185   1.036   4.268
13090WAT      O39511   3.337   6.252   1.486
13090WAT     H139512   3.268   6.311   1.446
13090WAT     H239513   3.322   6.244   1.585
13091WAT      O39514   7.295   1.579   8.806
13091WAT     H139515   7.295   1.665   8.756
13091WAT     H239516   7.389   1.552   8.827
13092WAT      O39517   0.640   0.678   2.871
13092WAT     H139518   0.646   0.775   2.894
13092WAT     H239519   0.544   0.653   2.854
13093WAT      O39520   2.236   0.402   9.812
13093WAT     H139521   2.300   0.472   9.780
13093WAT     H239522   2.285   0.316   9.828
13094WAT      O39523   3.015   2.884   5.018
13094WAT     H139524   2.919   2.885   5.047
13094WAT     H239525   3.053   2.976   5.026
13095WAT      O39526   5.748   1.790   8.371
13095WAT     H139527   5.691   1.711   8.350
13095WAT     H239528   5.733   1.862   8.304
13096WAT      O39529   8.934   1.766   4.930
13096WAT     H139530   8.943   1.765   4.830
13096WAT     H239531   9.018   1.802   4.971
13097WAT      O39532   0.215   7.924   5.451
13097WAT     H139533   0.237   7.966   5.538
13097WAT     H239534   0.182   7.831   5.466
13098WAT      O39535   7.728   1.882   2.677
13098WAT     H139536   7.804   1.875   2.742
13098WAT     H239537   7.747   1.954   2.611
13099WAT      O39538   9.494   1.962   3.275
13099WAT     H139539   9.535   2.031   3.334
13099WAT     H239540   9.554   1.945   3.197
13100WAT      O39541   6.248   4.451   7.332
13100WAT     H139542   6.158   4.421   7.299
13100WAT     H239543   6.277   4.532   7.281
13101WAT      O39544   7.384   6.788   3.687
13101WAT     H139545   7.347   6.708   3.640
13101WAT     H239546   7.319   6.820   3.756
13102WAT      O39547   1.750   4.830   6.550
13102WAT     H139548   1.824   4.886   6.586
13102WAT     H239549   1.664   4.857   6.593
13103WAT      O39550   1.077   8.000   4.961
13103WAT     H139551   1.162   7.979   5.011
13103WAT     H239552   1.100   8.048   4.877
13104WAT      O39553   6.537   0.721   2.217
13104WAT     H139554   6.627   0.680   2.200
13104WAT     H239555   6.543   0.820   2.204
13105WAT      O39556   4.406   8.711   9.454
13105WAT     H139557   4.458   8.666   9.381
13105WAT     H239558   4.453   8.696   9.541
13106WAT      O39559   5.403   7.711   2.038
13106WAT     H139560   5.346   7.728   1.958
13106WAT     H239561   5.353   7.737   2.121
13107WAT      O39562   2.832   7.026   7.024
13107WAT     H139563   2.791   7.116   7.036
13107WAT     H239564   2.929   7.030   7.047
13108WAT      O39565   1.857   7.155   9.091
13108WAT     H139566   1.782   7.089   9.089
13108WAT     H239567   1.911   7.148   9.007
13109WAT      O39568   0.063   4.559   8.868
13109WAT     H139569   0.139   4.506   8.829
13109WAT     H239570   0.042   4.636   8.807
13110WAT      O39571   5.434   3.926   5.219
13110WAT     H139572   5.463   3.964   5.131
13110WAT     H239573   5.512   3.925   5.282
13111WAT      O39574   6.404   3.884   9.458
13111WAT     H139575   6.331   3.851   9.517
13111WAT     H239576   6.405   3.984   9.459
13112WAT      O39577   3.355   5.511   1.696
13112WAT     H139578   3.422   5.443   1.666
13112WAT     H239579   3.318   5.484   1.784
13113WAT      O39580   0.266   6.104   3.027
13113WAT     H139581   0.264   6.191   3.077
13113WAT     H239582   0.295   6.121   2.933
13114WAT      O39583   5.721   7.419   4.024
13114WAT     H139584   5.654   7.386   4.090
13114WAT     H239585   5.675   7.435   3.936
13115WAT      O39586   1.252   9.625   2.952
13115WAT     H139587   1.286   9.543   2.906
13115WAT     H239588   1.162   9.649   2.916
13116WAT      O39589   4.776   8.271   4.440
13116WAT     H139590   4.756   8.273   4.341
13116WAT     H239591   4.706   8.323   4.488
13117WAT      O39592   9.568   7.821   5.597
13117WAT     H139593   9.527   7.785   5.681
13117WAT     H239594   9.546   7.918   5.588
13118WAT      O39595   7.959   7.289   3.727
13118WAT     H139596   8.037   7.334   3.770
13118WAT     H239597   7.918   7.350   3.659
13119WAT      O39598   6.229   1.476   0.464
13119WAT     H139599   6.188   1.402   0.517
13119WAT     H239600   6.184   1.563   0.487
13120WAT      O39601   8.370   7.958   5.656
13120WAT     H139602   8.279   7.936   5.621
13120WAT     H239603   8.394   8.051   5.628
13121WAT      O39604   3.685   5.871   6.960
13121WAT     H139605   3.765   5.812   6.949
13121WAT     H239606   3.661   5.912   6.872
13122WAT      O39607   1.849   3.856   4.785
13122WAT     H139608   1.774   3.909   4.825
13122WAT     H239609   1.828   3.836   4.689
13123WAT      O39610   2.434   7.433   0.719
13123WAT     H139611   2.435   7.370   0.641
13123WAT     H239612   2.495   7.510   0.699
13124WAT      O39613   7.907   2.724   6.463
13124WAT     H139614   7.807   2.732   6.464
13124WAT     H239615   7.940   2.707   6.556
13125WAT      O39616   0.223   2.673   8.035
13125WAT     H139617   0.270   2.690   7.948
13125WAT     H239618   0.277   2.609   8.090
13126WAT      O39619   1.820   4.435   0.880
13126WAT     H139620   1.833   4.509   0.947
13126WAT     H239621   1.882   4.449   0.803
13127WAT      O39622   0.627   3.681   0.272
13127WAT     H139623   0.559   3.738   0.226
13127WAT     H239624   0.657   3.608   0.210
13128WAT      O39625   9.880   3.227   2.265
13128WAT     H139626   9.876   3.289   2.343
13128WAT     H239627   9.824   3.264   2.190
13129WAT      O39628   3.041   1.898   5.706
13129WAT     H139629   3.070   1.992   5.724
13129WAT     H239630   3.038   1.847   5.792
13130WAT      O39631   2.070   2.868   9.126
13130WAT     H139632   2.110   2.778   9.107
13130WAT     H239633   2.132   2.921   9.183
13131WAT      O39634   2.688   7.746   7.359
13131WAT     H139635   2.614   7.681   7.342
13131WAT     H239636   2.772   7.715   7.314
13132WAT      O39637   4.943   9.631   6.244
13132WAT     H139638   4.920   9.536   6.265
13132WAT     H239639   4.893   9.692   6.306
13133WAT      O39640   7.524   6.971   9.635
13133WAT     H139641   7.428   6.961   9.658
13133WAT     H239642   7.572   7.017   9.710
13134WAT      O39643   9.756   8.606   1.549
13134WAT     H139644   9.759   8.690   1.494
13134WAT     H239645   9.833   8.547   1.525
13135WAT      O39646   3.020   3.732   6.763
13135WAT     H139647   3.095   3.713   6.700
13135WAT     H239648   2.937   3.685   6.731
13136WAT      O39649   9.644   0.253   0.874
13136WAT     H139650   9.565   0.313   0.861
13136WAT     H239651   9.728   0.307   0.871
13137WAT      O39652   8.929   6.619   0.992
13137WAT     H139653   8.920   6.610   0.893
13137WAT     H239654   8.989   6.696   1.012
13138WAT      O39655   4.189   2.728   8.641
13138WAT     H139656   4.220   2.638   8.671
13138WAT     H239657   4.250   2.798   8.676
13139WAT      O39658   2.449   2.843   9.565
13139WAT     H139659   2.502   2.859   9.481
13139WAT     H239660   2.455   2.924   9.623
13140WAT      O39661   9.573   2.668   7.995
13140WAT     H139662   9.565   2.731   7.918
13140WAT     H239663   9.520   2.703   8.073
13141WAT      O39664   6.589   7.857   5.713
13141WAT     H139665   6.499   7.825   5.743
13141WAT     H239666   6.634   7.785   5.659
13142WAT      O39667   9.803   4.898   4.064
13142WAT     H139668   9.736   4.960   4.106
13142WAT     H239669   9.756   4.835   4.002
13143WAT      O39670   1.798   9.720   8.904
13143WAT     H139671   1.732   9.761   8.841
13143WAT     H239672   1.755   9.644   8.953
13144WAT      O39673   1.220   2.367   7.448
13144WAT     H139674   1.177   2.410   7.528
13144WAT     H239675   1.149   2.339   7.383
13145WAT      O39676   7.230   3.397   7.032
13145WAT     H139677   7.321   3.438   7.038
13145WAT     H239678   7.236   3.299   7.054
13146WAT      O39679   0.185   1.807   2.790
13146WAT     H139680   0.268   1.811   2.847
13146WAT     H239681   0.208   1.836   2.697
13147WAT      O39682   6.648   3.091   5.730
13147WAT     H139683   6.673   3.055   5.641
13147WAT     H239684   6.644   3.016   5.797
13148WAT      O39685   2.173   4.608   9.105
13148WAT     H139686   2.094   4.667   9.098
13148WAT     H239687   2.256   4.660   9.085
13149WAT      O39688   5.448   5.648   1.804
13149WAT     H139689   5.407   5.568   1.846
13149WAT     H239690   5.382   5.723   1.801
13150WAT      O39691   4.757   0.977   1.375
13150WAT     H139692   4.827   0.975   1.447
13150WAT     H239693   4.797   0.945   1.289
13151WAT      O39694   6.314   8.010   0.855
13151WAT     H139695   6.230   8.046   0.896
13151WAT     H239696   6.292   7.937   0.791
13152WAT      O39697   9.092   5.649   4.212
13152WAT     H139698   9.140   5.623   4.296
13152WAT     H239699   8.993   5.637   4.226
13153WAT      O39700   1.688   1.186   9.070
13153WAT     H139701   1.693   1.184   9.169
13153WAT     H239702   1.605   1.138   9.040
13154WAT      O39703   4.280   8.105   4.088
13154WAT     H139704   4.258   8.034   4.155
13154WAT     H239705   4.227   8.089   4.004
13155WAT      O39706   7.808   1.683   0.671
13155WAT     H139707   7.756   1.740   0.735
13155WAT     H239708   7.900   1.669   0.707
13156WAT      O39709   1.217   5.779   4.884
13156WAT     H139710   1.256   5.779   4.791
13156WAT     H239711   1.124   5.741   4.881
13157WAT      O39712   6.294   1.689   8.372
13157WAT     H139713   6.354   1.720   8.298
13157WAT     H239714   6.219   1.636   8.335
13158WAT      O39715   9.350   3.433   2.649
13158WAT     H139716   9.405   3.416   2.731
13158WAT     H239717   9.383   3.516   2.603
13159WAT      O39718   3.593   4.577   8.652
13159WAT     H139719   3.568   4.630   8.571
13159WAT     H239720   3.524   4.590   8.723
13160WAT      O39721   5.394   6.136   7.550
13160WAT     H139722   5.356   6.222   7.583
13160WAT     H239723   5.482   6.153   7.507
13161WAT      O39724   2.246   7.415   2.979
13161WAT     H139725   2.194   7.460   3.052
13161WAT     H239726   2.327   7.372   3.018
13162WAT      O39727   5.393   2.339   6.656
13162WAT     H139728   5.483   2.347   6.612
13162WAT     H239729   5.358   2.431   6.675
13163WAT      O39730   5.406   9.603   5.204
13163WAT     H139731   5.458   9.546   5.266
13163WAT     H239732   5.465   9.674   5.166
13164WAT      O39733   2.136   5.289   4.601
13164WAT     H139734   2.201   5.242   4.542
13164WAT     H239735   2.053   5.234   4.609
13165WAT      O39736   9.299   8.203   3.427
13165WAT     H139737   9.334   8.295   3.443
13165WAT     H239738   9.375   8.143   3.401
13166WAT      O39739   8.842   0.600   4.789
13166WAT     H139740   8.785   0.521   4.766
13166WAT     H239741   8.805   0.682   4.746
13167WAT      O39742   0.939   3.312   7.612
13167WAT     H139743   0.855   3.291   7.562
13167WAT     H239744   0.939   3.409   7.637
13168WAT      O39745   6.686   2.974   1.562
13168WAT     H139746   6.733   3.042   1.619
13168WAT     H239747   6.599   2.949   1.604
13169WAT      O39748   5.059   4.866   8.869
13169WAT     H139749   5.121   4.837   8.942
13169WAT     H239750   5.030   4.960   8.886
13170WAT      O39751   7.814   8.727   0.314
13170WAT     H139752   7.832   8.665   0.390
13170WAT     H239753   7.720   8.714   0.282
13171WAT      O39754   0.995   0.971   9.176
13171WAT     H139755   0.902   0.943   9.200
13171WAT     H239756   1.015   1.059   9.219
13172WAT      O39757   7.288   0.734   1.043
13172WAT     H139758   7.317   0.778   0.957
13172WAT     H239759   7.231   0.797   1.095
13173WAT      O39760   6.758   2.346   5.930
13173WAT     H139761   6.740   2.362   5.834
13173WAT     H239762   6.672   2.344   5.981
13174WAT      O39763   0.066   0.835   9.742
13174WAT     H139764   0.120   0.792   9.814
13174WAT     H239765   0.081   0.787   9.656
13175WAT      O39766   9.837   6.946   8.317
13175WAT     H139767   9.870   7.028   8.363
13175WAT     H239768   9.742   6.930   8.342
13176WAT      O39769   9.350   1.452   9.637
13176WAT     H139770   9.336   1.435   9.735
13176WAT     H239771   9.263   1.444   9.589
13177WAT      O39772   6.565   5.296   7.773
13177WAT     H139773   6.622   5.236   7.716
13177WAT     H239774   6.515   5.360   7.715
13178WAT      O39775   9.202   3.426   8.503
13178WAT     H139776   9.186   3.374   8.419
13178WAT     H239777   9.199   3.524   8.482
13179WAT      O39778   1.970   2.341   7.787
13179WAT     H139779   1.978   2.272   7.716
13179WAT     H239780   1.997   2.302   7.875
13180WAT      O39781   2.624   8.456   6.055
13180WAT     H139782   2.539   8.418   6.092
13180WAT     H239783   2.686   8.478   6.130
13181WAT      O39784   8.464   2.928   9.021
13181WAT     H139785   8.546   2.900   9.071
13181WAT     H239786   8.402   2.976   9.082
13182WAT      O39787   1.568   0.414   6.431
13182WAT     H139788   1.666   0.402   6.446
13182WAT     H239789   1.533   0.483   6.495
13183WAT      O39790   9.023   1.554   9.333
13183WAT     H139791   9.064   1.491   9.399
13183WAT     H239792   8.983   1.632   9.382
13184WAT      O39793   5.609   4.032   3.856
13184WAT     H139794   5.527   4.029   3.799
13184WAT     H239795   5.624   4.125   3.889
13185WAT      O39796   0.277   2.562   5.573
13185WAT     H139797   0.316   2.538   5.662
13185WAT     H239798   0.250   2.658   5.573
13186WAT      O39799   6.043   5.581   7.363
13186WAT     H139800   6.028   5.576   7.462
13186WAT     H239801   5.957   5.567   7.315
13187WAT      O39802   6.289   2.214   9.000
13187WAT     H139803   6.220   2.276   9.039
13187WAT     H239804   6.379   2.239   9.035
13188WAT      O39805   7.768   8.630   5.030
13188WAT     H139806   7.847   8.666   5.079
13188WAT     H239807   7.797   8.556   4.969
13189WAT      O39808   5.031   5.768   3.006
13189WAT     H139809   5.032   5.841   3.074
13189WAT     H239810   5.115   5.772   2.952
13190WAT      O39811   5.100   2.047   2.290
13190WAT     H139812   5.072   2.141   2.269
13190WAT     H239813   5.021   1.995   2.321
13191WAT      O39814   3.660   0.104   3.136
13191WAT     H139815   3.686   0.029   3.197
13191WAT     H239816   3.661   0.071   3.041
13192WAT      O39817   5.771   3.428   2.041
13192WAT     H139818   5.756   3.435   2.140
13192WAT     H239819   5.707   3.489   1.994
13193WAT      O39820   4.806   5.716   1.191
13193WAT     H139821   4.804   5.756   1.283
13193WAT     H239822   4.728   5.654   1.180
13194WAT      O39823   5.774   4.543   3.361
13194WAT     H139824   5.873   4.532   3.372
13194WAT     H239825   5.751   4.640   3.360
13195WAT      O39826   4.251   3.096   8.637
13195WAT     H139827   4.336   3.096   8.584
13195WAT     H239828   4.271   3.123   8.731
13196WAT      O39829   1.656   5.019   0.970
13196WAT     H139830   1.599   4.942   0.941
13196WAT     H239831   1.713   5.050   0.894
13197WAT      O39832   9.635   3.013   7.674
13197WAT     H139833   9.706   3.079   7.700
13197WAT     H239834   9.552   3.031   7.727
13198WAT      O39835   0.874   8.043   1.064
13198WAT     H139836   0.911   8.131   1.033
13198WAT     H239837   0.812   8.007   0.994
13199WAT      O39838   3.008   7.589   2.292
13199WAT     H139839   2.976   7.518   2.228
13199WAT     H239840   3.052   7.546   2.370
13200WAT      O39841   1.529   9.070   0.264
13200WAT     H139842   1.521   8.980   0.221
13200WAT     H239843   1.600   9.065   0.335
13201WAT      O39844   2.330   6.119   8.229
13201WAT     H139845   2.310   6.185   8.156
13201WAT     H239846   2.420   6.138   8.268
13202WAT      O39847   0.027   9.059   3.289
13202WAT     H139848  -0.042   8.995   3.254
13202WAT     H239849   0.068   9.110   3.214
13203WAT      O39850   7.232   8.169   4.276
13203WAT     H139851   7.214   8.103   4.203
13203WAT     H239852   7.331   8.182   4.285
13204WAT      O39853   0.600   8.615   6.634
13204WAT     H139854   0.584   8.674   6.714
13204WAT     H239855   0.560   8.525   6.651
13205WAT      O39856   3.194   5.933   6.270
13205WAT     H139857   3.224   5.984   6.189
13205WAT     H239858   3.219   5.984   6.353
13206WAT      O39859   3.741   4.293   5.384
13206WAT     H139860   3.719   4.195   5.387
13206WAT     H239861   3.839   4.305   5.403
13207WAT      O39862   2.068   1.847   5.832
13207WAT     H139863   2.135   1.900   5.781
13207WAT     H239864   2.089   1.749   5.825
13208WAT      O39865   1.725   1.626   8.248
13208WAT     H139866   1.798   1.682   8.285
13208WAT     H239867   1.734   1.532   8.281
13209WAT      O39868   9.586   2.544   8.995
13209WAT     H139869   9.535   2.466   9.032
13209WAT     H239870   9.534   2.628   9.008
13210WAT      O39871   6.538   3.300   7.331
13210WAT     H139872   6.543   3.207   7.368
13210WAT     H239873   6.614   3.314   7.268
13211WAT      O39874   3.311   1.842   7.790
13211WAT     H139875   3.286   1.937   7.771
13211WAT     H239876   3.235   1.796   7.837
13212WAT      O39877   9.759   1.098   1.500
13212WAT     H139878   9.725   1.112   1.407
13212WAT     H239879   9.692   1.045   1.552
13213WAT      O39880   0.170   3.090   7.593
13213WAT     H139881   0.270   3.088   7.598
13213WAT     H239882   0.133   3.000   7.613
13214WAT      O39883   8.727   9.567   6.445
13214WAT     H139884   8.642   9.531   6.407
13214WAT     H239885   8.777   9.493   6.489
13215WAT      O39886   8.413   9.664   9.576
13215WAT     H139887   8.390   9.762   9.580
13215WAT     H239888   8.492   9.646   9.635
13216WAT      O39889   9.094   0.324   7.063
13216WAT     H139890   9.042   0.283   6.988
13216WAT     H239891   9.154   0.395   7.027
13217WAT      O39892   9.283   1.812   4.866
13217WAT     H139893   9.279   1.880   4.793
13217WAT     H239894   9.378   1.799   4.895
13218WAT      O39895   4.392   4.683   3.304
13218WAT     H139896   4.392   4.737   3.388
13218WAT     H239897   4.457   4.722   3.239
13219WAT      O39898   5.881   9.460   9.345
13219WAT     H139899   5.973   9.494   9.362
13219WAT     H239900   5.840   9.512   9.269
13220WAT      O39901   6.399   5.355   7.318
13220WAT     H139902   6.368   5.445   7.285
13220WAT     H239903   6.465   5.368   7.392
13221WAT      O39904   8.948   2.191   3.893
13221WAT     H139905   9.001   2.149   3.967
13221WAT     H239906   8.974   2.287   3.884
13222WAT      O39907   8.348   3.715   0.659
13222WAT     H139908   8.409   3.790   0.685
13222WAT     H239909   8.396   3.654   0.596
13223WAT      O39910   1.722   6.595   0.481
13223WAT     H139911   1.684   6.503   0.469
13223WAT     H239912   1.780   6.618   0.403
13224WAT      O39913   7.550   2.731   0.304
13224WAT     H139914   7.494   2.812   0.322
13224WAT     H239915   7.497   2.649   0.324
13225WAT      O39916   6.980   9.334   0.555
13225WAT     H139917   6.907   9.342   0.487
13225WAT     H239918   6.969   9.406   0.624
13226WAT      O39919   6.903   1.979   9.199
13226WAT     H139920   6.975   1.985   9.130
13226WAT     H239921   6.854   1.892   9.189
13227WAT      O39922   7.845   5.202   2.994
13227WAT     H139923   7.747   5.186   2.999
13227WAT     H239924   7.888   5.177   3.081
13228WAT      O39925   0.188   7.445   0.875
13228WAT     H139926   0.090   7.467   0.880
13228WAT     H239927   0.241   7.517   0.920
13229WAT      O39928   3.536   1.732   9.258
13229WAT     H139929   3.496   1.796   9.192
13229WAT     H239930   3.503   1.640   9.239
13230WAT      O39931   4.459   3.438   6.192
13230WAT     H139932   4.394   3.491   6.138
13230WAT     H239933   4.532   3.499   6.224
13231WAT      O39934   0.665   4.162   5.484
13231WAT     H139935   0.704   4.075   5.456
13231WAT     H239936   0.701   4.187   5.574
13232WAT      O39937   3.813   3.334   0.876
13232WAT     H139938   3.767   3.246   0.868
13232WAT     H239939   3.814   3.362   0.973
13233WAT      O39940   2.434   5.000   9.768
13233WAT     H139941   2.513   5.012   9.828
13233WAT     H239942   2.388   5.088   9.754
13234WAT      O39943   6.335   8.180   2.233
13234WAT     H139944   6.355   8.095   2.183
13234WAT     H239945   6.275   8.237   2.178
13235WAT      O39946   1.315   7.260   1.177
13235WAT     H139947   1.360   7.270   1.089
13235WAT     H239948   1.337   7.170   1.216
13236WAT      O39949   6.250   2.961   4.994
13236WAT     H139950   6.297   2.874   4.979
13236WAT     H239951   6.208   2.961   5.085
13237WAT      O39952   1.219   8.578   7.777
13237WAT     H139953   1.130   8.594   7.818
13237WAT     H239954   1.261   8.498   7.820
13238WAT      O39955   8.552   1.488   7.794
13238WAT     H139956   8.515   1.580   7.785
13238WAT     H239957   8.622   1.472   7.725
13239WAT      O39958   8.186   1.623   9.000
13239WAT     H139959   8.157   1.610   9.095
13239WAT     H239960   8.149   1.549   8.944
13240WAT      O39961   7.023   1.566   9.122
13240WAT     H139962   7.059   1.507   9.050
13240WAT     H239963   6.988   1.510   9.197
13241WAT      O39964   5.925   6.717   1.749
13241WAT     H139965   5.976   6.765   1.822
13241WAT     H239966   5.906   6.781   1.675
13242WAT      O39967   3.461   0.769   6.982
13242WAT     H139968   3.380   0.714   7.003
13242WAT     H239969   3.527   0.762   7.057
13243WAT      O39970   5.263   0.431   0.265
13243WAT     H139971   5.305   0.383   0.187
13243WAT     H239972   5.235   0.523   0.237
13244WAT      O39973   7.841   8.597   0.772
13244WAT     H139974   7.861   8.690   0.802
13244WAT     H239975   7.848   8.592   0.672
13245WAT      O39976   2.632   2.513   7.091
13245WAT     H139977   2.661   2.417   7.095
13245WAT     H239978   2.583   2.537   7.175
13246WAT      O39979   8.830   8.065   5.001
13246WAT     H139980   8.737   8.087   4.971
13246WAT     H239981   8.881   8.150   5.014
13247WAT      O39982   8.004   3.283   8.869
13247WAT     H139983   8.050   3.195   8.859
13247WAT     H239984   7.925   3.286   8.808
13248WAT      O39985   8.848   2.009   2.397
13248WAT     H139986   8.855   1.909   2.406
13248WAT     H239987   8.779   2.031   2.328
13249WAT      O39988   1.753   2.316   1.593
13249WAT     H139989   1.692   2.314   1.513
13249WAT     H239990   1.722   2.248   1.659
13250WAT      O39991   5.016   3.384   3.267
13250WAT     H139992   4.990   3.302   3.215
13250WAT     H239993   5.115   3.384   3.282
13251WAT      O39994   4.292   8.255   7.315
13251WAT     H139995   4.387   8.247   7.344
13251WAT     H239996   4.285   8.322   7.241
13252WAT      O39997   4.443   6.755   9.022
13252WAT     H139998   4.491   6.810   9.090
13252WAT     H239999   4.465   6.658   9.036
13253WAT      O40000   8.570   0.328   3.513
13253WAT     H140001   8.552   0.275   3.596
13253WAT     H240002   8.654   0.295   3.470
13254WAT      O40003   1.054   7.253   5.116
13254WAT     H140004   1.137   7.213   5.076
13254WAT     H240005   1.047   7.225   5.212
13255WAT      O40006   0.059   5.886   3.724
13255WAT     H140007   0.153   5.863   3.749
13255WAT     H240008   0.050   5.886   3.625
13256WAT      O40009   5.417   5.779   4.401
13256WAT     H140010   5.502   5.755   4.353
13256WAT     H240011   5.398   5.876   4.387
13257WAT      O40012   5.208   8.648   5.852
13257WAT     H140013   5.182   8.666   5.757
13257WAT     H240014   5.126   8.628   5.905
13258WAT      O40015   1.779   6.122   1.419
13258WAT     H140016   1.853   6.167   1.470
13258WAT     H240017   1.691   6.153   1.454
13259WAT      O40018   7.988   8.837   2.953
13259WAT     H140019   8.030   8.846   3.043
13259WAT     H240020   8.047   8.880   2.884
13260WAT      O40021   8.880   0.318   6.736
13260WAT     H140022   8.812   0.275   6.677
13260WAT     H240023   8.955   0.353   6.679
13261WAT      O40024   8.456   5.815   9.065
13261WAT     H140025   8.492   5.755   8.994
13261WAT     H240026   8.526   5.884   9.089
13262WAT      O40027   6.082   5.413   4.852
13262WAT     H140028   6.130   5.336   4.894
13262WAT     H240029   5.989   5.417   4.887
13263WAT      O40030   8.500   9.566   5.629
13263WAT     H140031   8.412   9.522   5.645
13263WAT     H240032   8.497   9.660   5.663
13264WAT      O40033   5.973   6.505   9.853
13264WAT     H140034   5.990   6.472   9.760
13264WAT     H240035   5.992   6.433   9.918
13265WAT      O40036   7.669   7.483   0.850
13265WAT     H140037   7.672   7.450   0.756
13265WAT     H240038   7.659   7.582   0.851
13266WAT      O40039   5.367   1.063   4.631
13266WAT     H140040   5.309   1.082   4.710
13266WAT     H240041   5.454   1.112   4.641
13267WAT      O40042   3.219   9.585   4.083
13267WAT     H140043   3.254   9.572   4.176
13267WAT     H240044   3.266   9.522   4.021
13268WAT      O40045   5.674   0.283   2.474
13268WAT     H140046   5.691   0.292   2.376
13268WAT     H240047   5.601   0.344   2.502
13269WAT      O40048   6.638   5.839   5.343
13269WAT     H140049   6.732   5.807   5.338
13269WAT     H240050   6.636   5.934   5.374
13270WAT      O40051   9.775   2.176   8.867
13270WAT     H140052   9.694   2.141   8.819
13270WAT     H240053   9.857   2.137   8.825
13271WAT      O40054   6.345   2.020   5.875
13271WAT     H140055   6.350   2.095   5.810
13271WAT     H240056   6.437   1.988   5.896
13272WAT      O40057   5.783   3.125   5.917
13272WAT     H140058   5.702   3.155   5.867
13272WAT     H240059   5.756   3.093   6.007
13273WAT      O40060   2.629   6.017   3.323
13273WAT     H140061   2.637   6.018   3.223
13273WAT     H240062   2.693   5.951   3.361
13274WAT      O40063   0.175   8.925   0.560
13274WAT     H140064   0.126   8.867   0.495
13274WAT     H240065   0.132   9.015   0.562
13275WAT      O40066   9.531   3.850   8.811
13275WAT     H140067   9.448   3.892   8.846
13275WAT     H240068   9.599   3.921   8.791
13276WAT      O40069   7.382   7.386   7.925
13276WAT     H140070   7.364   7.288   7.923
13276WAT     H240071   7.442   7.411   7.848
13277WAT      O40072   5.350   5.952   0.426
13277WAT     H140073   5.334   5.957   0.328
13277WAT     H240074   5.295   5.878   0.465
13278WAT      O40075   1.218   2.677   1.089
13278WAT     H140076   1.125   2.691   1.122
13278WAT     H240077   1.232   2.729   1.005
13279WAT      O40078   4.982   7.896   7.560
13279WAT     H140079   4.977   7.908   7.461
13279WAT     H240080   5.077   7.879   7.586
13280WAT      O40081   5.744   2.095   9.003
13280WAT     H140082   5.655   2.138   9.015
13280WAT     H240083   5.775   2.109   8.909
13281WAT      O40084   8.941   0.903   8.865
13281WAT     H140085   8.877   0.842   8.818
13281WAT     H240086   8.960   0.983   8.807
13282WAT      O40087   1.366   6.500   3.184
13282WAT     H140088   1.405   6.428   3.126
13282WAT     H240089   1.330   6.574   3.128
13283WAT      O40090   5.365   6.001   2.240
13283WAT     H140091   5.313   6.086   2.240
13283WAT     H240092   5.369   5.964   2.147
13284WAT      O40093   1.917   2.640   0.720
13284WAT     H140094   1.937   2.733   0.689
13284WAT     H240095   1.891   2.584   0.642
13285WAT      O40096   6.911   4.662   6.853
13285WAT     H140097   6.913   4.692   6.757
13285WAT     H240098   6.819   4.674   6.889
13286WAT      O40099   5.041   7.990   9.668
13286WAT     H140100   5.032   8.016   9.572
13286WAT     H240101   4.983   7.911   9.687
13287WAT      O40102   3.368   0.581   3.700
13287WAT     H140103   3.304   0.513   3.735
13287WAT     H240104   3.433   0.536   3.638
13288WAT      O40105   7.466   2.463   5.999
13288WAT     H140106   7.484   2.496   5.907
13288WAT     H240107   7.506   2.372   6.011
13289WAT      O40108   4.906   7.942   5.206
13289WAT     H140109   4.993   7.901   5.180
13289WAT     H240110   4.879   7.910   5.297
13290WAT      O40111   3.329   6.830   9.518
13290WAT     H140112   3.307   6.737   9.548
13290WAT     H240113   3.389   6.873   9.586
13291WAT      O40114   9.402   0.810   1.047
13291WAT     H140115   9.425   0.739   0.980
13291WAT     H240116   9.303   0.813   1.060
13292WAT      O40117   5.253   3.540   8.279
13292WAT     H140118   5.207   3.451   8.283
13292WAT     H240119   5.309   3.545   8.197
13293WAT      O40120   8.054   2.968   5.160
13293WAT     H140121   8.119   2.982   5.236
13293WAT     H240122   8.101   2.924   5.084
13294WAT      O40123   6.600   7.999   3.229
13294WAT     H140124   6.668   8.041   3.169
13294WAT     H240125   6.544   8.070   3.271
13295WAT      O40126   1.883   9.240   5.876
13295WAT     H140127   1.855   9.246   5.780
13295WAT     H240128   1.832   9.167   5.921
13296WAT      O40129   4.048   4.125   4.790
13296WAT     H140130   3.983   4.152   4.719
13296WAT     H240131   4.039   4.027   4.808
13297WAT      O40132   2.186   3.429   6.314
13297WAT     H140133   2.165   3.344   6.265
13297WAT     H240134   2.235   3.407   6.398
13298WAT      O40135   6.855   9.803   4.229
13298WAT     H140136   6.879   9.721   4.177
13298WAT     H240137   6.784   9.854   4.181
13299WAT      O40138   4.673   0.384   8.372
13299WAT     H140139   4.757   0.424   8.334
13299WAT     H240140   4.669   0.402   8.471
13300WAT      O40141   2.834   7.469   2.657
13300WAT     H140142   2.835   7.395   2.725
13300WAT     H240143   2.869   7.435   2.570
13301WAT      O40144   7.549   2.205   5.950
13301WAT     H140145   7.526   2.163   5.862
13301WAT     H240146   7.511   2.151   6.025
13302WAT      O40147   0.205   4.554   1.709
13302WAT     H140148   0.273   4.613   1.753
13302WAT     H240149   0.192   4.582   1.614
13303WAT      O40150   2.850   2.029   5.289
13303WAT     H140151   2.931   2.080   5.315
13303WAT     H240152   2.837   1.953   5.353
13304WAT      O40153   2.949   4.266   7.762
13304WAT     H140154   2.878   4.325   7.800
13304WAT     H240155   3.025   4.323   7.730
13305WAT      O40156   0.445   3.327   4.990
13305WAT     H140157   0.455   3.227   4.988
13305WAT     H240158   0.350   3.351   4.971
13306WAT      O40159   2.413   1.099   6.846
13306WAT     H140160   2.470   1.033   6.896
13306WAT     H240161   2.471   1.161   6.794
13307WAT      O40162   6.975   6.805   8.492
13307WAT     H140163   7.056   6.860   8.473
13307WAT     H240164   6.915   6.806   8.412
13308WAT      O40165   7.123   2.381   6.178
13308WAT     H140166   7.038   2.380   6.231
13308WAT     H240167   7.102   2.366   6.081
13309WAT      O40168   1.946   6.364   1.993
13309WAT     H140169   1.940   6.293   2.064
13309WAT     H240170   1.854   6.384   1.959
13310WAT      O40171   6.299   1.420   5.752
13310WAT     H140172   6.242   1.343   5.782
13310WAT     H240173   6.355   1.451   5.828
13311WAT      O40174   3.586   6.468   8.841
13311WAT     H140175   3.664   6.478   8.903
13311WAT     H240176   3.541   6.380   8.858
13312WAT      O40177   8.836   7.535   9.321
13312WAT     H140178   8.779   7.456   9.343
13312WAT     H240179   8.790   7.619   9.350
13313WAT      O40180   8.174   3.670   5.490
13313WAT     H140181   8.076   3.665   5.508
13313WAT     H240182   8.212   3.749   5.539
13314WAT      O40183   6.428   5.265   5.899
13314WAT     H140184   6.401   5.300   5.810
13314WAT     H240185   6.365   5.300   5.969
13315WAT      O40186   4.053   7.821   8.704
13315WAT     H140187   4.030   7.735   8.749
13315WAT     H240188   4.142   7.813   8.658
13316WAT      O40189   6.284   6.581   6.853
13316WAT     H140190   6.244   6.662   6.896
13316WAT     H240191   6.269   6.502   6.913
13317WAT      O40192   6.288   6.761   7.536
13317WAT     H140193   6.221   6.737   7.607
13317WAT     H240194   6.372   6.795   7.579
13318WAT      O40195   0.400   5.073   2.682
13318WAT     H140196   0.371   5.123   2.764
13318WAT     H240197   0.360   5.117   2.602
13319WAT      O40198   2.781   8.347   4.701
13319WAT     H140199   2.850   8.357   4.773
13319WAT     H240200   2.821   8.369   4.612
13320WAT      O40201   7.865   6.032   6.194
13320WAT     H140202   7.885   6.071   6.104
13320WAT     H240203   7.792   6.084   6.238
13321WAT      O40204   6.460   4.069   4.740
13321WAT     H140205   6.448   4.167   4.750
13321WAT     H240206   6.484   4.048   4.645
13322WAT      O40207   7.719   4.485   9.052
13322WAT     H140208   7.732   4.422   9.128
13322WAT     H240209   7.807   4.501   9.006
13323WAT      O40210   6.136   9.321   3.372
13323WAT     H140211   6.154   9.223   3.379
13323WAT     H240212   6.220   9.369   3.346
13324WAT      O40213   5.813   3.284   6.644
13324WAT     H140214   5.720   3.313   6.620
13324WAT     H240215   5.813   3.243   6.735
13325WAT      O40216   4.506   3.866   0.056
13325WAT     H140217   4.434   3.891   0.122
13325WAT     H240218   4.481   3.781   0.010
13326WAT      O40219   3.121   1.393   3.048
13326WAT     H140220   3.162   1.303   3.063
13326WAT     H240221   3.037   1.400   3.101
13327WAT      O40222   8.775   4.587   1.264
13327WAT     H140223   8.686   4.632   1.274
13327WAT     H240224   8.760   4.490   1.244
13328WAT      O40225   5.417   5.535   3.052
13328WAT     H140226   5.501   5.573   3.013
13328WAT     H240227   5.348   5.526   2.981
13329WAT      O40228   0.022   1.089   7.423
13329WAT     H140229  -0.011   1.156   7.489
13329WAT     H240230   0.117   1.065   7.445
13330WAT      O40231   4.455   1.983   6.915
13330WAT     H140232   4.372   2.016   6.960
13330WAT     H240233   4.519   1.949   6.983
13331WAT      O40234   5.302   2.207   1.472
13331WAT     H140235   5.351   2.294   1.479
13331WAT     H240236   5.256   2.188   1.558
13332WAT      O40237   2.376   3.038   3.769
13332WAT     H140238   2.394   3.132   3.800
13332WAT     H240239   2.284   3.033   3.729
13333WAT      O40240   7.163   5.738   5.922
13333WAT     H140241   7.231   5.779   5.862
13333WAT     H240242   7.131   5.652   5.883
13334WAT      O40243   9.561   5.502   3.032
13334WAT     H140244   9.468   5.531   3.054
13334WAT     H240245   9.593   5.437   3.101
13335WAT      O40246   6.667   2.913   4.118
13335WAT     H140247   6.716   2.845   4.172
13335WAT     H240248   6.718   2.999   4.119
13336WAT      O40249   1.867   6.861   9.497
13336WAT     H140250   1.847   6.956   9.474
13336WAT     H240251   1.933   6.823   9.432
13337WAT      O40252   4.090   9.625   1.719
13337WAT     H140253   4.067   9.599   1.626
13337WAT     H240254   4.008   9.621   1.777
13338WAT      O40255   0.720   8.657   0.987
13338WAT     H140256   0.818   8.659   1.005
13338WAT     H240257   0.675   8.728   1.041
13339WAT      O40258   1.800   6.809   7.718
13339WAT     H140259   1.778   6.880   7.651
13339WAT     H240260   1.721   6.749   7.730
13340WAT      O40261   3.351   6.367   0.234
13340WAT     H140262   3.277   6.415   0.282
13340WAT     H240263   3.414   6.434   0.195
13341WAT      O40264   7.178   7.735   8.870
13341WAT     H140265   7.105   7.711   8.807
13341WAT     H240266   7.141   7.793   8.943
13342WAT      O40267   2.873   7.226   8.370
13342WAT     H140268   2.899   7.322   8.361
13342WAT     H240269   2.936   7.181   8.433
13343WAT      O40270   3.640   0.511   8.546
13343WAT     H140271   3.540   0.516   8.552
13343WAT     H240272   3.666   0.452   8.471
13344WAT      O40273   5.206   5.873   8.403
13344WAT     H140274   5.167   5.782   8.393
13344WAT     H240275   5.294   5.867   8.452
13345WAT      O40276   2.119   0.157   8.956
13345WAT     H140277   2.025   0.164   8.923
13345WAT     H240278   2.169   0.241   8.935
13346WAT      O40279   0.491   6.584   5.384
13346WAT     H140280   0.571   6.543   5.341
13346WAT     H240281   0.409   6.559   5.332
13347WAT      O40282   8.464   0.286   1.911
13347WAT     H140283   8.441   0.190   1.893
13347WAT     H240284   8.469   0.302   2.009
13348WAT      O40285   1.091   1.994   2.957
13348WAT     H140286   1.020   2.058   2.927
13348WAT     H240287   1.140   2.032   3.035
13349WAT      O40288   5.974   7.806   7.668
13349WAT     H140289   5.939   7.822   7.761
13349WAT     H240290   5.911   7.846   7.602
13350WAT      O40291   7.322   4.191   5.018
13350WAT     H140292   7.249   4.134   4.980
13350WAT     H240293   7.407   4.170   4.970
13351WAT      O40294   3.092   3.141   8.673
13351WAT     H140295   3.149   3.106   8.598
13351WAT     H240296   3.071   3.237   8.656
13352WAT      O40297   3.874   8.292   7.356
13352WAT     H140298   3.778   8.266   7.367
13352WAT     H240299   3.927   8.254   7.432
13353WAT      O40300   3.530   6.620   3.034
13353WAT     H140301   3.445   6.595   3.081
13353WAT     H240302   3.598   6.649   3.102
13354WAT      O40303   0.425   6.093   8.753
13354WAT     H140304   0.443   6.093   8.851
13354WAT     H240305   0.333   6.058   8.735
13355WAT      O40306   1.220   6.926   3.907
13355WAT     H140307   1.273   6.842   3.910
13355WAT     H240308   1.253   6.990   3.976
13356WAT      O40309   4.680   9.386   9.493
13356WAT     H140310   4.687   9.464   9.430
13356WAT     H240311   4.649   9.418   9.582
13357WAT      O40312   3.000   8.469   0.916
13357WAT     H140313   2.951   8.532   0.856
13357WAT     H240314   2.972   8.486   1.011
13358WAT      O40315   3.082   0.349   9.663
13358WAT     H140316   3.119   0.440   9.642
13358WAT     H240317   3.038   0.312   9.581
13359WAT      O40318   4.375   1.425   8.086
13359WAT     H140319   4.410   1.430   8.179
13359WAT     H240320   4.276   1.419   8.088
13360WAT      O40321   2.471   2.938   1.665
13360WAT     H140322   2.492   2.909   1.572
13360WAT     H240323   2.399   3.008   1.662
13361WAT      O40324   5.181   7.883   2.810
13361WAT     H140325   5.194   7.884   2.909
13361WAT     H240326   5.264   7.916   2.765
13362WAT      O40327   9.349   8.595   6.113
13362WAT     H140328   9.431   8.539   6.099
13362WAT     H240329   9.279   8.569   6.047
13363WAT      O40330   8.928   2.142   4.862
13363WAT     H140331   9.023   2.120   4.883
13363WAT     H240332   8.869   2.105   4.933
13364WAT      O40333   2.632   9.291   1.841
13364WAT     H140334   2.581   9.251   1.765
13364WAT     H240335   2.568   9.327   1.909
13365WAT      O40336   6.392   6.746   9.595
13365WAT     H140337   6.422   6.842   9.591
13365WAT     H240338   6.333   6.732   9.675
13366WAT      O40339   7.023   2.394   1.299
13366WAT     H140340   7.001   2.471   1.238
13366WAT     H240341   6.984   2.310   1.262
13367WAT      O40342   3.760   5.147   5.574
13367WAT     H140343   3.683   5.198   5.614
13367WAT     H240344   3.791   5.194   5.492
13368WAT      O40345   8.922   4.864   1.836
13368WAT     H140346   8.894   4.860   1.740
13368WAT     H240347   8.881   4.788   1.886
13369WAT      O40348   4.880   1.812   9.627
13369WAT     H140349   4.814   1.868   9.677
13369WAT     H240350   4.859   1.715   9.640
13370WAT      O40351   7.335   0.087   4.083
13370WAT     H140352   7.354   0.030   4.163
13370WAT     H240353   7.242   0.070   4.050
13371WAT      O40354   5.701   0.839   2.697
13371WAT     H140355   5.713   0.755   2.750
13371WAT     H240356   5.621   0.889   2.731
13372WAT      O40357   4.264   0.701   1.730
13372WAT     H140358   4.289   0.614   1.772
13372WAT     H240359   4.180   0.735   1.772
13373WAT      O40360   2.655   8.191   3.629
13373WAT     H140361   2.555   8.185   3.631
13373WAT     H240362   2.694   8.114   3.680
13374WAT      O40363   4.160   3.078   2.798
13374WAT     H140364   4.120   3.081   2.890
13374WAT     H240365   4.260   3.085   2.805
13375WAT      O40366   9.175   2.101   5.003
13375WAT     H140367   9.203   2.195   4.986
13375WAT     H240368   9.253   2.040   4.987
13376WAT      O40369   4.034   5.296   1.742
13376WAT     H140370   4.116   5.352   1.732
13376WAT     H240371   3.986   5.322   1.825
13377WAT      O40372   1.272   7.358   5.376
13377WAT     H140373   1.225   7.445   5.388
13377WAT     H240374   1.333   7.363   5.297
13378WAT      O40375   7.403   3.684   6.837
13378WAT     H140376   7.369   3.778   6.845
13378WAT     H240377   7.396   3.655   6.741
13379WAT      O40378   3.598   4.890   4.191
13379WAT     H140379   3.571   4.974   4.237
13379WAT     H240380   3.591   4.902   4.092
13380WAT      O40381   1.383   4.590   9.564
13380WAT     H140382   1.432   4.674   9.541
13380WAT     H240383   1.351   4.546   9.480
13381WAT      O40384   3.009   6.246   2.150
13381WAT     H140385   3.027   6.152   2.179
13381WAT     H240386   2.968   6.245   2.059
13382WAT      O40387   8.846   1.350   8.796
13382WAT     H140388   8.754   1.377   8.823
13382WAT     H240389   8.902   1.432   8.783
13383WAT      O40390   2.701   6.821   1.060
13383WAT     H140391   2.724   6.871   1.143
13383WAT     H240392   2.603   6.831   1.041
13384WAT      O40393   3.385   2.319   8.089
13384WAT     H140394   3.337   2.236   8.118
13384WAT     H240395   3.426   2.364   8.169
13385WAT      O40396   6.891   3.834   2.036
13385WAT     H140397   6.906   3.739   2.066
13385WAT     H240398   6.970   3.864   1.982
13386WAT      O40399   4.561   0.724   7.069
13386WAT     H140400   4.616   0.780   7.006
13386WAT     H240401   4.606   0.720   7.158
13387WAT      O40402   7.960   5.421   9.798
13387WAT     H140403   7.954   5.381   9.889
13387WAT     H240404   7.872   5.461   9.773
13388WAT      O40405   9.380   2.115   5.662
13388WAT     H140406   9.320   2.036   5.652
13388WAT     H240407   9.391   2.137   5.759
13389WAT      O40408   9.683   4.811   5.590
13389WAT     H140409   9.664   4.721   5.550
13389WAT     H240410   9.622   4.879   5.549
13390WAT      O40411   8.041   7.138   4.222
13390WAT     H140412   7.987   7.065   4.179
13390WAT     H240413   8.012   7.226   4.184
13391WAT      O40414   5.003   2.290   7.132
13391WAT     H140415   4.976   2.234   7.053
13391WAT     H240416   5.031   2.230   7.207
13392WAT      O40417   9.364   1.013   0.672
13392WAT     H140418   9.351   0.980   0.579
13392WAT     H240419   9.462   1.020   0.692
13393WAT      O40420   9.026   9.390   3.396
13393WAT     H140421   9.086   9.461   3.434
13393WAT     H240422   8.950   9.434   3.347
13394WAT      O40423   6.166   3.747   0.334
13394WAT     H140424   6.191   3.686   0.409
13394WAT     H240425   6.229   3.825   0.332
13395WAT      O40426   0.055   4.548   2.777
13395WAT     H140427   0.103   4.497   2.706
13395WAT     H240428   0.117   4.616   2.817
13396WAT      O40429   0.718   5.032   6.630
13396WAT     H140430   0.763   4.964   6.688
13396WAT     H240431   0.719   5.121   6.677
13397WAT      O40432   8.920   1.336   3.503
13397WAT     H140433   8.933   1.238   3.489
13397WAT     H240434   8.919   1.383   3.415
13398WAT      O40435   0.925   8.477   9.639
13398WAT     H140436   0.939   8.574   9.620
13398WAT     H240437   0.922   8.463   9.738
13399WAT      O40438   0.836   8.133   3.342
13399WAT     H140439   0.832   8.199   3.417
13399WAT     H240440   0.760   8.150   3.279
13400WAT      O40441   8.174   6.431   2.709
13400WAT     H140442   8.270   6.421   2.682
13400WAT     H240443   8.118   6.365   2.659
13401WAT      O40444   4.889   0.620   6.643
13401WAT     H140445   4.896   0.637   6.545
13401WAT     H240446   4.831   0.540   6.659
13402WAT      O40447   1.730   4.284   3.982
13402WAT     H140448   1.741   4.202   3.925
13402WAT     H240449   1.808   4.291   4.044
13403WAT      O40450   0.054   7.821   4.078
13403WAT     H140451  -0.006   7.799   4.154
13403WAT     H240452   0.096   7.737   4.043
13404WAT      O40453   9.650   4.222   3.125
13404WAT     H140454   9.561   4.265   3.140
13404WAT     H240455   9.656   4.191   3.030
13405WAT      O40456   9.285   4.945   7.793
13405WAT     H140457   9.363   4.921   7.735
13405WAT     H240458   9.211   4.879   7.778
13406WAT      O40459   9.667   1.881   9.041
13406WAT     H140460   9.595   1.914   8.980
13406WAT     H240461   9.648   1.911   9.135
13407WAT      O40462   5.678   4.289   0.551
13407WAT     H140463   5.620   4.284   0.470
13407WAT     H240464   5.682   4.384   0.584
13408WAT      O40465   5.947   2.587   0.926
13408WAT     H140466   5.964   2.489   0.928
13408WAT     H240467   5.995   2.628   0.848
13409WAT      O40468   5.320   7.262   1.109
13409WAT     H140469   5.364   7.349   1.089
13409WAT     H240470   5.353   7.193   1.045
13410WAT      O40471   1.192   3.690   7.684
13410WAT     H140472   1.264   3.752   7.653
13410WAT     H240473   1.122   3.741   7.734
13411WAT      O40474   7.498   0.942   6.843
13411WAT     H140475   7.472   0.924   6.938
13411WAT     H240476   7.416   0.966   6.791
13412WAT      O40477   6.024   6.439   4.066
13412WAT     H140478   6.111   6.439   4.116
13412WAT     H240479   5.962   6.505   4.108
13413WAT      O40480   5.844   5.812   7.780
13413WAT     H140481   5.888   5.784   7.695
13413WAT     H240482   5.856   5.740   7.848
13414WAT      O40483   3.976   0.852   2.592
13414WAT     H140484   3.943   0.940   2.559
13414WAT     H240485   4.062   0.867   2.643
13415WAT      O40486   8.430   9.580   3.687
13415WAT     H140487   8.423   9.645   3.611
13415WAT     H240488   8.343   9.530   3.696
13416WAT      O40489   3.077   7.095   7.133
13416WAT     H140490   3.116   7.177   7.091
13416WAT     H240491   3.130   7.071   7.214
13417WAT      O40492   5.311   2.820   6.225
13417WAT     H140493   5.325   2.781   6.134
13417WAT     H240494   5.218   2.798   6.256
13418WAT      O40495   6.105   6.639   7.964
13418WAT     H140496   6.129   6.567   7.899
13418WAT     H240497   6.006   6.642   7.976
13419WAT      O40498   0.298   6.678   2.475
13419WAT     H140499   0.375   6.664   2.538
13419WAT     H240500   0.244   6.756   2.506
13420WAT      O40501   4.636   5.544   2.968
13420WAT     H140502   4.588   5.552   2.881
13420WAT     H240503   4.590   5.477   3.026
13421WAT      O40504   3.247   7.438   1.273
13421WAT     H140505   3.296   7.517   1.235
13421WAT     H240506   3.150   7.444   1.248
13422WAT      O40507   5.938   4.949   5.449
13422WAT     H140508   5.944   4.852   5.470
13422WAT     H240509   5.937   4.961   5.349
13423WAT      O40510   4.030   9.484   5.731
13423WAT     H140511   3.932   9.484   5.749
13423WAT     H240512   4.051   9.548   5.657
13424WAT      O40513   4.657   9.045   9.297
13424WAT     H140514   4.650   9.054   9.198
13424WAT     H240515   4.722   9.113   9.332
13425WAT      O40516   4.444   1.480   2.436
13425WAT     H140517   4.450   1.554   2.503
13425WAT     H240518   4.448   1.392   2.483
13426WAT      O40519   1.035   2.078   1.746
13426WAT     H140520   0.949   2.090   1.697
13426WAT     H240521   1.058   2.163   1.794
13427WAT      O40522   6.757   4.302   5.772
13427WAT     H140523   6.696   4.368   5.816
13427WAT     H240524   6.757   4.217   5.824
13428WAT      O40525   4.754   7.487   5.747
13428WAT     H140526   4.718   7.581   5.748
13428WAT     H240527   4.853   7.489   5.730
13429WAT      O40528   7.348   4.299   4.273
13429WAT     H140529   7.403   4.305   4.356
13429WAT     H240530   7.405   4.266   4.198
13430WAT      O40531   5.578   1.153   1.080
13430WAT     H140532   5.648   1.143   1.151
13430WAT     H240533   5.590   1.241   1.035
13431WAT      O40534   0.145   3.535   1.313
13431WAT     H140535   0.160   3.532   1.412
13431WAT     H240536   0.070   3.472   1.290
13432WAT      O40537   1.926   4.479   2.575
13432WAT     H140538   1.885   4.389   2.563
13432WAT     H240539   1.901   4.538   2.498
13433WAT      O40540   8.552   1.757   6.788
13433WAT     H140541   8.537   1.791   6.695
13433WAT     H240542   8.618   1.682   6.786
13434WAT      O40543   5.065   1.792   9.175
13434WAT     H140544   4.981   1.746   9.204
13434WAT     H240545   5.137   1.723   9.160
13435WAT      O40546   0.787   4.415   3.156
13435WAT     H140547   0.825   4.331   3.118
13435WAT     H240548   0.744   4.395   3.244
13436WAT      O40549   0.436   8.927   2.584
13436WAT     H140550   0.383   8.925   2.669
13436WAT     H240551   0.502   9.002   2.587
13437WAT      O40552   5.445   7.418   2.463
13437WAT     H140553   5.472   7.431   2.368
13437WAT     H240554   5.527   7.425   2.521
13438WAT      O40555   3.052   6.769   5.935
13438WAT     H140556   3.132   6.798   5.988
13438WAT     H240557   3.037   6.671   5.949
13439WAT      O40558   5.435   2.024   1.114
13439WAT     H140559   5.488   2.003   1.196
13439WAT     H240560   5.374   1.949   1.093
13440WAT      O40561   9.381   6.801   9.486
13440WAT     H140562   9.315   6.760   9.549
13440WAT     H240563   9.470   6.757   9.499
13441WAT      O40564   4.158   7.017   4.585
13441WAT     H140565   4.129   7.079   4.657
13441WAT     H240566   4.239   6.966   4.615
13442WAT      O40567   4.419   0.935   7.893
13442WAT     H140568   4.349   0.865   7.906
13442WAT     H240569   4.410   1.006   7.963
13443WAT      O40570   8.667   4.757   3.489
13443WAT     H140571   8.678   4.845   3.442
13443WAT     H240572   8.699   4.765   3.583
13444WAT      O40573   4.717   0.547   4.585
13444WAT     H140574   4.813   0.546   4.557
13444WAT     H240575   4.665   0.607   4.525
13445WAT      O40576   5.443   7.678   0.446
13445WAT     H140577   5.363   7.713   0.397
13445WAT     H240578   5.416   7.600   0.503
13446WAT      O40579   5.246   9.075   0.478
13446WAT     H140580   5.177   9.141   0.449
13446WAT     H240581   5.335   9.099   0.439
13447WAT      O40582   2.134   4.573   8.126
13447WAT     H140583   2.062   4.609   8.185
13447WAT     H240584   2.143   4.474   8.141
13448WAT      O40585   1.732   2.340   0.233
13448WAT     H140586   1.741   2.320   0.136
13448WAT     H240587   1.822   2.348   0.275
13449WAT      O40588   4.914   5.086   2.969
13449WAT     H140589   4.954   5.177   2.963
13449WAT     H240590   4.924   5.052   3.063
13450WAT      O40591   9.591   5.300   2.607
13450WAT     H140592   9.681   5.310   2.564
13450WAT     H240593   9.538   5.230   2.559
13451WAT      O40594   2.462   9.719   5.680
13451WAT     H140595   2.433   9.791   5.743
13451WAT     H240596   2.399   9.642   5.687
13452WAT      O40597   9.700   2.358   5.840
13452WAT     H140598   9.687   2.373   5.742
13452WAT     H240599   9.617   2.386   5.889
13453WAT      O40600   0.791   7.604   4.051
13453WAT     H140601   0.694   7.611   4.074
13453WAT     H240602   0.846   7.645   4.123
13454WAT      O40603   7.273   1.959   9.464
13454WAT     H140604   7.369   1.953   9.491
13454WAT     H240605   7.267   2.004   9.375
13455WAT      O40606   9.449   3.182   2.433
13455WAT     H140607   9.357   3.200   2.468
13455WAT     H240608   9.494   3.268   2.411
13456WAT      O40609   1.312   4.031   9.843
13456WAT     H140610   1.303   4.071   9.935
13456WAT     H240611   1.241   3.962   9.830
13457WAT      O40612   2.618   3.379   6.501
13457WAT     H140613   2.680   3.304   6.478
13457WAT     H240614   2.638   3.458   6.442
13458WAT      O40615   4.174   7.353   6.201
13458WAT     H140616   4.093   7.398   6.163
13458WAT     H240617   4.210   7.409   6.276
13459WAT      O40618   9.809   2.573   0.780
13459WAT     H140619   9.712   2.590   0.762
13459WAT     H240620   9.829   2.598   0.875
13460WAT      O40621   5.236   9.463   3.438
13460WAT     H140622   5.227   9.461   3.538
13460WAT     H240623   5.148   9.489   3.397
13461WAT      O40624   4.387   3.829   6.727
13461WAT     H140625   4.322   3.815   6.653
13461WAT     H240626   4.366   3.768   6.803
13462WAT      O40627   0.597   2.177   9.329
13462WAT     H140628   0.609   2.085   9.368
13462WAT     H240629   0.621   2.175   9.232
13463WAT      O40630   6.560   5.666   7.106
13463WAT     H140631   6.543   5.632   7.013
13463WAT     H240632   6.474   5.665   7.157
13464WAT      O40633   5.338   8.134   7.777
13464WAT     H140634   5.278   8.161   7.853
13464WAT     H240635   5.306   8.047   7.739
13465WAT      O40636   8.632   1.891   7.754
13465WAT     H140637   8.596   1.970   7.703
13465WAT     H240638   8.560   1.852   7.811
13466WAT      O40639   1.013   8.408   1.675
13466WAT     H140640   1.063   8.338   1.624
13466WAT     H240641   1.010   8.383   1.772
13467WAT      O40642   3.735   8.613   5.165
13467WAT     H140643   3.683   8.532   5.191
13467WAT     H240644   3.676   8.693   5.171
13468WAT      O40645   5.719   1.997   0.009
13468WAT     H140646   5.710   2.057   0.089
13468WAT     H240647   5.665   2.034  -0.067
13469WAT      O40648   4.261   8.715   3.280
13469WAT     H140649   4.261   8.721   3.181
13469WAT     H240650   4.223   8.800   3.318
13470WAT      O40651   7.420   1.466   7.788
13470WAT     H140652   7.513   1.465   7.749
13470WAT     H240653   7.422   1.511   7.877
13471WAT      O40654   4.575   0.944   2.512
13471WAT     H140655   4.588   0.942   2.413
13471WAT     H240656   4.574   0.850   2.547
13472WAT      O40657   8.718   3.979   7.327
13472WAT     H140658   8.772   3.902   7.359
13472WAT     H240659   8.752   4.008   7.237
13473WAT      O40660   6.913   3.679   5.485
13473WAT     H140661   6.962   3.762   5.456
13473WAT     H240662   6.894   3.684   5.582
13474WAT      O40663   6.864   0.404   1.702
13474WAT     H140664   6.921   0.419   1.782
13474WAT     H240665   6.912   0.346   1.637
13475WAT      O40666   3.039   0.337   5.976
13475WAT     H140667   3.126   0.291   5.963
13475WAT     H240668   3.002   0.313   6.067
13476WAT      O40669   3.921   6.091   0.998
13476WAT     H140670   3.859   6.096   1.076
13476WAT     H240671   3.955   6.183   0.977
13477WAT      O40672   7.774   8.639   9.060
13477WAT     H140673   7.865   8.611   9.029
13477WAT     H240674   7.709   8.629   8.985
13478WAT      O40675   1.155   3.058   0.360
13478WAT     H140676   1.170   3.105   0.447
13478WAT     H240677   1.057   3.058   0.339
13479WAT      O40678   3.090   0.033   0.513
13479WAT     H140679   3.166  -0.032   0.519
13479WAT     H240680   3.003  -0.017   0.521
13480WAT      O40681   2.835   4.691   7.793
13480WAT     H140682   2.807   4.606   7.839
13480WAT     H240683   2.934   4.690   7.780
13481WAT      O40684   6.651   9.723   9.643
13481WAT     H140685   6.703   9.802   9.675
13481WAT     H240686   6.642   9.726   9.544
13482WAT      O40687   0.915   6.278   0.847
13482WAT     H140688   0.921   6.347   0.775
13482WAT     H240689   0.935   6.188   0.809
13483WAT      O40690   0.020   1.907   5.640
13483WAT     H140691   0.037   1.925   5.543
13483WAT     H240692   0.030   1.992   5.692
13484WAT      O40693   2.751   0.165   1.421
13484WAT     H140694   2.836   0.206   1.388
13484WAT     H240695   2.724   0.090   1.360
13485WAT      O40696   1.980   7.080   2.741
13485WAT     H140697   1.968   7.087   2.642
13485WAT     H240698   2.055   7.017   2.762
13486WAT      O40699   9.139   1.055   7.252
13486WAT     H140700   9.114   0.958   7.240
13486WAT     H240701   9.081   1.094   7.323
13487WAT      O40702   2.060   2.820   0.925
13487WAT     H140703   2.032   2.782   0.837
13487WAT     H240704   2.037   2.757   0.998
13488WAT      O40705   7.538   3.012   9.876
13488WAT     H140706   7.494   3.101   9.889
13488WAT     H240707   7.581   3.010   9.786
13489WAT      O40708   7.390   5.894   1.054
13489WAT     H140709   7.385   5.991   1.030
13489WAT     H240710   7.309   5.868   1.106
13490WAT      O40711   2.638   7.614   2.107
13490WAT     H140712   2.642   7.672   2.188
13490WAT     H240713   2.544   7.613   2.071
13491WAT      O40714   3.393   7.380   6.245
13491WAT     H140715   3.413   7.350   6.152
13491WAT     H240716   3.450   7.329   6.310
13492WAT      O40717   2.396   8.416   7.461
13492WAT     H140718   2.495   8.417   7.473
13492WAT     H240719   2.373   8.438   7.366
13493WAT      O40720   6.259   8.091   9.629
13493WAT     H140721   6.254   8.045   9.718
13493WAT     H240722   6.274   8.023   9.557
13494WAT      O40723   0.606   5.822   6.849
13494WAT     H140724   0.543   5.751   6.817
13494WAT     H240725   0.562   5.874   6.923
13495WAT      O40726   9.770   6.133   9.547
13495WAT     H140727   9.705   6.177   9.608
13495WAT     H240728   9.721   6.079   9.479
13496WAT      O40729   6.092   5.631   5.787
13496WAT     H140730   6.044   5.719   5.779
13496WAT     H240731   6.063   5.570   5.714
13497WAT      O40732   4.835   1.879   6.938
13497WAT     H140733   4.774   1.880   7.018
13497WAT     H240734   4.787   1.841   6.860
13498WAT      O40735   8.227   3.397   5.836
13498WAT     H140736   8.227   3.362   5.929
13498WAT     H240737   8.140   3.374   5.792
13499WAT      O40738   2.921   8.688   8.033
13499WAT     H140739   2.870   8.752   8.091
13499WAT     H240740   2.867   8.667   7.952
13500WAT      O40741   9.314   8.173   6.621
13500WAT     H140742   9.361   8.246   6.572
13500WAT     H240743   9.330   8.182   6.719
13501WAT      O40744   4.559   1.717   4.137
13501WAT     H140745   4.548   1.618   4.134
13501WAT     H240746   4.586   1.744   4.229
13502WAT      O40747   9.251   4.273   6.655
13502WAT     H140748   9.320   4.290   6.585
13502WAT     H240749   9.265   4.182   6.695
13503WAT      O40750   2.164   4.661   9.856
13503WAT     H140751   2.081   4.641   9.907
13503WAT     H240752   2.161   4.614   9.768
13504WAT      O40753   2.033   2.477   5.598
13504WAT     H140754   2.109   2.534   5.567
13504WAT     H240755   2.032   2.392   5.544
13505WAT      O40756   5.765   7.776   5.394
13505WAT     H140757   5.685   7.740   5.441
13505WAT     H240758   5.844   7.770   5.454
13506WAT      O40759   4.081   1.206   6.742
13506WAT     H140760   4.062   1.302   6.767
13506WAT     H240761   3.997   1.153   6.752
13507WAT      O40762   0.006   8.104   0.508
13507WAT     H140763  -0.045   8.046   0.571
13507WAT     H240764  -0.040   8.107   0.419
13508WAT      O40765   7.812   8.867   5.782
13508WAT     H140766   7.759   8.852   5.699
13508WAT     H240767   7.816   8.965   5.802
13509WAT      O40768   3.569   9.443   7.614
13509WAT     H140769   3.631   9.520   7.600
13509WAT     H240770   3.475   9.471   7.597
13510WAT      O40771   0.329   6.791   3.630
13510WAT     H140772   0.322   6.691   3.637
13510WAT     H240773   0.426   6.817   3.623
13511WAT      O40774   5.687   1.316   3.195
13511WAT     H140775   5.709   1.260   3.116
13511WAT     H240776   5.739   1.402   3.191
13512WAT      O40777   6.983   1.838   4.701
13512WAT     H140778   6.989   1.933   4.671
13512WAT     H240779   6.945   1.834   4.794
13513WAT      O40780   6.691   9.656   0.921
13513WAT     H140781   6.753   9.734   0.911
13513WAT     H240782   6.733   9.574   0.882
13514WAT      O40783   1.552   5.344   7.241
13514WAT     H140784   1.506   5.359   7.329
13514WAT     H240785   1.519   5.259   7.201
13515WAT      O40786   8.088   3.030   1.132
13515WAT     H140787   8.057   3.107   1.075
13515WAT     H240788   8.117   2.955   1.073
13516WAT      O40789   0.493   6.918   8.920
13516WAT     H140790   0.577   6.874   8.950
13516WAT     H240791   0.447   6.958   9.000
13517WAT      O40792   2.435   2.641   4.327
13517WAT     H140793   2.392   2.554   4.351
13517WAT     H240794   2.367   2.715   4.332
13518WAT      O40795   3.449   6.675   1.587
13518WAT     H140796   3.358   6.674   1.545
13518WAT     H240797   3.517   6.648   1.519
13519WAT      O40798   7.324   1.615   9.322
13519WAT     H140799   7.328   1.515   9.313
13519WAT     H240800   7.300   1.656   9.234
13520WAT      O40801   7.770   3.796   1.631
13520WAT     H140802   7.863   3.761   1.643
13520WAT     H240803   7.709   3.721   1.604
13521WAT      O40804   5.312   2.225   9.777
13521WAT     H140805   5.256   2.174   9.843
13521WAT     H240806   5.277   2.211   9.685
13522WAT      O40807   7.425   4.791   3.569
13522WAT     H140808   7.430   4.891   3.576
13522WAT     H240809   7.470   4.761   3.485
13523WAT      O40810   4.654   9.708   7.968
13523WAT     H140811   4.731   9.737   8.026
13523WAT     H240812   4.571   9.756   7.997
13524WAT      O40813   7.399   1.811   7.815
13524WAT     H140814   7.346   1.768   7.742
13524WAT     H240815   7.398   1.752   7.896
13525WAT      O40816   1.451   5.456   6.145
13525WAT     H140817   1.412   5.499   6.063
13525WAT     H240818   1.495   5.526   6.201
13526WAT      O40819   3.975   4.213   9.656
13526WAT     H140820   4.020   4.284   9.710
13526WAT     H240821   4.042   4.170   9.595
13527WAT      O40822   5.662   4.589   9.032
13527WAT     H140823   5.608   4.673   9.023
13527WAT     H240824   5.643   4.545   9.120
13528WAT      O40825   9.579   4.263   0.511
13528WAT     H140826   9.534   4.185   0.554
13528WAT     H240827   9.674   4.240   0.493
13529WAT      O40828   5.389   1.056   1.242
13529WAT     H140829   5.440   1.105   1.171
13529WAT     H240830   5.409   1.097   1.331
13530WAT      O40831   3.275   4.160   0.713
13530WAT     H140832   3.238   4.082   0.764
13530WAT     H240833   3.236   4.244   0.749
13531WAT      O40834   7.962   8.400   1.160
13531WAT     H140835   7.872   8.438   1.184
13531WAT     H240836   7.977   8.410   1.062
13532WAT      O40837   2.335   3.469   2.243
13532WAT     H140838   2.278   3.431   2.315
13532WAT     H240839   2.425   3.426   2.246
13533WAT      O40840   0.512   5.134   8.816
13533WAT     H140841   0.449   5.057   8.802
13533WAT     H240842   0.463   5.209   8.862
13534WAT      O40843   0.271   3.208   0.703
13534WAT     H140844   0.181   3.248   0.723
13534WAT     H240845   0.278   3.188   0.606
13535WAT      O40846   3.473   0.753   1.621
13535WAT     H140847   3.391   0.742   1.566
13535WAT     H240848   3.540   0.807   1.570
13536WAT      O40849   8.252   7.202   9.315
13536WAT     H140850   8.227   7.199   9.411
13536WAT     H240851   8.181   7.251   9.264
13537WAT      O40852   8.803   9.617   8.670
13537WAT     H140853   8.827   9.556   8.745
13537WAT     H240854   8.886   9.645   8.622
13538WAT      O40855   9.683   8.721   2.729
13538WAT     H140856   9.640   8.711   2.819
13538WAT     H240857   9.645   8.654   2.666
13539WAT      O40858   7.183   0.827   3.633
13539WAT     H140859   7.156   0.906   3.577
13539WAT     H240860   7.259   0.854   3.692
13540WAT      O40861   9.128   9.060   7.736
13540WAT     H140862   9.071   8.997   7.683
13540WAT     H240863   9.210   9.082   7.685
13541WAT      O40864   4.603   8.985   9.750
13541WAT     H140865   4.583   9.046   9.673
13541WAT     H240866   4.517   8.953   9.790
13542WAT      O40867   3.956   5.456   8.546
13542WAT     H140868   3.997   5.426   8.459
13542WAT     H240869   3.913   5.377   8.590
13543WAT      O40870   4.477   4.263   0.212
13543WAT     H140871   4.488   4.203   0.132
13543WAT     H240872   4.414   4.220   0.277
13544WAT      O40873   7.030   4.509   1.706
13544WAT     H140874   6.931   4.513   1.722
13544WAT     H240875   7.060   4.593   1.662
13545WAT      O40876   6.034   1.734   1.463
13545WAT     H140877   5.991   1.809   1.513
13545WAT     H240878   6.115   1.769   1.415
13546WAT      O40879   1.497   1.806   4.907
13546WAT     H140880   1.468   1.711   4.896
13546WAT     H240881   1.468   1.860   4.828
13547WAT      O40882   2.039   6.683   9.632
13547WAT     H140883   2.007   6.766   9.587
13547WAT     H240884   1.967   6.614   9.632
13548WAT      O40885   0.759   8.295   1.365
13548WAT     H140886   0.715   8.334   1.284
13548WAT     H240887   0.788   8.201   1.345
13549WAT      O40888   9.438   9.062   0.870
13549WAT     H140889   9.482   8.990   0.924
13549WAT     H240890   9.473   9.151   0.899
13550WAT      O40891   0.130   4.973   0.265
13550WAT     H140892   0.102   4.972   0.361
13550WAT     H240893   0.075   4.908   0.213
13551WAT      O40894   5.580   7.684   5.609
13551WAT     H140895   5.511   7.718   5.672
13551WAT     H240896   5.665   7.665   5.659
13552WAT      O40897   6.931   5.335   5.145
13552WAT     H140898   6.910   5.237   5.152
13552WAT     H240899   7.018   5.347   5.097
13553WAT      O40900   6.930   0.265   0.802
13553WAT     H140901   6.904   0.188   0.860
13553WAT     H240902   6.911   0.350   0.850
13554WAT      O40903   6.985   0.659   2.087
13554WAT     H140904   6.983   0.751   2.047
13554WAT     H240905   7.073   0.645   2.133
13555WAT      O40906   1.983   3.126   4.239
13555WAT     H140907   1.967   3.224   4.236
13555WAT     H240908   2.071   3.107   4.281
13556WAT      O40909   2.084   1.266   0.123
13556WAT     H140910   2.053   1.237   0.033
13556WAT     H240911   2.161   1.329   0.113
13557WAT      O40912   3.712   2.896   3.726
13557WAT     H140913   3.629   2.895   3.783
13557WAT     H240914   3.727   2.989   3.691
13558WAT      O40915   4.978   2.696   0.324
13558WAT     H140916   4.915   2.683   0.247
13558WAT     H240917   4.939   2.762   0.388
13559WAT      O40918   5.663   5.332   1.958
13559WAT     H140919   5.572   5.373   1.946
13559WAT     H240920   5.715   5.386   2.023
13560WAT      O40921   1.791   0.500   4.007
13560WAT     H140922   1.848   0.555   3.945
13560WAT     H240923   1.845   0.475   4.087
13561WAT      O40924   3.323   8.167   6.809
13561WAT     H140925   3.333   8.113   6.893
13561WAT     H240926   3.282   8.111   6.737
13562WAT      O40927   1.812   5.398   8.346
13562WAT     H140928   1.734   5.370   8.401
13562WAT     H240929   1.879   5.445   8.405
13563WAT      O40930   5.166   2.693   0.569
13563WAT     H140931   5.196   2.662   0.479
13563WAT     H240932   5.103   2.769   0.559
13564WAT      O40933   0.151   2.407   9.087
13564WAT     H140934   0.080   2.339   9.105
13564WAT     H240935   0.113   2.480   9.029
13565WAT      O40936   8.003   2.957   3.467
13565WAT     H140937   8.001   2.950   3.566
13565WAT     H240938   8.092   2.925   3.433
13566WAT      O40939   2.231   4.033   6.388
13566WAT     H140940   2.207   4.108   6.449
13566WAT     H240941   2.164   4.028   6.314
13567WAT      O40942   8.547   3.814   5.031
13567WAT     H140943   8.450   3.837   5.034
13567WAT     H240944   8.583   3.831   4.939
13568WAT      O40945   2.780   8.483   1.260
13568WAT     H140946   2.730   8.555   1.211
13568WAT     H240947   2.736   8.466   1.348
13569WAT      O40948   8.982   3.922   3.565
13569WAT     H140949   8.897   3.914   3.514
13569WAT     H240950   8.963   3.962   3.655
13570WAT      O40951   8.173   2.047   9.846
13570WAT     H140952   8.082   2.069   9.879
13570WAT     H240953   8.241   2.066   9.917
13571WAT      O40954   8.765   4.851   1.607
13571WAT     H140955   8.665   4.860   1.607
13571WAT     H240956   8.790   4.765   1.562
13572WAT      O40957   6.046   4.189   8.341
13572WAT     H140958   6.039   4.219   8.245
13572WAT     H240959   5.954   4.178   8.378
13573WAT      O40960   7.252   8.917   6.706
13573WAT     H140961   7.243   8.817   6.710
13573WAT     H240962   7.247   8.948   6.611
13574WAT      O40963   3.876   5.230   1.240
13574WAT     H140964   3.875   5.233   1.140
13574WAT     H240965   3.857   5.322   1.276
13575WAT      O40966   0.340   6.929   3.156
13575WAT     H140967   0.365   6.894   3.246
13575WAT     H240968   0.279   6.864   3.110
13576WAT      O40969   9.800   7.885   7.201
13576WAT     H140970   9.823   7.798   7.158
13576WAT     H240971   9.883   7.940   7.210
13577WAT      O40972   2.767   6.933   6.417
13577WAT     H140973   2.703   7.007   6.399
13577WAT     H240974   2.790   6.886   6.332
13578WAT      O40975   0.807   8.523   2.770
13578WAT     H140976   0.758   8.439   2.745
13578WAT     H240977   0.905   8.510   2.756
13579WAT      O40978   5.253   7.032   9.076
13579WAT     H140979   5.200   7.011   8.993
13579WAT     H240980   5.277   7.129   9.076
13580WAT      O40981   4.997   4.905   1.666
13580WAT     H140982   4.934   4.945   1.732
13580WAT     H240983   5.091   4.932   1.688
13581WAT      O40984   1.573   9.464   6.319
13581WAT     H140985   1.508   9.404   6.364
13581WAT     H240986   1.650   9.482   6.380
13582WAT      O40987   1.876   0.752   2.634
13582WAT     H140988   1.777   0.737   2.634
13582WAT     H240989   1.915   0.717   2.550
13583WAT      O40990   2.428   4.261   2.300
13583WAT     H140991   2.497   4.304   2.241
13583WAT     H240992   2.452   4.165   2.314
13584WAT      O40993   8.069   0.371   8.270
13584WAT     H140994   8.010   0.451   8.279
13584WAT     H240995   8.094   0.359   8.174
13585WAT      O40996   3.642   6.022   6.356
13585WAT     H140997   3.732   6.064   6.351
13585WAT     H240998   3.575   6.078   6.308
13586WAT      O40999   6.440   7.884   2.368
13586WAT     H141000   6.371   7.814   2.353
13586WAT     H241001   6.467   7.925   2.281
13587WAT      O41002   0.318   5.016   2.306
13587WAT     H141003   0.248   4.953   2.340
13587WAT     H241004   0.288   5.110   2.320
13588WAT      O41005   3.706   0.090   5.662
13588WAT     H141006   3.657   0.148   5.596
13588WAT     H241007   3.680   0.116   5.755
13589WAT      O41008   9.258   5.518   1.477
13589WAT     H141009   9.338   5.541   1.534
13589WAT     H241010   9.290   5.480   1.390
13590WAT      O41011   9.222   3.906   0.959
13590WAT     H141012   9.185   3.979   0.901
13590WAT     H241013   9.150   3.840   0.979
13591WAT      O41014   4.100   3.086   6.521
13591WAT     H141015   4.125   3.001   6.567
13591WAT     H241016   4.096   3.071   6.423
13592WAT      O41017   3.436   7.470   4.487
13592WAT     H141018   3.420   7.509   4.396
13592WAT     H241019   3.357   7.489   4.546
13593WAT      O41020   8.412   1.805   7.395
13593WAT     H141021   8.384   1.791   7.300
13593WAT     H241022   8.372   1.890   7.429
13594WAT      O41023   6.916   4.620   2.068
13594WAT     H141024   6.958   4.701   2.026
13594WAT     H241025   6.848   4.648   2.136
13595WAT      O41026   7.852   1.363   7.090
13595WAT     H141027   7.820   1.330   7.001
13595WAT     H241028   7.950   1.346   7.098
13596WAT      O41029   9.201   3.899   4.700
13596WAT     H141030   9.123   3.957   4.676
13596WAT     H241031   9.259   3.886   4.620
13597WAT      O41032   5.039   4.172   8.268
13597WAT     H141033   4.992   4.207   8.348
13597WAT     H241034   5.054   4.246   8.202
13598WAT      O41035   7.836   2.835   7.654
13598WAT     H141036   7.768   2.781   7.605
13598WAT     H241037   7.873   2.782   7.730
13599WAT      O41038   5.186   8.293   5.999
13599WAT     H141039   5.108   8.236   5.973
13599WAT     H241040   5.244   8.309   5.920
13600WAT      O41041   4.723   6.492   1.145
13600WAT     H141042   4.780   6.534   1.215
13600WAT     H241043   4.763   6.404   1.117
13601WAT      O41044   2.495   4.928   7.230
13601WAT     H141045   2.500   4.985   7.149
13601WAT     H241046   2.530   4.978   7.309
13602WAT      O41047   7.051   9.008   7.329
13602WAT     H141048   7.048   9.086   7.266
13602WAT     H241049   6.959   8.989   7.364
13603WAT      O41050   0.469   9.000   8.376
13603WAT     H141051   0.487   8.966   8.283
13603WAT     H241052   0.383   8.962   8.409
13604WAT      O41053   5.650   3.994   1.483
13604WAT     H141054   5.574   3.954   1.536
13604WAT     H241055   5.697   4.061   1.539
13605WAT      O41056   5.057   4.624   5.543
13605WAT     H141057   5.132   4.681   5.510
13605WAT     H241058   5.062   4.534   5.499
13606WAT      O41059   9.034   7.264   5.534
13606WAT     H141060   9.096   7.320   5.588
13606WAT     H241061   9.009   7.182   5.585
13607WAT      O41062   4.521   7.778   5.595
13607WAT     H141063   4.441   7.724   5.568
13607WAT     H241064   4.519   7.791   5.694
13608WAT      O41065   5.729   0.058   9.243
13608WAT     H141066   5.691  -0.029   9.273
13608WAT     H241067   5.825   0.045   9.217
13609WAT      O41068   6.388   1.031   3.559
13609WAT     H141069   6.338   1.087   3.626
13609WAT     H241070   6.384   1.075   3.469
13610WAT      O41071   4.917   3.174   3.128
13610WAT     H141072   4.911   3.092   3.186
13610WAT     H241073   4.934   3.146   3.034
13611WAT      O41074   9.320   2.105   7.664
13611WAT     H141075   9.355   2.033   7.725
13611WAT     H241076   9.379   2.113   7.584
13612WAT      O41077   0.481   7.962   5.357
13612WAT     H141078   0.386   7.931   5.355
13612WAT     H241079   0.494   8.027   5.432
13613WAT      O41080   1.968   4.883   0.624
13613WAT     H141081   1.871   4.888   0.599
13613WAT     H241082   2.015   4.966   0.593
13614WAT      O41083   2.514   7.423   3.453
13614WAT     H141084   2.558   7.363   3.386
13614WAT     H241085   2.415   7.420   3.439
13615WAT      O41086   9.283   4.812   4.305
13615WAT     H141087   9.224   4.882   4.347
13615WAT     H241088   9.242   4.781   4.220
13616WAT      O41089   5.278   3.392   3.296
13616WAT     H141090   5.288   3.369   3.393
13616WAT     H241091   5.353   3.350   3.245
13617WAT      O41092   3.091   4.678   0.307
13617WAT     H141093   3.180   4.641   0.279
13617WAT     H241094   3.086   4.680   0.407
13618WAT      O41095   4.513   0.301   0.911
13618WAT     H141096   4.581   0.327   0.980
13618WAT     H241097   4.422   0.300   0.953
13619WAT      O41098   1.175   2.414   1.101
13619WAT     H141099   1.167   2.374   1.192
13619WAT     H241100   1.189   2.512   1.108
13620WAT      O41101   5.636   1.564   5.786
13620WAT     H141102   5.653   1.554   5.688
13620WAT     H241103   5.585   1.485   5.820
13621WAT      O41104   5.942   4.731   2.284
13621WAT     H141105   5.991   4.767   2.205
13621WAT     H241106   5.986   4.762   2.368
13622WAT      O41107   0.593   7.861   6.429
13622WAT     H141108   0.585   7.957   6.403
13622WAT     H241109   0.685   7.843   6.464
13623WAT      O41110   2.233   0.545   1.157
13623WAT     H141111   2.281   0.505   1.079
13623WAT     H241112   2.212   0.641   1.137
13624WAT      O41113   2.758   2.806   5.158
13624WAT     H141114   2.684   2.855   5.204
13624WAT     H241115   2.721   2.752   5.082
13625WAT      O41116   7.350   7.807   4.865
13625WAT     H141117   7.293   7.853   4.797
13625WAT     H241118   7.390   7.724   4.825
13626WAT      O41119   4.221   3.478   0.295
13626WAT     H141120   4.139   3.422   0.310
13626WAT     H241121   4.193   3.569   0.265
13627WAT      O41122   3.939   2.362   0.137
13627WAT     H141123   3.847   2.397   0.119
13627WAT     H241124   3.941   2.317   0.226
13628WAT      O41125   2.807   8.223   1.109
13628WAT     H141126   2.897   8.203   1.070
13628WAT     H241127   2.812   8.307   1.162
13629WAT      O41128   1.663   2.322   0.738
13629WAT     H141129   1.594   2.356   0.674
13629WAT     H241130   1.633   2.235   0.776
13630WAT      O41131   1.292   4.007   0.748
13630WAT     H141132   1.283   3.944   0.825
13630WAT     H241133   1.285   3.956   0.662
13631WAT      O41134   8.813   2.230   0.770
13631WAT     H141135   8.759   2.292   0.713
13631WAT     H241136   8.757   2.151   0.795
13632WAT      O41137   7.689   1.669   6.997
13632WAT     H141138   7.709   1.590   7.055
13632WAT     H241139   7.696   1.753   7.051
13633WAT      O41140   3.533   4.311   2.841
13633WAT     H141141   3.583   4.259   2.772
13633WAT     H241142   3.592   4.326   2.920
13634WAT      O41143   7.733   5.985   7.194
13634WAT     H141144   7.692   6.038   7.268
13634WAT     H241145   7.752   6.045   7.116
13635WAT      O41146   5.551   3.355   8.455
13635WAT     H141147   5.604   3.358   8.540
13635WAT     H241148   5.559   3.265   8.414
13636WAT      O41149   7.525   8.870   8.701
13636WAT     H141150   7.451   8.895   8.763
13636WAT     H241151   7.492   8.802   8.635
13637WAT      O41152   2.964   4.161   3.179
13637WAT     H141153   2.992   4.183   3.085
13637WAT     H241154   2.951   4.245   3.231
13638WAT      O41155   7.087   2.409   1.969
13638WAT     H141156   7.130   2.488   1.925
13638WAT     H241157   7.068   2.339   1.901
13639WAT      O41158   0.052   6.534   7.886
13639WAT     H141159   0.109   6.474   7.830
13639WAT     H241160   0.094   6.625   7.889
13640WAT      O41161   0.661   2.589   4.431
13640WAT     H141162   0.572   2.565   4.469
13640WAT     H241163   0.652   2.673   4.376
13641WAT      O41164   5.828   7.142   4.340
13641WAT     H141165   5.790   7.051   4.324
13641WAT     H241166   5.791   7.179   4.425
13642WAT      O41167   3.291   1.607   3.054
13642WAT     H141168   3.218   1.674   3.049
13642WAT     H241169   3.252   1.516   3.071
13643WAT      O41170   0.503   9.841   7.393
13643WAT     H141171   0.500   9.867   7.489
13643WAT     H241172   0.469   9.748   7.382
13644WAT      O41173   0.566   1.483   1.907
13644WAT     H141174   0.510   1.513   1.984
13644WAT     H241175   0.603   1.392   1.925
13645WAT      O41176   1.213   9.069   7.834
13645WAT     H141177   1.278   9.122   7.780
13645WAT     H241178   1.258   8.988   7.871
13646WAT      O41179   5.470   6.456   4.223
13646WAT     H141180   5.424   6.503   4.298
13646WAT     H241181   5.504   6.524   4.158
13647WAT      O41182   6.788   5.497   0.818
13647WAT     H141183   6.795   5.429   0.891
13647WAT     H241184   6.862   5.564   0.828
13648WAT      O41185   7.618   5.530   1.187
13648WAT     H141186   7.704   5.581   1.197
13648WAT     H241187   7.635   5.433   1.206
13649WAT      O41188   3.770   7.079   4.725
13649WAT     H141189   3.795   6.989   4.688
13649WAT     H241190   3.671   7.091   4.716
13650WAT      O41191   0.815   8.747   6.555
13650WAT     H141192   0.795   8.836   6.595
13650WAT     H241193   0.739   8.685   6.570
13651WAT      O41194   7.302   7.388   3.465
13651WAT     H141195   7.283   7.459   3.534
13651WAT     H241196   7.340   7.308   3.510
13652WAT      O41197   9.739   4.336   4.569
13652WAT     H141198   9.678   4.270   4.611
13652WAT     H241199   9.719   4.428   4.605
13653WAT      O41200   4.672   1.214   8.205
13653WAT     H141201   4.591   1.196   8.261
13653WAT     H241202   4.646   1.220   8.109
13654WAT      O41203   2.833   2.617   3.760
13654WAT     H141204   2.924   2.586   3.786
13654WAT     H241205   2.837   2.668   3.674
13655WAT      O41206   5.895   4.033   3.885
13655WAT     H141207   5.927   3.939   3.894
13655WAT     H241208   5.808   4.034   3.836
13656WAT      O41209   4.519   5.547   4.171
13656WAT     H141210   4.466   5.548   4.256
13656WAT     H241211   4.537   5.641   4.143
13657WAT      O41212   6.885   5.987   6.915
13657WAT     H141213   6.940   6.058   6.871
13657WAT     H241214   6.919   5.897   6.887
13658WAT      O41215   8.070   7.511   5.639
13658WAT     H141216   7.973   7.531   5.631
13658WAT     H241217   8.083   7.414   5.662
13659WAT      O41218   7.743   7.372   4.432
13659WAT     H141219   7.657   7.423   4.418
13659WAT     H241220   7.756   7.308   4.356
13660WAT      O41221   2.208   4.026   5.858
13660WAT     H141222   2.226   3.930   5.878
13660WAT     H241223   2.112   4.046   5.875
13661WAT      O41224   7.338   5.661   6.760
13661WAT     H141225   7.339   5.629   6.855
13661WAT     H241226   7.363   5.586   6.699
13662WAT      O41227   3.723   2.454   8.054
13662WAT     H141228   3.741   2.497   7.966
13662WAT     H241229   3.703   2.357   8.041
13663WAT      O41230   2.704   3.630   6.408
13663WAT     H141231   2.776   3.581   6.358
13663WAT     H241232   2.695   3.722   6.371
13664WAT      O41233   5.120   2.763   9.037
13664WAT     H141234   5.169   2.777   8.951
13664WAT     H241235   5.094   2.852   9.075
13665WAT      O41236   4.410   0.664   4.062
13665WAT     H141237   4.490   0.618   4.099
13665WAT     H241238   4.438   0.747   4.013
13666WAT      O41239   8.846   0.758   0.708
13666WAT     H141240   8.781   0.699   0.661
13666WAT     H241241   8.853   0.845   0.661
13667WAT      O41242   7.624   4.971   4.245
13667WAT     H141243   7.633   4.935   4.338
13667WAT     H241244   7.678   5.055   4.236
13668WAT      O41245   8.389   2.824   4.083
13668WAT     H141246   8.408   2.831   4.181
13668WAT     H241247   8.445   2.890   4.034
13669WAT      O41248   0.069   0.134   4.302
13669WAT     H141249   0.103   0.112   4.211
13669WAT     H241250   0.021   0.055   4.340
13670WAT      O41251   3.371   2.021   4.942
13670WAT     H141252   3.370   1.936   4.890
13670WAT     H241253   3.359   2.099   4.880
13671WAT      O41254   4.410   2.690   5.479
13671WAT     H141255   4.413   2.782   5.440
13671WAT     H241256   4.379   2.625   5.409
13672WAT      O41257   8.698   9.382   5.717
13672WAT     H141258   8.670   9.471   5.681
13672WAT     H241259   8.790   9.360   5.684
13673WAT      O41260   3.148   3.719   8.766
13673WAT     H141261   3.110   3.797   8.817
13673WAT     H241262   3.213   3.752   8.698
13674WAT      O41263   9.684   5.970   8.122
13674WAT     H141264   9.675   6.064   8.088
13674WAT     H241265   9.776   5.957   8.160
13675WAT      O41266   8.284   2.212   8.294
13675WAT     H141267   8.223   2.135   8.274
13675WAT     H241268   8.358   2.215   8.226
13676WAT      O41269   5.927   5.234   2.712
13676WAT     H141270   5.990   5.181   2.769
13676WAT     H241271   5.919   5.326   2.749
13677WAT      O41272   4.956   3.019   1.287
13677WAT     H141273   4.958   2.958   1.366
13677WAT     H241274   5.040   3.074   1.285
13678WAT      O41275   7.682   1.167   6.407
13678WAT     H141276   7.699   1.117   6.322
13678WAT     H241277   7.598   1.133   6.449
13679WAT      O41278   7.400   5.607   9.250
13679WAT     H141279   7.309   5.648   9.241
13679WAT     H241280   7.458   5.666   9.306
13680WAT      O41281   1.884   1.906   1.685
13680WAT     H141282   1.807   1.964   1.658
13680WAT     H241283   1.887   1.900   1.785
13681WAT      O41284   6.739   4.355   6.383
13681WAT     H141285   6.645   4.355   6.349
13681WAT     H241286   6.740   4.321   6.477
13682WAT      O41287   6.661   6.398   7.750
13682WAT     H141288   6.603   6.329   7.706
13682WAT     H241289   6.730   6.352   7.806
13683WAT      O41290   6.300   7.460   2.657
13683WAT     H141291   6.358   7.384   2.627
13683WAT     H241292   6.357   7.540   2.675
13684WAT      O41293   8.766   5.860   1.828
13684WAT     H141294   8.726   5.768   1.820
13684WAT     H241295   8.799   5.873   1.922
13685WAT      O41296   0.271   1.273   0.909
13685WAT     H141297   0.221   1.188   0.890
13685WAT     H241298   0.360   1.270   0.864
13686WAT      O41299   0.559   4.861   1.856
13686WAT     H141300   0.467   4.860   1.895
13686WAT     H241301   0.595   4.954   1.857
13687WAT      O41302   2.927   4.033   6.417
13687WAT     H141303   2.866   4.110   6.399
13687WAT     H241304   2.928   4.013   6.515
13688WAT      O41305   8.339   2.680   8.546
13688WAT     H141306   8.407   2.752   8.532
13688WAT     H241307   8.384   2.591   8.536
13689WAT      O41308   6.773   0.826   8.371
13689WAT     H141309   6.694   0.848   8.427
13689WAT     H241310   6.824   0.909   8.350
13690WAT      O41311   2.512   4.880   9.522
13690WAT     H141312   2.476   4.913   9.609
13690WAT     H241313   2.496   4.950   9.451
13691WAT      O41314   6.730   4.766   6.139
13691WAT     H141315   6.723   4.687   6.079
13691WAT     H241316   6.638   4.792   6.170
13692WAT      O41317   6.490   9.633   2.298
13692WAT     H141318   6.539   9.583   2.369
13692WAT     H241319   6.422   9.573   2.256
13693WAT      O41320   8.054   6.702   3.835
13693WAT     H141321   8.150   6.712   3.807
13693WAT     H241322   8.049   6.700   3.935
13694WAT      O41323   4.753   1.143   9.267
13694WAT     H141324   4.828   1.108   9.323
13694WAT     H241325   4.767   1.240   9.249
13695WAT      O41326   4.676   9.499   7.148
13695WAT     H141327   4.658   9.596   7.165
13695WAT     H241328   4.772   9.479   7.164
13696WAT      O41329   2.328   8.075   7.869
13696WAT     H141330   2.346   8.020   7.787
13696WAT     H241331   2.245   8.042   7.913
13697WAT      O41332   8.797   1.227   6.608
13697WAT     H141333   8.780   1.158   6.538
13697WAT     H241334   8.882   1.275   6.588
13698WAT      O41335   0.227   8.239   5.769
13698WAT     H141336   0.256   8.249   5.864
13698WAT     H241337   0.232   8.142   5.743
13699WAT      O41338   7.236   6.081   1.478
13699WAT     H141339   7.199   6.046   1.563
13699WAT     H241340   7.161   6.106   1.416
13700WAT      O41341   7.656   3.221   5.598
13700WAT     H141342   7.652   3.286   5.674
13700WAT     H241343   7.564   3.196   5.570
13701WAT      O41344   9.360   5.576   7.809
13701WAT     H141345   9.326   5.490   7.771
13701WAT     H241346   9.445   5.559   7.859
13702WAT      O41347   5.510   4.100   7.172
13702WAT     H141348   5.553   4.190   7.173
13702WAT     H241349   5.411   4.110   7.175
13703WAT      O41350   7.406   1.935   4.986
13703WAT     H141351   7.375   2.027   5.012
13703WAT     H241352   7.330   1.871   4.993
13704WAT      O41353   0.451   7.636   6.524
13704WAT     H141354   0.494   7.720   6.489
13704WAT     H241355   0.357   7.656   6.550
13705WAT      O41356   7.938   9.785   7.946
13705WAT     H141357   7.913   9.713   8.012
13705WAT     H241358   7.864   9.797   7.880
13706WAT      O41359   0.231   6.214   4.673
13706WAT     H141360   0.325   6.241   4.693
13706WAT     H241361   0.230   6.121   4.635
13707WAT      O41362   9.210   2.559   0.941
13707WAT     H141363   9.252   2.649   0.927
13707WAT     H241364   9.181   2.551   1.036
13708WAT      O41365   3.771   8.300   4.468
13708WAT     H141366   3.813   8.223   4.517
13708WAT     H241367   3.684   8.270   4.427
13709WAT      O41368   6.433   5.511   9.534
13709WAT     H141369   6.438   5.426   9.587
13709WAT     H241370   6.449   5.589   9.595
13710WAT      O41371   5.085   0.853   6.312
13710WAT     H141372   5.096   0.911   6.393
13710WAT     H241373   5.041   0.906   6.239
13711WAT      O41374   4.733   7.329   0.037
13711WAT     H141375   4.642   7.291   0.018
13711WAT     H241376   4.801   7.256   0.027
13712WAT      O41377   4.702   7.592   7.377
13712WAT     H141378   4.770   7.588   7.449
13712WAT     H241379   4.630   7.524   7.395
13713WAT      O41380   3.419   4.149   3.490
13713WAT     H141381   3.499   4.168   3.547
13713WAT     H241382   3.443   4.082   3.419
13714WAT      O41383   8.252   2.695   2.237
13714WAT     H141384   8.345   2.718   2.264
13714WAT     H241385   8.219   2.618   2.292
13715WAT      O41386   9.615   1.899   7.905
13715WAT     H141387   9.515   1.892   7.897
13715WAT     H241388   9.640   1.905   8.002
13716WAT      O41389   8.470   7.151   8.111
13716WAT     H141390   8.456   7.204   8.028
13716WAT     H241391   8.548   7.188   8.162
13717WAT      O41392   8.495   8.485   3.214
13717WAT     H141393   8.544   8.544   3.278
13717WAT     H241394   8.424   8.434   3.263
13718WAT      O41395   6.861   3.214   2.069
13718WAT     H141396   6.807   3.264   2.137
13718WAT     H241397   6.893   3.278   1.999
13719WAT      O41398   8.367   6.873   5.595
13719WAT     H141399   8.439   6.940   5.609
13719WAT     H241400   8.284   6.903   5.642
13720WAT      O41401   9.527   4.046   0.645
13720WAT     H141402   9.582   3.996   0.578
13720WAT     H241403   9.457   3.985   0.683
13721WAT      O41404   0.231   0.767   1.301
13721WAT     H141405   0.160   0.789   1.367
13721WAT     H241406   0.289   0.848   1.286
13722WAT      O41407   9.565   4.351   8.660
13722WAT     H141408   9.659   4.331   8.634
13722WAT     H241409   9.510   4.365   8.577
13723WAT      O41410   3.812   0.408   0.030
13723WAT     H141411   3.879   0.372  -0.035
13723WAT     H241412   3.859   0.467   0.096
13724WAT      O41413   5.141   8.923   1.753
13724WAT     H141414   5.125   8.824   1.746
13724WAT     H241415   5.130   8.965   1.662
13725WAT      O41416   8.924   5.106   0.546
13725WAT     H141417   8.838   5.057   0.555
13725WAT     H241418   8.993   5.046   0.505
13726WAT      O41419   3.742   9.726   3.279
13726WAT     H141420   3.762   9.717   3.376
13726WAT     H241421   3.826   9.715   3.226
13727WAT      O41422   5.916   1.689   0.735
13727WAT     H141423   5.927   1.771   0.790
13727WAT     H241424   5.819   1.676   0.713
13728WAT      O41425   3.265   9.816   4.448
13728WAT     H141426   3.235   9.793   4.540
13728WAT     H241427   3.337   9.753   4.419
13729WAT      O41428   8.336   7.596   3.212
13729WAT     H141429   8.259   7.532   3.218
13729WAT     H241430   8.302   7.690   3.221
13730WAT      O41431   2.981   8.470   4.180
13730WAT     H141432   2.900   8.525   4.157
13730WAT     H241433   3.057   8.531   4.202
13731WAT      O41434   5.095   1.433   8.307
13731WAT     H141435   5.031   1.362   8.280
13731WAT     H241436   5.048   1.503   8.360
13732WAT      O41437   1.183   7.508   4.272
13732WAT     H141438   1.232   7.526   4.187
13732WAT     H241439   1.242   7.530   4.350
13733WAT      O41440   9.321   1.793   4.472
13733WAT     H141441   9.407   1.749   4.499
13733WAT     H241442   9.312   1.791   4.373
13734WAT      O41443   9.298   3.772   7.841
13734WAT     H141444   9.238   3.845   7.809
13734WAT     H241445   9.366   3.750   7.771
13735WAT      O41446   4.161   0.097   7.744
13735WAT     H141447   4.099   0.028   7.708
13735WAT     H241448   4.158   0.178   7.685
13736WAT      O41449   3.467   9.330   1.419
13736WAT     H141450   3.383   9.323   1.473
13736WAT     H241451   3.542   9.357   1.479
13737WAT      O41452   1.163   1.383   2.541
13737WAT     H141453   1.087   1.337   2.495
13737WAT     H241454   1.167   1.353   2.636
13738WAT      O41455   6.779   4.727   2.685
13738WAT     H141456   6.828   4.807   2.721
13738WAT     H241457   6.696   4.758   2.638
13739WAT      O41458   4.380   9.005   6.442
13739WAT     H141459   4.388   9.077   6.374
13739WAT     H241460   4.445   9.023   6.517
13740WAT      O41461   1.954   1.759   8.329
13740WAT     H141462   1.956   1.856   8.306
13740WAT     H241463   1.946   1.748   8.428
13741WAT      O41464   2.258   4.938   4.234
13741WAT     H141465   2.242   4.857   4.178
13741WAT     H241466   2.356   4.949   4.250
13742WAT      O41467   7.145   0.001   2.084
13742WAT     H141468   7.240   0.023   2.061
13742WAT     H241469   7.103   0.078   2.132
13743WAT      O41470   5.716   7.744   0.551
13743WAT     H141471   5.729   7.713   0.645
13743WAT     H241472   5.636   7.697   0.512
13744WAT      O41473   8.161   8.312   9.588
13744WAT     H141474   8.155   8.249   9.511
13744WAT     H241475   8.070   8.350   9.607
13745WAT      O41476   5.445   9.576   0.693
13745WAT     H141477   5.449   9.675   0.702
13745WAT     H241478   5.350   9.546   0.684
13746WAT      O41479   9.670   6.882   0.789
13746WAT     H141480   9.705   6.968   0.825
13746WAT     H241481   9.637   6.825   0.864
13747WAT      O41482   4.912   7.348   4.387
13747WAT     H141483   4.894   7.262   4.434
13747WAT     H241484   4.825   7.390   4.360
13748WAT      O41485   3.560   4.777   2.419
13748WAT     H141486   3.502   4.705   2.380
13748WAT     H241487   3.561   4.770   2.518
13749WAT      O41488   7.891   2.360   3.404
13749WAT     H141489   7.921   2.408   3.321
13749WAT     H241490   7.801   2.394   3.432
13750WAT      O41491   7.185   3.191   8.323
13750WAT     H141492   7.105   3.209   8.380
13750WAT     H241493   7.213   3.275   8.276
13751WAT      O41494   2.511   2.503   5.280
13751WAT     H141495   2.521   2.603   5.286
13751WAT     H241496   2.418   2.481   5.253
13752WAT      O41497   5.797   1.809   4.482
13752WAT     H141498   5.888   1.847   4.464
13752WAT     H241499   5.739   1.824   4.402
13753WAT      O41500   9.129   0.036   1.853
13753WAT     H141501   9.192   0.017   1.928
13753WAT     H241502   9.073  -0.044   1.835
13754WAT      O41503   3.258   8.575   4.325
13754WAT     H141504   3.273   8.668   4.293
13754WAT     H241505   3.245   8.575   4.424
13755WAT      O41506   5.712   4.668   6.922
13755WAT     H141507   5.765   4.710   6.995
13755WAT     H241508   5.749   4.577   6.903
13756WAT      O41509   9.132   4.866   5.247
13756WAT     H141510   9.092   4.837   5.333
13756WAT     H241511   9.062   4.907   5.189
13757WAT      O41512   0.617   1.203   1.927
13757WAT     H141513   0.640   1.111   1.896
13757WAT     H241514   0.643   1.213   2.023
13758WAT      O41515   4.356   0.071   1.340
13758WAT     H141516   4.287   0.073   1.268
13758WAT     H241517   4.322   0.019   1.418
13759WAT      O41518   0.148   6.780   3.019
13759WAT     H141519   0.136   6.701   3.078
13759WAT     H241520   0.067   6.792   2.961
13760WAT      O41521   2.949   4.394   3.301
13760WAT     H141522   3.031   4.386   3.357
13760WAT     H241523   2.941   4.487   3.265
13761WAT      O41524   8.390   1.562   7.522
13761WAT     H141525   8.374   1.651   7.478
13761WAT     H241526   8.488   1.547   7.531
13762WAT      O41527   3.833   1.923   7.846
13762WAT     H141528   3.737   1.898   7.859
13762WAT     H241529   3.855   1.923   7.749
13763WAT      O41530   2.115   5.797   8.087
13763WAT     H141531   2.044   5.867   8.096
13763WAT     H241532   2.080   5.709   8.120
13764WAT      O41533   3.573   5.522   9.390
13764WAT     H141534   3.624   5.604   9.363
13764WAT     H241535   3.621   5.440   9.359
13765WAT      O41536   6.978   1.584   5.912
13765WAT     H141537   7.029   1.505   5.878
13765WAT     H241538   7.037   1.641   5.970
13766WAT      O41539   9.323   6.940   1.093
13766WAT     H141540   9.383   6.866   1.124
13766WAT     H241541   9.374   7.001   1.032
13767WAT      O41542   5.562   1.552   8.254
13767WAT     H141543   5.552   1.561   8.155
13767WAT     H241544   5.496   1.486   8.289
13768WAT      O41545   6.130   5.019   2.702
13768WAT     H141546   6.166   5.112   2.710
13768WAT     H241547   6.116   4.981   2.794
13769WAT      O41548   7.329   1.728   1.077
13769WAT     H141549   7.308   1.731   0.980
13769WAT     H241550   7.422   1.693   1.090
13770WAT      O41551   9.863   6.114   2.257
13770WAT     H141552   9.776   6.112   2.207
13770WAT     H241553   9.847   6.145   2.351
13771WAT      O41554   4.848   5.418   3.788
13771WAT     H141555   4.826   5.494   3.849
13771WAT     H241556   4.945   5.396   3.796
13772WAT      O41557   0.428   3.237   8.879
13772WAT     H141558   0.353   3.220   8.815
13772WAT     H241559   0.472   3.324   8.857
13773WAT      O41560   8.845   9.800   5.858
13773WAT     H141561   8.810   9.870   5.920
13773WAT     H241562   8.924   9.835   5.808
13774WAT      O41563   5.241   1.849   7.935
13774WAT     H141564   5.329   1.827   7.895
13774WAT     H241565   5.205   1.769   7.983
13775WAT      O41566   5.225   7.179   3.673
13775WAT     H141567   5.324   7.168   3.683
13775WAT     H241568   5.203   7.191   3.576
13776WAT      O41569   0.329   7.034   8.131
13776WAT     H141570   0.241   7.082   8.137
13776WAT     H241571   0.365   7.042   8.038
13777WAT      O41572   8.138   0.784   5.741
13777WAT     H141573   8.151   0.686   5.750
13777WAT     H241574   8.048   0.810   5.776
13778WAT      O41575   7.875   8.201   7.099
13778WAT     H141576   7.884   8.118   7.043
13778WAT     H241577   7.780   8.231   7.099
13779WAT      O41578   7.034   3.198   5.120
13779WAT     H141579   6.947   3.152   5.100
13779WAT     H241580   7.019   3.296   5.129
13780WAT      O41581   6.295   9.443   3.178
13780WAT     H141582   6.210   9.475   3.137
13780WAT     H241583   6.307   9.345   3.158
13781WAT      O41584   1.752   1.422   2.872
13781WAT     H141585   1.795   1.336   2.901
13781WAT     H241586   1.684   1.403   2.802
13782WAT      O41587   7.334   6.008   2.080
13782WAT     H141588   7.411   6.029   2.141
13782WAT     H241589   7.307   5.912   2.093
13783WAT      O41590   4.192   0.961   6.442
13783WAT     H141591   4.163   0.953   6.347
13783WAT     H241592   4.123   0.918   6.501
13784WAT      O41593   2.679   3.521   5.837
13784WAT     H141594   2.643   3.483   5.752
13784WAT     H241595   2.623   3.489   5.914
13785WAT      O41596   9.239   3.158   9.525
13785WAT     H141597   9.266   3.250   9.497
13785WAT     H241598   9.319   3.097   9.524
13786WAT      O41599   6.060   2.457   6.576
13786WAT     H141600   6.068   2.534   6.639
13786WAT     H241601   6.148   2.442   6.531
13787WAT      O41602   3.548   3.325   2.141
13787WAT     H141603   3.539   3.236   2.186
13787WAT     H241604   3.514   3.397   2.203
13788WAT      O41605   9.604   5.568   2.070
13788WAT     H141606   9.521   5.623   2.053
13788WAT     H241607   9.683   5.628   2.073
13789WAT      O41608   2.902   8.069   5.379
13789WAT     H141609   2.843   7.989   5.382
13789WAT     H241610   2.902   8.114   5.468
13790WAT      O41611   1.891   0.084   7.857
13790WAT     H141612   1.809   0.133   7.826
13790WAT     H241613   1.957   0.150   7.894
13791WAT      O41614   1.503   5.664   0.065
13791WAT     H141615   1.549   5.743   0.024
13791WAT     H241616   1.569   5.590   0.079
13792WAT      O41617   7.137   5.627   7.971
13792WAT     H141618   7.158   5.721   7.942
13792WAT     H241619   7.143   5.622   8.071
13793WAT      O41620   7.436   6.318   6.948
13793WAT     H141621   7.476   6.398   6.904
13793WAT     H241622   7.488   6.296   7.031
13794WAT      O41623   6.924   8.199   0.007
13794WAT     H141624   6.849   8.150  -0.039
13794WAT     H241625   6.949   8.150   0.090
13795WAT      O41626   2.291   3.907   9.378
13795WAT     H141627   2.376   3.959   9.369
13795WAT     H241628   2.218   3.954   9.328
13796WAT      O41629   8.107   2.984   2.898
13796WAT     H141630   8.030   3.026   2.849
13796WAT     H241631   8.143   2.908   2.844
13797WAT      O41632   5.748   0.670   4.600
13797WAT     H141633   5.722   0.705   4.690
13797WAT     H241634   5.790   0.580   4.610
13798WAT      O41635   7.609   4.776   6.254
13798WAT     H141636   7.666   4.858   6.262
13798WAT     H241637   7.659   4.705   6.205
13799WAT      O41638   0.774   0.349   4.420
13799WAT     H141639   0.717   0.339   4.502
13799WAT     H241640   0.845   0.279   4.420
13800WAT      O41641   9.431   3.456   8.688
13800WAT     H141642   9.415   3.469   8.786
13800WAT     H241643   9.348   3.419   8.645
13801WAT      O41644   0.833   5.390   3.573
13801WAT     H141645   0.931   5.373   3.587
13801WAT     H241646   0.816   5.412   3.478
13802WAT      O41647   8.482   6.167   7.096
13802WAT     H141648   8.502   6.176   6.998
13802WAT     H241649   8.518   6.248   7.144
13803WAT      O41650   0.770   0.017   8.487
13803WAT     H141651   0.835  -0.052   8.518
13803WAT     H241652   0.809   0.108   8.501
13804WAT      O41653   4.614   1.382   8.517
13804WAT     H141654   4.638   1.291   8.550
13804WAT     H241655   4.571   1.433   8.591
13805WAT      O41656   6.980   1.896   2.522
13805WAT     H141657   6.913   1.857   2.459
13805WAT     H241658   7.032   1.967   2.475
13806WAT      O41659   9.579   8.965   2.603
13806WAT     H141660   9.633   8.894   2.648
13806WAT     H241661   9.494   8.925   2.568
13807WAT      O41662   2.384   7.828   2.514
13807WAT     H141663   2.319   7.752   2.512
13807WAT     H241664   2.411   7.846   2.609
13808WAT      O41665   6.354   4.802   2.305
13808WAT     H141666   6.280   4.788   2.371
13808WAT     H241667   6.441   4.808   2.354
13809WAT      O41668   1.980   8.665   4.333
13809WAT     H141669   1.919   8.661   4.412
13809WAT     H241670   1.991   8.573   4.295
13810WAT      O41671   6.834   1.030   7.196
13810WAT     H141672   6.848   1.037   7.294
13810WAT     H241673   6.737   1.024   7.176
13811WAT      O41674   1.022   5.743   3.332
13811WAT     H141675   0.928   5.735   3.299
13811WAT     H241676   1.071   5.809   3.276
13812WAT      O41677   7.609   2.574   1.618
13812WAT     H141678   7.667   2.585   1.699
13812WAT     H241679   7.536   2.509   1.638
13813WAT      O41680   5.616   9.727   3.374
13813WAT     H141681   5.619   9.696   3.469
13813WAT     H241682   5.560   9.664   3.319
13814WAT      O41683   5.897   5.854   7.364
13814WAT     H141684   5.935   5.782   7.306
13814WAT     H241685   5.860   5.814   7.447
13815WAT      O41686   9.338   2.417   2.359
13815WAT     H141687   9.289   2.474   2.425
13815WAT     H241688   9.324   2.453   2.267
13816WAT      O41689   0.864   2.960   0.369
13816WAT     H141690   0.812   2.883   0.405
13816WAT     H241691   0.802   3.030   0.335
13817WAT      O41692   6.969   0.421   1.949
13817WAT     H141693   7.066   0.402   1.929
13817WAT     H241694   6.962   0.507   2.000
13818WAT      O41695   6.650   7.220   5.187
13818WAT     H141696   6.688   7.132   5.158
13818WAT     H241697   6.718   7.269   5.241
13819WAT      O41698   2.819   8.611   3.067
13819WAT     H141699   2.908   8.594   3.026
13819WAT     H241700   2.809   8.557   3.150
13820WAT      O41701   8.852   0.729   2.616
13820WAT     H141702   8.907   0.758   2.694
13820WAT     H241703   8.756   0.752   2.632
13821WAT      O41704   9.029   7.541   0.624
13821WAT     H141705   8.982   7.627   0.645
13821WAT     H241706   8.963   7.477   0.584
13822WAT      O41707   4.080   3.078   4.860
13822WAT     H141708   4.082   2.979   4.845
13822WAT     H241709   4.009   3.118   4.801
13823WAT      O41710   0.674   5.001   6.245
13823WAT     H141711   0.587   5.047   6.267
13823WAT     H241712   0.707   4.952   6.326
13824WAT      O41713   0.414   8.425   5.118
13824WAT     H141714   0.414   8.495   5.046
13824WAT     H241715   0.387   8.466   5.205
13825WAT      O41716   3.955   5.825   1.035
13825WAT     H141717   3.875   5.774   1.003
13825WAT     H241718   3.943   5.922   1.014
13826WAT      O41719   2.804   4.682   1.012
13826WAT     H141720   2.902   4.671   0.996
13826WAT     H241721   2.757   4.687   0.924
13827WAT      O41722   1.959   4.044   8.433
13827WAT     H141723   1.965   4.068   8.530
13827WAT     H241724   1.867   4.062   8.399
13828WAT      O41725   2.227   1.865   4.279
13828WAT     H141726   2.235   1.960   4.309
13828WAT     H241727   2.276   1.854   4.193
13829WAT      O41728   3.554   6.306   1.079
13829WAT     H141729   3.555   6.220   1.130
13829WAT     H241730   3.548   6.287   0.981
13830WAT      O41731   5.240   1.856   1.401
13830WAT     H141732   5.247   1.956   1.395
13830WAT     H241733   5.187   1.822   1.323
13831WAT      O41734   5.733   1.635   6.058
13831WAT     H141735   5.788   1.718   6.047
13831WAT     H241736   5.693   1.611   5.970
13832WAT      O41737   7.973   3.854   1.355
13832WAT     H141738   7.873   3.848   1.346
13832WAT     H241739   8.004   3.942   1.318
13833WAT      O41740   9.743   7.151   6.415
13833WAT     H141741   9.815   7.181   6.354
13833WAT     H241742   9.663   7.124   6.361
13834WAT      O41743   1.456   2.336   3.661
13834WAT     H141744   1.546   2.297   3.680
13834WAT     H241745   1.456   2.433   3.685
13835WAT      O41746   4.759   5.390   3.359
13835WAT     H141747   4.662   5.414   3.367
13835WAT     H241748   4.813   5.457   3.410
13836WAT      O41749   5.757   0.298   1.067
13836WAT     H141750   5.780   0.201   1.056
13836WAT     H241751   5.817   0.339   1.136
13837WAT      O41752   4.081   5.410   6.149
13837WAT     H141753   4.135   5.401   6.065
13837WAT     H241754   4.067   5.506   6.169
13838WAT      O41755   8.739   7.215   5.491
13838WAT     H141756   8.839   7.219   5.497
13838WAT     H241757   8.704   7.304   5.464
13839WAT      O41758   5.885   7.138   9.167
13839WAT     H141759   5.955   7.088   9.219
13839WAT     H241760   5.921   7.228   9.142
13840WAT      O41761   2.666   7.960   8.783
13840WAT     H141762   2.733   8.030   8.808
13840WAT     H241763   2.713   7.874   8.765
13841WAT      O41764   1.777   7.952   6.479
13841WAT     H141765   1.705   7.991   6.423
13841WAT     H241766   1.782   8.000   6.566
13842WAT      O41767   2.488   4.667   8.439
13842WAT     H141768   2.430   4.638   8.515
13842WAT     H241769   2.488   4.767   8.434
13843WAT      O41770   3.053   7.468   8.720
13843WAT     H141771   3.114   7.547   8.721
13843WAT     H241772   2.965   7.493   8.760
13844WAT      O41773   7.743   9.801   7.764
13844WAT     H141774   7.792   9.876   7.720
13844WAT     H241775   7.650   9.796   7.727
13845WAT      O41776   8.274   9.431   5.667
13845WAT     H141777   8.260   9.401   5.572
13845WAT     H241778   8.201   9.493   5.694
13846WAT      O41779   4.879   6.219   8.633
13846WAT     H141780   4.779   6.218   8.633
13846WAT     H241781   4.913   6.130   8.602
13847WAT      O41782   4.913   1.130   2.314
13847WAT     H141783   4.876   1.124   2.407
13847WAT     H241784   4.874   1.210   2.269
13848WAT      O41785   6.104   3.330   2.686
13848WAT     H141786   6.177   3.390   2.653
13848WAT     H241787   6.015   3.366   2.657
13849WAT      O41788   2.976   7.886   0.226
13849WAT     H141789   2.978   7.938   0.311
13849WAT     H241790   2.958   7.790   0.246
13850WAT      O41791   9.831   6.199   1.909
13850WAT     H141792   9.750   6.171   1.960
13850WAT     H241793   9.912   6.153   1.946
13851WAT      O41794   6.161   9.432   4.012
13851WAT     H141795   6.259   9.414   4.026
13851WAT     H241796   6.150   9.504   3.944
13852WAT      O41797   0.196   8.848   3.766
13852WAT     H141798   0.265   8.879   3.832
13852WAT     H241799   0.192   8.913   3.690
13853WAT      O41800   6.222   8.805   4.081
13853WAT     H141801   6.177   8.718   4.100
13853WAT     H241802   6.222   8.821   3.982
13854WAT      O41803   7.011   4.638   2.375
13854WAT     H141804   6.914   4.642   2.352
13854WAT     H241805   7.064   4.677   2.300
13855WAT      O41806   3.748   2.380   5.874
13855WAT     H141807   3.737   2.479   5.865
13855WAT     H241808   3.756   2.338   5.784
13856WAT      O41809   5.501   5.366   7.842
13856WAT     H141810   5.577   5.306   7.868
13856WAT     H241811   5.415   5.317   7.853
13857WAT      O41812   6.684   0.285   2.988
13857WAT     H141813   6.738   0.207   2.955
13857WAT     H241814   6.587   0.269   2.970
13858WAT      O41815   7.244   1.191   9.654
13858WAT     H141816   7.187   1.123   9.700
13858WAT     H241817   7.322   1.215   9.712
13859WAT      O41818   0.591   1.850   3.924
13859WAT     H141819   0.607   1.809   3.834
13859WAT     H241820   0.669   1.833   3.983
13860WAT      O41821   0.099   6.644   9.298
13860WAT     H141822   0.129   6.580   9.368
13860WAT     H241823   0.122   6.737   9.326
13861WAT      O41824   9.670   8.283   3.221
13861WAT     H141825   9.702   8.378   3.216
13861WAT     H241826   9.607   8.274   3.298
13862WAT      O41827   0.089   6.075   5.606
13862WAT     H141828   0.097   6.031   5.696
13862WAT     H241829   0.108   6.172   5.615
13863WAT      O41830   2.428   4.383   1.351
13863WAT     H141831   2.347   4.429   1.314
13863WAT     H241832   2.414   4.363   1.448
13864WAT      O41833   0.129   8.831   8.958
13864WAT     H141834   0.161   8.750   9.007
13864WAT     H241835   0.054   8.873   9.009
13865WAT      O41836   9.366   4.666   1.924
13865WAT     H141837   9.275   4.709   1.925
13865WAT     H241838   9.402   4.662   2.017
13866WAT      O41839   7.605   2.789   5.703
13866WAT     H141840   7.528   2.847   5.678
13866WAT     H241841   7.661   2.836   5.771
13867WAT      O41842   3.802   9.442   7.223
13867WAT     H141843   3.811   9.410   7.129
13867WAT     H241844   3.878   9.408   7.278
13868WAT      O41845   1.709   8.454   3.002
13868WAT     H141846   1.648   8.450   2.922
13868WAT     H241847   1.731   8.361   3.032
13869WAT      O41848   1.142   8.993   8.471
13869WAT     H141849   1.122   8.939   8.389
13869WAT     H241850   1.058   9.037   8.503
13870WAT      O41851   7.779   4.936   5.832
13870WAT     H141852   7.877   4.950   5.843
13870WAT     H241853   7.750   4.967   5.742
13871WAT      O41854   7.117   7.420   6.501
13871WAT     H141855   7.211   7.400   6.527
13871WAT     H241856   7.056   7.393   6.576
13872WAT      O41857   2.847   4.989   3.397
13872WAT     H141858   2.937   4.953   3.423
13872WAT     H241859   2.776   4.925   3.427
13873WAT      O41860   6.535   7.873   6.208
13873WAT     H141861   6.476   7.943   6.169
13873WAT     H241862   6.626   7.912   6.226
13874WAT      O41863   6.792   0.615   5.489
13874WAT     H141864   6.741   0.569   5.561
13874WAT     H241865   6.738   0.690   5.452
13875WAT      O41866   1.524   3.363   6.348
13875WAT     H141867   1.608   3.389   6.301
13875WAT     H241868   1.504   3.267   6.329
13876WAT      O41869   6.146   6.911   9.051
13876WAT     H141870   6.055   6.871   9.060
13876WAT     H241871   6.212   6.839   9.029
13877WAT      O41872   6.796   4.253   6.613
13877WAT     H141873   6.860   4.322   6.645
13877WAT     H241874   6.704   4.274   6.647
13878WAT      O41875   8.938   7.320   4.838
13878WAT     H141876   8.964   7.416   4.825
13878WAT     H241877   8.906   7.307   4.932
13879WAT      O41878   5.178   1.069   2.065
13879WAT     H141879   5.207   1.158   2.029
13879WAT     H241880   5.091   1.043   2.023
13880WAT      O41881   3.583   3.229   1.059
13880WAT     H141882   3.609   3.181   0.975
13880WAT     H241883   3.622   3.182   1.138
13881WAT      O41884   7.818   8.426   2.540
13881WAT     H141885   7.853   8.344   2.586
13881WAT     H241886   7.891   8.494   2.535
13882WAT      O41887   4.792   2.044   4.560
13882WAT     H141888   4.888   2.073   4.551
13882WAT     H241889   4.743   2.065   4.476
13883WAT      O41890   1.160   5.908   3.141
13883WAT     H141891   1.243   5.852   3.135
13883WAT     H241892   1.112   5.906   3.053
13884WAT      O41893   5.751   5.116   7.291
13884WAT     H141894   5.662   5.078   7.315
13884WAT     H241895   5.808   5.121   7.372
13885WAT      O41896   8.357   2.966   0.169
13885WAT     H141897   8.421   2.906   0.217
13885WAT     H241898   8.321   2.919   0.089
13886WAT      O41899   9.407   1.261   4.105
13886WAT     H141900   9.427   1.196   4.032
13886WAT     H241901   9.425   1.220   4.194
13887WAT      O41902   2.644   9.683   3.551
13887WAT     H141903   2.639   9.706   3.454
13887WAT     H241904   2.587   9.602   3.569
13888WAT      O41905   4.447   2.251   4.664
13888WAT     H141906   4.382   2.194   4.613
13888WAT     H241907   4.397   2.305   4.731
13889WAT      O41908   8.244   0.674   9.238
13889WAT     H141909   8.250   0.620   9.322
13889WAT     H241910   8.163   0.731   9.242
13890WAT      O41911   3.491   7.056   8.219
13890WAT     H141912   3.471   6.964   8.187
13890WAT     H241913   3.406   7.109   8.225
13891WAT      O41914   5.005   9.290   8.849
13891WAT     H141915   5.072   9.303   8.776
13891WAT     H241916   5.040   9.223   8.915
13892WAT      O41917   8.035   1.907   4.908
13892WAT     H141918   8.009   1.867   4.820
13892WAT     H241919   8.054   1.834   4.974
13893WAT      O41920   3.952   4.105   8.749
13893WAT     H141921   3.994   4.108   8.840
13893WAT     H241922   3.928   4.197   8.721
13894WAT      O41923   4.594   4.814   4.130
13894WAT     H141924   4.574   4.722   4.097
13894WAT     H241925   4.669   4.853   4.075
13895WAT      O41926   4.839   4.816   0.570
13895WAT     H141927   4.879   4.830   0.661
13895WAT     H241928   4.910   4.830   0.500
13896WAT      O41929   4.590   9.500   6.028
13896WAT     H141930   4.591   9.598   6.008
13896WAT     H241931   4.651   9.452   5.965
13897WAT      O41932   8.359   8.511   3.938
13897WAT     H141933   8.262   8.515   3.959
13897WAT     H241934   8.411   8.545   4.016
13898WAT      O41935   4.147   8.431   5.194
13898WAT     H141936   4.091   8.432   5.111
13898WAT     H241937   4.157   8.524   5.229
13899WAT      O41938   4.143   6.602   1.070
13899WAT     H141939   4.156   6.676   1.136
13899WAT     H241940   4.224   6.593   1.013
13900WAT      O41941   7.201   5.776   6.189
13900WAT     H141942   7.206   5.680   6.216
13900WAT     H241943   7.196   5.783   6.090
13901WAT      O41944   4.607   0.695   8.125
13901WAT     H141945   4.531   0.751   8.159
13901WAT     H241946   4.636   0.631   8.196
13902WAT      O41947   5.066   6.001   8.191
13902WAT     H141948   5.115   5.960   8.267
13902WAT     H241949   5.130   6.047   8.130
13903WAT      O41950   1.952   3.039   9.479
13903WAT     H141951   1.946   2.999   9.571
13903WAT     H241952   1.999   3.127   9.485
13904WAT      O41953   7.851   6.335   6.814
13904WAT     H141954   7.825   6.383   6.898
13904WAT     H241955   7.783   6.353   6.743
13905WAT      O41956   1.722   9.610   1.634
13905WAT     H141957   1.794   9.631   1.568
13905WAT     H241958   1.760   9.604   1.726
13906WAT      O41959   9.268   9.282   7.298
13906WAT     H141960   9.217   9.280   7.212
13906WAT     H241961   9.313   9.193   7.312
13907WAT      O41962   3.669   0.194   0.553
13907WAT     H141963   3.669   0.101   0.516
13907WAT     H241964   3.578   0.216   0.589
13908WAT      O41965   9.367   2.361   1.197
13908WAT     H141966   9.319   2.285   1.241
13908WAT     H241967   9.376   2.343   1.100
13909WAT      O41968   4.148   6.290   7.450
13909WAT     H141969   4.170   6.345   7.530
13909WAT     H241970   4.145   6.348   7.369
13910WAT      O41971   5.679   0.266   5.812
13910WAT     H141972   5.740   0.192   5.785
13910WAT     H241973   5.601   0.270   5.750
13911WAT      O41974   5.375   7.393   9.441
13911WAT     H141975   5.439   7.318   9.452
13911WAT     H241976   5.378   7.453   9.521
13912WAT      O41977   1.173   7.697   9.882
13912WAT     H141978   1.096   7.658   9.932
13912WAT     H241979   1.209   7.776   9.932
13913WAT      O41980   1.091   8.826   3.704
13913WAT     H141981   1.047   8.868   3.783
13913WAT     H241982   1.022   8.779   3.649
13914WAT      O41983   2.585   0.577   4.615
13914WAT     H141984   2.557   0.659   4.664
13914WAT     H241985   2.679   0.587   4.582
13915WAT      O41986   9.447   0.202   9.017
13915WAT     H141987   9.375   0.170   9.078
13915WAT     H241988   9.518   0.248   9.070
13916WAT      O41989   5.127   7.148   2.393
13916WAT     H141990   5.176   7.194   2.467
13916WAT     H241991   5.189   7.086   2.345
13917WAT      O41992   5.087   0.621   9.497
13917WAT     H141993   4.996   0.580   9.506
13917WAT     H241994   5.078   0.720   9.485
13918WAT      O41995   4.244   6.449   7.662
13918WAT     H141996   4.228   6.458   7.760
13918WAT     H241997   4.339   6.472   7.642
13919WAT      O41998   4.198   8.409   0.778
13919WAT     H141999   4.218   8.495   0.825
13919WAT     H242000   4.154   8.428   0.690
13920WAT      O42001   4.856   8.867   9.294
13920WAT     H142002   4.784   8.924   9.333
13920WAT     H242003   4.836   8.850   9.197
13921WAT      O42004   7.347   6.647   9.587
13921WAT     H142005   7.325   6.726   9.644
13921WAT     H242006   7.398   6.676   9.506
13922WAT      O42007   8.950   8.072   7.474
13922WAT     H142008   8.871   8.133   7.476
13922WAT     H242009   8.950   8.020   7.389
13923WAT      O42010   5.073   9.190   0.109
13923WAT     H142011   5.010   9.187   0.187
13923WAT     H242012   5.155   9.137   0.130
13924WAT      O42013   3.177   7.424   5.882
13924WAT     H142014   3.123   7.362   5.826
13924WAT     H242015   3.137   7.431   5.973
13925WAT      O42016   7.164   4.365   5.166
13925WAT     H142017   7.214   4.296   5.114
13925WAT     H242018   7.072   4.330   5.188
13926WAT      O42019   7.654   5.613   4.274
13926WAT     H142020   7.593   5.550   4.226
13926WAT     H242021   7.747   5.605   4.236
13927WAT      O42022   8.869   9.141   3.129
13927WAT     H142023   8.831   9.086   3.203
13927WAT     H242024   8.803   9.211   3.102
13928WAT      O42025   2.987   6.132   9.492
13928WAT     H142026   3.024   6.116   9.400
13928WAT     H242027   3.061   6.124   9.559
13929WAT      O42028   7.094   9.254   5.611
13929WAT     H142029   7.023   9.283   5.676
13929WAT     H242030   7.077   9.295   5.522
13930WAT      O42031   8.793   0.655   1.164
13930WAT     H142032   8.820   0.673   1.259
13930WAT     H242033   8.705   0.698   1.146
13931WAT      O42034   1.174   4.250   5.090
13931WAT     H142035   1.111   4.181   5.055
13931WAT     H242036   1.170   4.331   5.031
13932WAT      O42037   1.367   4.982   2.150
13932WAT     H142038   1.388   4.962   2.246
13932WAT     H242039   1.288   5.043   2.146
13933WAT      O42040   1.168   5.781   9.217
13933WAT     H142041   1.236   5.757   9.148
13933WAT     H242042   1.184   5.874   9.250
13934WAT      O42043   8.666   6.125   1.757
13934WAT     H142044   8.582   6.107   1.705
13934WAT     H242045   8.716   6.039   1.770
13935WAT      O42046   1.286   4.221   7.019
13935WAT     H142047   1.348   4.145   7.038
13935WAT     H242048   1.208   4.188   6.966
13936WAT      O42049   8.605   2.563   3.526
13936WAT     H142050   8.576   2.599   3.615
13936WAT     H242051   8.663   2.629   3.479
13937WAT      O42052   1.550   6.716   7.556
13937WAT     H142053   1.604   6.707   7.472
13937WAT     H242054   1.538   6.813   7.578
13938WAT      O42055   1.489   4.061   0.510
13938WAT     H142056   1.520   4.014   0.593
13938WAT     H242057   1.392   4.040   0.494
13939WAT      O42058   1.272   1.513   7.725
13939WAT     H142059   1.221   1.599   7.711
13939WAT     H242060   1.219   1.452   7.783
13940WAT      O42061   4.956   7.608   1.761
13940WAT     H142062   4.929   7.537   1.826
13940WAT     H242063   4.964   7.695   1.809
13941WAT      O42064   1.974   2.113   5.206
13941WAT     H142065   1.943   2.158   5.122
13941WAT     H242066   1.902   2.117   5.275
13942WAT      O42067   8.266   0.466   1.818
13942WAT     H142068   8.320   0.384   1.835
13942WAT     H242069   8.192   0.445   1.755
13943WAT      O42070   3.332   9.318   8.168
13943WAT     H142071   3.426   9.332   8.199
13943WAT     H242072   3.312   9.220   8.162
13944WAT      O42073   3.775   4.340   5.116
13944WAT     H142074   3.784   4.346   5.216
13944WAT     H242075   3.759   4.431   5.078
13945WAT      O42076   0.095   2.700   9.009
13945WAT     H142077   0.133   2.661   8.925
13945WAT     H242078   0.154   2.775   9.040
13946WAT      O42079   2.099   2.456   4.191
13946WAT     H142080   2.121   2.544   4.148
13946WAT     H242081   2.012   2.463   4.240
13947WAT      O42082   3.268   8.177   1.424
13947WAT     H142083   3.322   8.093   1.421
13947WAT     H242084   3.330   8.256   1.430
13948WAT      O42085   5.889   0.216   7.270
13948WAT     H142086   5.837   0.290   7.314
13948WAT     H242087   5.960   0.184   7.332
13949WAT      O42088   5.491   3.180   8.795
13949WAT     H142089   5.510   3.117   8.870
13949WAT     H242090   5.439   3.132   8.723
13950WAT      O42091   8.382   7.840   7.132
13950WAT     H142092   8.433   7.849   7.046
13950WAT     H242093   8.321   7.761   7.125
13951WAT      O42094   6.177   3.232   2.946
13951WAT     H142095   6.154   3.235   2.849
13951WAT     H242096   6.132   3.307   2.994
13952WAT      O42097   0.539   7.157   0.447
13952WAT     H142098   0.441   7.155   0.423
13952WAT     H242099   0.567   7.066   0.478
13953WAT      O42100   6.583   7.331   2.225
13953WAT     H142101   6.660   7.268   2.231
13953WAT     H242102   6.512   7.292   2.167
13954WAT      O42103   6.067   5.151   6.661
13954WAT     H142104   5.979   5.118   6.696
13954WAT     H242105   6.076   5.248   6.681
13955WAT      O42106   5.608   2.403   4.768
13955WAT     H142107   5.534   2.366   4.823
13955WAT     H242108   5.689   2.416   4.826
13956WAT      O42109   7.603   5.875   5.942
13956WAT     H142110   7.507   5.866   5.915
13956WAT     H242111   7.611   5.866   6.041
13957WAT      O42112   3.831   6.082   1.952
13957WAT     H142113   3.793   6.161   2.000
13957WAT     H242114   3.760   6.012   1.943
13958WAT      O42115   2.104   0.396   6.756
13958WAT     H142116   2.056   0.415   6.670
13958WAT     H242117   2.040   0.405   6.833
13959WAT      O42118   8.458   0.787   6.772
13959WAT     H142119   8.387   0.797   6.702
13959WAT     H242120   8.470   0.875   6.819
13960WAT      O42121   2.966   7.023   2.500
13960WAT     H142122   2.901   7.041   2.574
13960WAT     H242123   3.047   6.977   2.537
13961WAT      O42124   8.898   6.544   5.613
13961WAT     H142125   8.827   6.474   5.617
13961WAT     H242126   8.856   6.632   5.589
13962WAT      O42127   2.418   9.520   3.590
13962WAT     H142128   2.333   9.515   3.537
13962WAT     H242129   2.410   9.462   3.671
13963WAT      O42130   0.621   6.887   3.726
13963WAT     H142131   0.693   6.857   3.663
13963WAT     H242132   0.656   6.887   3.819
13964WAT      O42133   7.924   2.099   0.083
13964WAT     H142134   7.937   2.046   0.167
13964WAT     H242135   7.862   2.175   0.101
13965WAT      O42136   9.037   4.432   2.157
13965WAT     H142137   9.045   4.360   2.226
13965WAT     H242138   8.967   4.498   2.184
13966WAT      O42139   3.252   6.096   3.245
13966WAT     H142140   3.152   6.100   3.243
13966WAT     H242141   3.290   6.156   3.175
13967WAT      O42142   8.137   7.611   6.470
13967WAT     H142143   8.223   7.632   6.423
13967WAT     H242144   8.140   7.646   6.563
13968WAT      O42145   1.899   9.693   1.819
13968WAT     H142146   1.846   9.756   1.875
13968WAT     H242147   1.961   9.745   1.760
13969WAT      O42148   6.588   5.884   6.331
13969WAT     H142149   6.515   5.867   6.397
13969WAT     H242150   6.552   5.878   6.238
13970WAT      O42151   3.755   2.009   5.380
13970WAT     H142152   3.657   2.006   5.403
13970WAT     H242153   3.772   2.083   5.316
13971WAT      O42154   2.089   7.045   9.213
13971WAT     H142155   2.071   6.948   9.224
13971WAT     H242156   2.011   7.089   9.167
13972WAT      O42157   9.496   1.496   6.740
13972WAT     H142158   9.482   1.399   6.720
13972WAT     H242159   9.539   1.506   6.830
13973WAT      O42160   0.699   5.198   7.306
13973WAT     H142161   0.624   5.258   7.279
13973WAT     H242162   0.782   5.224   7.256
13974WAT      O42163   5.254   8.635   8.758
13974WAT     H142164   5.259   8.717   8.815
13974WAT     H242165   5.230   8.660   8.664
13975WAT      O42166   6.855   0.360   0.393
13975WAT     H142167   6.930   0.423   0.412
13975WAT     H242168   6.822   0.374   0.299
13976WAT      O42169   0.759   3.499   6.305
13976WAT     H142170   0.834   3.523   6.367
13976WAT     H242171   0.701   3.430   6.349
13977WAT      O42172   4.060   8.005   2.407
13977WAT     H142173   4.125   7.931   2.392
13977WAT     H242174   3.990   7.975   2.473
13978WAT      O42175   0.019   2.652   5.968
13978WAT     H142176   0.021   2.552   5.965
13978WAT     H242177   0.067   2.689   5.889
13979WAT      O42178   5.288   5.152   6.213
13979WAT     H142179   5.337   5.130   6.129
13979WAT     H242180   5.340   5.117   6.291
13980WAT      O42181   3.975   0.873   9.017
13980WAT     H142182   3.939   0.876   8.924
13980WAT     H242183   3.919   0.930   9.076
13981WAT      O42184   8.431   8.692   6.796
13981WAT     H142185   8.424   8.721   6.701
13981WAT     H242186   8.385   8.758   6.855
13982WAT      O42187   8.114   2.961   7.053
13982WAT     H142188   8.113   3.006   7.143
13982WAT     H242189   8.030   2.984   7.004
13983WAT      O42190   4.614   5.676   9.884
13983WAT     H142191   4.658   5.590   9.859
13983WAT     H242192   4.683   5.748   9.894
13984WAT      O42193   3.495   4.188   0.555
13984WAT     H142194   3.570   4.123   0.544
13984WAT     H242195   3.434   4.157   0.628
13985WAT      O42196   7.011   9.732   5.237
13985WAT     H142197   7.101   9.775   5.239
13985WAT     H242198   6.999   9.684   5.150
13986WAT      O42199   0.010   7.315   3.550
13986WAT     H142200   0.014   7.397   3.492
13986WAT     H242201   0.049   7.237   3.501
13987WAT      O42202   2.091   6.308   0.959
13987WAT     H142203   2.056   6.313   0.865
13987WAT     H242204   2.060   6.223   1.002
13988WAT      O42205   0.243   2.740   7.709
13988WAT     H142206   0.242   2.707   7.615
13988WAT     H242207   0.149   2.762   7.737
13989WAT      O42208   0.546   8.294   6.710
13989WAT     H142209   0.477   8.242   6.760
13989WAT     H242210   0.622   8.317   6.772
13990WAT      O42211   0.441   4.123   7.717
13990WAT     H142212   0.441   4.159   7.810
13990WAT     H242213   0.438   4.023   7.720
13991WAT      O42214   4.846   9.092   6.624
13991WAT     H142215   4.868   9.173   6.678
13991WAT     H242216   4.856   9.114   6.527
13992WAT      O42217   4.973   2.026   2.718
13992WAT     H142218   4.891   2.044   2.774
13992WAT     H242219   4.963   2.072   2.630
13993WAT      O42220   6.353   3.739   3.620
13993WAT     H142221   6.400   3.823   3.593
13993WAT     H242222   6.345   3.737   3.720
13994WAT      O42223   3.279   5.521   5.020
13994WAT     H142224   3.226   5.552   4.940
13994WAT     H242225   3.325   5.435   4.997
13995WAT      O42226   7.181   0.043   9.051
13995WAT     H142227   7.206   0.046   8.955
13995WAT     H242228   7.263   0.031   9.107
13996WAT      O42229   8.174   5.662   5.980
13996WAT     H142230   8.273   5.652   5.971
13996WAT     H242231   8.137   5.589   6.036
13997WAT      O42232   1.160   6.597   5.481
13997WAT     H142233   1.183   6.502   5.500
13997WAT     H242234   1.242   6.646   5.452
13998WAT      O42235   2.749   1.869   9.830
13998WAT     H142236   2.747   1.821   9.742
13998WAT     H242237   2.655   1.878   9.864
13999WAT      O42238   1.254   5.486   8.917
13999WAT     H142239   1.168   5.437   8.929
13999WAT     H242240   1.328   5.432   8.958
14000WAT      O42241   6.918   8.634   0.384
14000WAT     H142242   6.951   8.664   0.473
14000WAT     H242243   6.874   8.711   0.337
14001WAT      O42244   2.668   6.713   0.398
14001WAT     H142245   2.678   6.783   0.468
14001WAT     H242246   2.716   6.630   0.426
14002WAT      O42247   7.655   0.364   5.512
14002WAT     H142248   7.748   0.400   5.519
14002WAT     H242249   7.596   0.434   5.472
14003WAT      O42250   2.484   3.122   3.092
14003WAT     H142251   2.406   3.059   3.092
14003WAT     H242252   2.501   3.154   3.186
14004WAT      O42253   7.653   7.996   5.491
14004WAT     H142254   7.647   8.091   5.461
14004WAT     H242255   7.626   7.935   5.417
14005WAT      O42256   5.951   0.013   6.191
14005WAT     H142257   5.954   0.046   6.096
14005WAT     H242258   6.042  -0.014   6.219
14006WAT      O42259   4.248   2.445   8.653
14006WAT     H142260   4.293   2.406   8.733
14006WAT     H242261   4.166   2.393   8.632
14007WAT      O42262   6.638   9.484   8.051
14007WAT     H142263   6.681   9.484   7.960
14007WAT     H242264   6.574   9.407   8.057
14008WAT      O42265   6.775   9.399   6.437
14008WAT     H142266   6.857   9.421   6.490
14008WAT     H242267   6.798   9.396   6.340
14009WAT      O42268   5.270   7.802   6.737
14009WAT     H142269   5.263   7.715   6.688
14009WAT     H242270   5.192   7.859   6.713
14010WAT      O42271   4.173   7.397   2.657
14010WAT     H142272   4.190   7.419   2.561
14010WAT     H242273   4.125   7.310   2.663
14011WAT      O42274   6.077   3.023   7.248
14011WAT     H142275   6.035   3.079   7.319
14011WAT     H242276   6.157   2.977   7.285
14012WAT      O42277   2.683   3.427   1.935
14012WAT     H142278   2.594   3.384   1.924
14012WAT     H242279   2.673   3.526   1.927
14013WAT      O42280   8.478   1.234   8.645
14013WAT     H142281   8.499   1.331   8.637
14013WAT     H242282   8.553   1.187   8.693
14014WAT      O42283   6.229   0.996   7.057
14014WAT     H142284   6.296   1.014   6.985
14014WAT     H242285   6.157   1.065   7.054
14015WAT      O42286   4.207   3.530   6.685
14015WAT     H142287   4.189   3.432   6.678
14015WAT     H242288   4.218   3.556   6.781
14016WAT      O42289   4.724   3.481   3.866
14016WAT     H142290   4.767   3.457   3.778
14016WAT     H242291   4.789   3.466   3.940
14017WAT      O42292   7.803   1.009   3.287
14017WAT     H142293   7.898   0.979   3.285
14017WAT     H242294   7.765   1.007   3.195
14018WAT      O42295   1.890   1.881   7.232
14018WAT     H142296   1.837   1.817   7.175
14018WAT     H242297   1.985   1.849   7.237
14019WAT      O42298   0.587   2.147   3.894
14019WAT     H142299   0.559   2.052   3.883
14019WAT     H242300   0.583   2.173   3.990
14020WAT      O42301   3.307   3.934   0.955
14020WAT     H142302   3.355   3.864   1.007
14020WAT     H242303   3.280   3.897   0.866
14021WAT      O42304   0.959   2.374   1.581
14021WAT     H142305   1.047   2.361   1.627
14021WAT     H242306   0.900   2.295   1.600
14022WAT      O42307   3.372   0.908   7.968
14022WAT     H142308   3.282   0.944   7.994
14022WAT     H242309   3.373   0.888   7.870
14023WAT      O42310   2.413   9.562   0.769
14023WAT     H142311   2.348   9.634   0.795
14023WAT     H242312   2.459   9.588   0.684
14024WAT      O42313   3.602   2.606   2.364
14024WAT     H142314   3.577   2.695   2.403
14024WAT     H242315   3.519   2.559   2.334
14025WAT      O42316   8.699   2.444   9.215
14025WAT     H142317   8.773   2.491   9.264
14025WAT     H242318   8.690   2.351   9.252
14026WAT      O42319   8.531   3.458   3.241
14026WAT     H142320   8.503   3.373   3.196
14026WAT     H242321   8.599   3.438   3.311
14027WAT      O42322   4.452   7.575   9.635
14027WAT     H142323   4.429   7.660   9.588
14027WAT     H242324   4.369   7.520   9.646
14028WAT      O42325   0.771   7.886   4.202
14028WAT     H142326   0.844   7.827   4.235
14028WAT     H242327   0.796   7.922   4.112
14029WAT      O42328   8.708   2.243   7.782
14029WAT     H142329   8.712   2.306   7.704
14029WAT     H242330   8.787   2.181   7.778
14030WAT      O42331   2.470   0.540   2.438
14030WAT     H142332   2.565   0.534   2.468
14030WAT     H242333   2.459   0.490   2.352
14031WAT      O42334   6.573   3.386   1.019
14031WAT     H142335   6.495   3.323   1.024
14031WAT     H242336   6.599   3.415   1.111
14032WAT      O42337   1.782   1.724   2.071
14032WAT     H142338   1.689   1.739   2.101
14032WAT     H242339   1.830   1.664   2.136
14033WAT      O42340   7.149   0.346   0.340
14033WAT     H142341   7.103   0.395   0.414
14033WAT     H242342   7.160   0.250   0.366
14034WAT      O42343   4.165   5.371   9.056
14034WAT     H142344   4.181   5.375   8.958
14034WAT     H242345   4.117   5.455   9.085
14035WAT      O42346   7.419   5.238   7.151
14035WAT     H142347   7.340   5.211   7.204
14035WAT     H242348   7.495   5.175   7.168
14036WAT      O42349   2.493   2.027   3.500
14036WAT     H142350   2.497   2.051   3.403
14036WAT     H242351   2.531   1.935   3.513
14037WAT      O42352   9.803   8.726   3.054
14037WAT     H142353   9.879   8.734   2.990
14037WAT     H242354   9.786   8.814   3.097
14038WAT      O42355   6.006   0.177   9.043
14038WAT     H142356   5.988   0.183   9.141
14038WAT     H242357   6.090   0.228   9.022
14039WAT      O42358   7.517   9.302   1.550
14039WAT     H142359   7.425   9.303   1.510
14039WAT     H242360   7.533   9.214   1.593
14040WAT      O42361   1.559   1.835   5.174
14040WAT     H142362   1.526   1.833   5.080
14040WAT     H242363   1.556   1.929   5.209
14041WAT      O42364   6.681   2.640   8.660
14041WAT     H142365   6.591   2.610   8.628
14041WAT     H242366   6.705   2.590   8.743
14042WAT      O42367   7.728   6.879   6.829
14042WAT     H142368   7.754   6.969   6.862
14042WAT     H242369   7.810   6.825   6.811
14043WAT      O42370   4.856   5.398   1.177
14043WAT     H142371   4.845   5.301   1.156
14043WAT     H242372   4.834   5.453   1.097
14044WAT      O42373   6.169   1.337   3.343
14044WAT     H142374   6.130   1.299   3.427
14044WAT     H242375   6.237   1.407   3.366
14045WAT      O42376   7.085   8.100   9.405
14045WAT     H142377   6.996   8.135   9.433
14045WAT     H242378   7.095   8.108   9.306
14046WAT      O42379   9.838   2.266   7.120
14046WAT     H142380   9.904   2.336   7.094
14046WAT     H242381   9.859   2.234   7.213
14047WAT      O42382   9.610   9.760   8.531
14047WAT     H142383   9.590   9.690   8.600
14047WAT     H242384   9.669   9.830   8.571
14048WAT      O42385   3.850   4.977   6.381
14048WAT     H142386   3.876   4.888   6.344
14048WAT     H242387   3.923   5.043   6.365
14049WAT      O42388   7.181   2.860   0.489
14049WAT     H142389   7.268   2.880   0.535
14049WAT     H242390   7.155   2.939   0.433
14050WAT      O42391   8.782   9.166   2.096
14050WAT     H142392   8.713   9.148   2.167
14050WAT     H242393   8.770   9.260   2.062
14051WAT      O42394   3.011   1.754   5.938
14051WAT     H142395   3.008   1.657   5.962
14051WAT     H242396   3.064   1.804   6.006
14052WAT      O42397   5.123   1.869   7.705
14052WAT     H142398   5.192   1.870   7.633
14052WAT     H242399   5.168   1.877   7.794
14053WAT      O42400   4.862   4.253   4.014
14053WAT     H142401   4.849   4.345   3.978
14053WAT     H242402   4.959   4.239   4.035
14054WAT      O42403   5.189   5.387   3.508
14054WAT     H142404   5.257   5.422   3.443
14054WAT     H242405   5.098   5.416   3.479
14055WAT      O42406   8.646   7.373   7.514
14055WAT     H142407   8.652   7.426   7.430
14055WAT     H242408   8.559   7.390   7.559
14056WAT      O42409   5.845   2.883   9.832
14056WAT     H142410   5.780   2.931   9.890
14056WAT     H242411   5.925   2.940   9.817
14057WAT      O42412   7.197   5.683   1.466
14057WAT     H142413   7.173   5.718   1.557
14057WAT     H242414   7.294   5.701   1.448
14058WAT      O42415   0.817   8.099   5.020
14058WAT     H142416   0.756   8.028   5.056
14058WAT     H242417   0.907   8.058   5.001
14059WAT      O42418   8.431   1.637   3.114
14059WAT     H142419   8.419   1.730   3.147
14059WAT     H242420   8.416   1.572   3.188
14060WAT      O42421   0.497   8.991   2.898
14060WAT     H142422   0.415   8.998   2.841
14060WAT     H242423   0.487   8.915   2.962
14061WAT      O42424   5.410   0.426   8.983
14061WAT     H142425   5.462   0.452   8.901
14061WAT     H242426   5.456   0.348   9.027
14062WAT      O42427   6.608   9.162   5.874
14062WAT     H142428   6.538   9.222   5.835
14062WAT     H242429   6.606   9.168   5.973
14063WAT      O42430   4.053   2.298   5.362
14063WAT     H142431   4.112   2.242   5.304
14063WAT     H242432   4.042   2.255   5.451
14064WAT      O42433   0.038   3.166   1.605
14064WAT     H142434   0.032   3.265   1.595
14064WAT     H242435   0.008   3.140   1.697
14065WAT      O42436   8.434   8.663   4.997
14065WAT     H142437   8.373   8.587   5.020
14065WAT     H242438   8.448   8.666   4.898
14066WAT      O42439   6.855   1.068   6.835
14066WAT     H142440   6.839   1.134   6.908
14066WAT     H242441   6.910   1.111   6.763
14067WAT      O42442   0.388   6.298   0.152
14067WAT     H142443   0.438   6.355   0.086
14067WAT     H242444   0.453   6.245   0.207
14068WAT      O42445   2.619   3.797   3.051
14068WAT     H142446   2.657   3.886   3.025
14068WAT     H242447   2.613   3.790   3.150
14069WAT      O42448   1.538   4.631   8.677
14069WAT     H142449   1.467   4.589   8.621
14069WAT     H242450   1.501   4.652   8.768
14070WAT      O42451   9.583   6.033   1.481
14070WAT     H142452   9.600   6.032   1.382
14070WAT     H242453   9.659   6.078   1.528
14071WAT      O42454   8.601   8.462   8.163
14071WAT     H142455   8.522   8.465   8.224
14071WAT     H242456   8.682   8.494   8.212
14072WAT      O42457   6.012   4.596   8.387
14072WAT     H142458   6.112   4.594   8.374
14072WAT     H242459   5.989   4.665   8.456
14073WAT      O42460   1.326   3.063   2.709
14073WAT     H142461   1.398   3.116   2.666
14073WAT     H242462   1.301   3.105   2.797
14074WAT      O42463   4.916   8.495   7.320
14074WAT     H142464   5.011   8.525   7.322
14074WAT     H242465   4.911   8.398   7.296
14075WAT      O42466   8.427   7.242   2.699
14075WAT     H142467   8.439   7.198   2.788
14075WAT     H242468   8.423   7.342   2.712
14076WAT      O42469   5.635   4.105   1.224
14076WAT     H142470   5.650   4.060   1.311
14076WAT     H242471   5.620   4.036   1.153
14077WAT      O42472   4.890   1.352   6.882
14077WAT     H142473   4.916   1.311   6.794
14077WAT     H242474   4.819   1.297   6.925
14078WAT      O42475   7.453   3.172   6.477
14078WAT     H142476   7.381   3.240   6.489
14078WAT     H242477   7.520   3.206   6.410
14079WAT      O42478   2.730   2.933   0.031
14079WAT     H142479   2.726   2.877  -0.051
14079WAT     H242480   2.823   2.969   0.042
14080WAT      O42481   3.796   7.881   7.487
14080WAT     H142482   3.868   7.872   7.418
14080WAT     H242483   3.771   7.978   7.496
14081WAT      O42484   5.933   5.824   4.093
14081WAT     H142485   5.856   5.766   4.121
14081WAT     H242486   5.902   5.919   4.088
14082WAT      O42487   5.442   3.202   4.725
14082WAT     H142488   5.419   3.299   4.731
14082WAT     H242489   5.388   3.151   4.793
14083WAT      O42490   6.914   5.850   2.675
14083WAT     H142491   6.867   5.846   2.587
14083WAT     H242492   7.012   5.856   2.660
14084WAT      O42493   5.380   4.545   7.001
14084WAT     H142494   5.414   4.626   7.049
14084WAT     H242495   5.340   4.482   7.068
14085WAT      O42496   1.958   2.207   8.361
14085WAT     H142497   2.044   2.242   8.325
14085WAT     H242498   1.975   2.145   8.438
14086WAT      O42499   4.028   5.009   5.320
14086WAT     H142500   4.085   5.051   5.250
14086WAT     H242501   4.077   4.933   5.362
14087WAT      O42502   9.220   7.591   9.307
14087WAT     H142503   9.210   7.504   9.356
14087WAT     H242504   9.153   7.596   9.233
14088WAT      O42505   4.448   4.825   4.345
14088WAT     H142506   4.491   4.787   4.426
14088WAT     H242507   4.502   4.802   4.264
14089WAT      O42508   3.076   1.247   9.591
14089WAT     H142509   3.050   1.173   9.654
14089WAT     H242510   3.001   1.264   9.527
14090WAT      O42511   7.002   3.262   3.262
14090WAT     H142512   7.029   3.339   3.205
14090WAT     H242513   7.030   3.278   3.356
14091WAT      O42514   0.343   5.338   4.367
14091WAT     H142515   0.278   5.406   4.399
14091WAT     H242516   0.375   5.362   4.275
14092WAT      O42517   7.059   1.633   7.386
14092WAT     H142518   6.983   1.578   7.351
14092WAT     H242519   7.131   1.638   7.317
14093WAT      O42520   5.043   0.822   1.062
14093WAT     H142521   5.067   0.763   1.139
14093WAT     H242522   4.972   0.886   1.090
14094WAT      O42523   6.520   1.191   7.197
14094WAT     H142524   6.458   1.270   7.198
14094WAT     H242525   6.518   1.147   7.287
14095WAT      O42526   5.902   2.152   9.594
14095WAT     H142527   5.938   2.194   9.677
14095WAT     H242528   5.802   2.146   9.601
14096WAT      O42529   1.390   1.498   2.441
14096WAT     H142530   1.414   1.434   2.368
14096WAT     H242531   1.298   1.477   2.475
14097WAT      O42532   6.367   5.831   0.987
14097WAT     H142533   6.346   5.787   1.074
14097WAT     H242534   6.432   5.774   0.936
14098WAT      O42535   2.262   0.980   5.220
14098WAT     H142536   2.310   1.068   5.225
14098WAT     H242537   2.237   0.950   5.312
14099WAT      O42538   3.676   3.995   0.565
14099WAT     H142539   3.711   3.924   0.626
14099WAT     H242540   3.656   3.955   0.475
14100WAT      O42541   6.067   2.991   1.689
14100WAT     H142542   6.140   2.962   1.627
14100WAT     H242543   6.096   2.974   1.783
14101WAT      O42544   5.527   7.219   7.239
14101WAT     H142545   5.473   7.286   7.289
14101WAT     H242546   5.478   7.191   7.156
14102WAT      O42547   5.142   6.247   6.618
14102WAT     H142548   5.215   6.234   6.685
14102WAT     H242549   5.104   6.339   6.627
14103WAT      O42550   4.596   2.665   0.300
14103WAT     H142551   4.665   2.640   0.231
14103WAT     H242552   4.637   2.662   0.391
14104WAT      O42553   4.985   0.768   4.273
14104WAT     H142554   5.077   0.805   4.267
14104WAT     H242555   4.921   0.831   4.228
14105WAT      O42556   7.612   8.089   0.506
14105WAT     H142557   7.534   8.071   0.447
14105WAT     H242558   7.678   8.014   0.499
14106WAT      O42559   9.109   4.933   0.384
14106WAT     H142560   9.093   4.927   0.285
14106WAT     H242561   9.050   4.869   0.431
14107WAT      O42562   7.352   4.837   7.446
14107WAT     H142563   7.437   4.825   7.395
14107WAT     H242564   7.358   4.921   7.501
14108WAT      O42565   8.698   7.194   3.977
14108WAT     H142566   8.663   7.112   4.023
14108WAT     H242567   8.629   7.266   3.981
14109WAT      O42568   3.205   6.063   3.958
14109WAT     H142569   3.189   6.127   3.882
14109WAT     H242570   3.303   6.059   3.978
14110WAT      O42571   5.939   7.723   9.730
14110WAT     H142572   5.877   7.775   9.671
14110WAT     H242573   6.010   7.681   9.675
14111WAT      O42574   2.352   2.387   6.157
14111WAT     H142575   2.366   2.290   6.176
14111WAT     H242576   2.254   2.404   6.147
14112WAT      O42577   0.576   2.538   6.931
14112WAT     H142578   0.516   2.596   6.876
14112WAT     H242579   0.597   2.585   7.017
14113WAT      O42580   6.471   4.978   4.208
14113WAT     H142581   6.420   4.963   4.123
14113WAT     H242582   6.420   5.041   4.266
14114WAT      O42583   8.588   5.462   0.602
14114WAT     H142584   8.553   5.370   0.581
14114WAT     H242585   8.511   5.525   0.611
14115WAT      O42586   5.871   3.895   6.001
14115WAT     H142587   5.877   3.897   6.101
14115WAT     H242588   5.962   3.881   5.962
14116WAT      O42589   8.788   0.437   8.312
14116WAT     H142590   8.807   0.373   8.387
14116WAT     H242591   8.692   0.463   8.314
14117WAT      O42592   8.729   4.472   8.340
14117WAT     H142593   8.699   4.567   8.351
14117WAT     H242594   8.649   4.413   8.332
14118WAT      O42595   6.342   4.869   9.870
14118WAT     H142596   6.283   4.933   9.822
14118WAT     H242597   6.312   4.775   9.851
14119WAT      O42598   4.893   1.489   1.759
14119WAT     H142599   4.968   1.539   1.801
14119WAT     H242600   4.885   1.515   1.663
14120WAT      O42601   7.783   2.542   3.046
14120WAT     H142602   7.716   2.470   3.065
14120WAT     H242603   7.865   2.527   3.100
14121WAT      O42604   1.570   9.374   6.713
14121WAT     H142605   1.565   9.473   6.730
14121WAT     H242606   1.507   9.326   6.773
14122WAT      O42607   0.029   9.156   2.523
14122WAT     H142608   0.068   9.117   2.606
14122WAT     H242609  -0.031   9.233   2.547
14123WAT      O42610   8.380   7.490   9.643
14123WAT     H142611   8.453   7.432   9.679
14123WAT     H242612   8.416   7.581   9.622
14124WAT      O42613   9.699   0.338   4.071
14124WAT     H142614   9.622   0.336   4.007
14124WAT     H242615   9.665   0.321   4.164
14125WAT      O42616   3.170   6.855   7.581
14125WAT     H142617   3.260   6.898   7.590
14125WAT     H242618   3.175   6.760   7.612
14126WAT      O42619   4.178   4.762   5.351
14126WAT     H142620   4.184   4.685   5.414
14126WAT     H242621   4.257   4.760   5.289
14127WAT      O42622   6.766   9.804   0.055
14127WAT     H142623   6.846   9.778   0.109
14127WAT     H242624   6.795   9.843  -0.032
14128WAT      O42625   1.903   1.160   3.242
14128WAT     H142626   1.868   1.240   3.291
14128WAT     H242627   2.000   1.172   3.223
14129WAT      O42628   5.767   7.830   9.453
14129WAT     H142629   5.687   7.799   9.403
14129WAT     H242630   5.848   7.826   9.394
14130WAT      O42631   2.457   4.202   5.098
14130WAT     H142632   2.494   4.294   5.109
14130WAT     H242633   2.501   4.141   5.163
14131WAT      O42634   6.799   9.158   5.692
14131WAT     H142635   6.874   9.115   5.742
14131WAT     H242636   6.717   9.161   5.750
14132WAT      O42637   4.473   3.618   4.244
14132WAT     H142638   4.396   3.590   4.303
14132WAT     H242639   4.454   3.708   4.205
14133WAT      O42640   6.826   6.114   1.928
14133WAT     H142641   6.857   6.156   1.842
14133WAT     H242642   6.790   6.185   1.988
14134WAT      O42643   1.222   9.340   5.556
14134WAT     H142644   1.131   9.384   5.557
14134WAT     H242645   1.292   9.409   5.576
14135WAT      O42646   3.577   3.654   2.110
14135WAT     H142647   3.666   3.627   2.073
14135WAT     H242648   3.509   3.654   2.037
14136WAT      O42649   8.287   0.439   6.595
14136WAT     H142650   8.299   0.399   6.686
14136WAT     H242651   8.258   0.534   6.604
14137WAT      O42652   3.678   2.096   8.232
14137WAT     H142653   3.735   2.018   8.256
14137WAT     H242654   3.696   2.122   8.137
14138WAT      O42655   3.456   5.324   6.221
14138WAT     H142656   3.428   5.404   6.167
14138WAT     H242657   3.550   5.298   6.196
14139WAT      O42658   6.226   0.218   5.296
14139WAT     H142659   6.130   0.243   5.308
14139WAT     H242660   6.284   0.293   5.327
14140WAT      O42661   7.128   3.523   9.163
14140WAT     H142662   7.218   3.557   9.190
14140WAT     H242663   7.098   3.454   9.229
14141WAT      O42664   3.554   1.790   0.330
14141WAT     H142665   3.512   1.866   0.379
14141WAT     H242666   3.505   1.774   0.245
14142WAT      O42667   4.594   4.082   6.045
14142WAT     H142668   4.573   4.068   6.142
14142WAT     H242669   4.511   4.070   5.991
14143WAT      O42670   1.644   0.780   5.403
14143WAT     H142671   1.652   0.683   5.381
14143WAT     H242672   1.556   0.815   5.371
14144WAT      O42673   0.088   6.321   0.474
14144WAT     H142674   0.169   6.346   0.527
14144WAT     H242675   0.041   6.403   0.443
14145WAT      O42676   6.827   2.996   0.886
14145WAT     H142677   6.813   3.095   0.882
14145WAT     H242678   6.914   2.977   0.931
14146WAT      O42679   4.434   5.070   9.530
14146WAT     H142680   4.353   5.027   9.489
14146WAT     H242681   4.428   5.065   9.630
14147WAT      O42682   6.147   8.926   4.325
14147WAT     H142683   6.173   8.890   4.236
14147WAT     H242684   6.081   8.865   4.368
14148WAT      O42685   3.767   1.962   6.499
14148WAT     H142686   3.671   1.987   6.516
14148WAT     H242687   3.773   1.863   6.485
14149WAT      O42688   6.252   8.415   6.697
14149WAT     H142689   6.281   8.331   6.742
14149WAT     H242690   6.273   8.410   6.600
14150WAT      O42691   8.608   4.344   5.976
14150WAT     H142692   8.621   4.258   5.927
14150WAT     H242693   8.591   4.324   6.073
14151WAT      O42694   8.821   6.502   6.985
14151WAT     H142695   8.884   6.504   7.063
14151WAT     H242696   8.874   6.506   6.900
14152WAT      O42697   2.088   0.216   8.389
14152WAT     H142698   2.127   0.279   8.456
14152WAT     H242699   2.080   0.262   8.301
14153WAT      O42700   3.075   5.751   6.424
14153WAT     H142701   3.127   5.804   6.356
14153WAT     H242702   3.128   5.747   6.509
14154WAT      O42703   7.504   3.479   0.892
14154WAT     H142704   7.576   3.451   0.956
14154WAT     H242705   7.457   3.398   0.858
14155WAT      O42706   8.584   1.571   9.379
14155WAT     H142707   8.592   1.471   9.377
14155WAT     H242708   8.663   1.612   9.334
14156WAT      O42709   7.981   1.790   4.652
14156WAT     H142710   7.898   1.736   4.659
14156WAT     H242711   8.003   1.805   4.555
14157WAT      O42712   4.197   7.030   5.430
14157WAT     H142713   4.108   7.011   5.391
14157WAT     H242714   4.255   7.075   5.362
14158WAT      O42715   5.498   8.645   7.155
14158WAT     H142716   5.519   8.597   7.240
14158WAT     H242717   5.419   8.704   7.169
14159WAT      O42718   2.646   3.134   9.296
14159WAT     H142719   2.573   3.199   9.315
14159WAT     H242720   2.731   3.165   9.340
14160WAT      O42721   6.478   0.648   2.667
14160WAT     H142722   6.457   0.724   2.605
14160WAT     H242723   6.420   0.654   2.748
14161WAT      O42724   4.798   0.782   8.433
14161WAT     H142725   4.756   0.728   8.506
14161WAT     H242726   4.894   0.757   8.425
14162WAT      O42727   0.334   7.676   9.722
14162WAT     H142728   0.249   7.626   9.708
14162WAT     H242729   0.387   7.632   9.794
14163WAT      O42730   3.983   9.773   0.761
14163WAT     H142731   3.934   9.852   0.797
14163WAT     H242732   3.916   9.707   0.724
14164WAT      O42733   5.654   5.056   0.086
14164WAT     H142734   5.606   5.077   0.171
14164WAT     H242735   5.636   4.962   0.059
14165WAT      O42736   0.203   9.432   0.251
14165WAT     H142737   0.250   9.434   0.339
14165WAT     H242738   0.104   9.434   0.266
14166WAT      O42739   6.001   6.027   8.086
14166WAT     H142740   6.009   5.931   8.114
14166WAT     H242741   5.905   6.056   8.095
14167WAT      O42742   6.083   3.045   2.632
14167WAT     H142743   5.994   3.010   2.659
14167WAT     H242744   6.085   3.144   2.641
14168WAT      O42745   0.619   2.976   7.781
14168WAT     H142746   0.706   3.026   7.782
14168WAT     H242747   0.624   2.903   7.713
14169WAT      O42748   3.920   4.676   2.116
14169WAT     H142749   3.885   4.654   2.026
14169WAT     H242750   3.885   4.765   2.145
14170WAT      O42751   5.428   2.813   5.718
14170WAT     H142752   5.471   2.892   5.674
14170WAT     H242753   5.493   2.771   5.781
14171WAT      O42754   3.537   0.019   4.240
14171WAT     H142755   3.534  -0.072   4.281
14171WAT     H242756   3.477   0.021   4.160
14172WAT      O42757   9.694   5.317   5.565
14172WAT     H142758   9.751   5.376   5.508
14172WAT     H242759   9.617   5.283   5.512
14173WAT      O42760   4.780   3.762   0.416
14173WAT     H142761   4.711   3.778   0.487
14173WAT     H242762   4.768   3.828   0.342
14174WAT      O42763   1.002   1.073   0.928
14174WAT     H142764   0.910   1.054   0.893
14174WAT     H242765   1.050   0.987   0.945
14175WAT      O42766   9.887   5.125   2.111
14175WAT     H142767   9.860   5.218   2.087
14175WAT     H242768   9.852   5.061   2.042
14176WAT      O42769   8.584   3.358   1.461
14176WAT     H142770   8.567   3.454   1.483
14176WAT     H242771   8.671   3.349   1.413
14177WAT      O42772   2.572   0.746   7.651
14177WAT     H142773   2.554   0.668   7.590
14177WAT     H242774   2.667   0.743   7.682
14178WAT      O42775   6.669   7.017   7.205
14178WAT     H142776   6.765   7.037   7.224
14178WAT     H242777   6.613   7.096   7.230
14179WAT      O42778   1.091   1.231   9.305
14179WAT     H142779   1.182   1.217   9.344
14179WAT     H242780   1.099   1.263   9.211
14180WAT      O42781   1.605   1.832   5.591
14180WAT     H142782   1.633   1.928   5.594
14180WAT     H242783   1.684   1.774   5.612
14181WAT      O42784   4.620   3.414   1.588
14181WAT     H142785   4.613   3.324   1.546
14181WAT     H242786   4.599   3.484   1.520
14182WAT      O42787   5.873   8.600   7.550
14182WAT     H142788   5.793   8.598   7.610
14182WAT     H242789   5.930   8.678   7.573
14183WAT      O42790   4.564   3.126   1.937
14183WAT     H142791   4.528   3.219   1.941
14183WAT     H242792   4.505   3.071   1.877
14184WAT      O42793   6.726   2.079   8.153
14184WAT     H142794   6.655   2.143   8.127
14184WAT     H242795   6.748   2.090   8.250
14185WAT      O42796   0.247   1.470   7.743
14185WAT     H142797   0.169   1.532   7.743
14185WAT     H242798   0.241   1.409   7.664
14186WAT      O42799   1.265   3.475   0.265
14186WAT     H142800   1.209   3.419   0.327
14186WAT     H242801   1.338   3.519   0.317
14187WAT      O42802   6.013   5.543   9.342
14187WAT     H142803   6.033   5.449   9.314
14187WAT     H242804   6.073   5.568   9.418
14188WAT      O42805   3.115   7.810   5.374
14188WAT     H142806   3.071   7.725   5.401
14188WAT     H242807   3.058   7.859   5.309
14189WAT      O42808   0.896   2.823   3.440
14189WAT     H142809   0.960   2.748   3.425
14189WAT     H242810   0.926   2.879   3.516
14190WAT      O42811   5.014   2.547   7.022
14190WAT     H142812   5.076   2.615   7.061
14190WAT     H242813   5.003   2.471   7.087
14191WAT      O42814   1.714   3.755   7.123
14191WAT     H142815   1.762   3.682   7.172
14191WAT     H242816   1.747   3.844   7.155
14192WAT      O42817   3.429   3.418   2.893
14192WAT     H142818   3.416   3.384   2.986
14192WAT     H242819   3.341   3.426   2.847
14193WAT      O42820   0.040   8.326   4.111
14193WAT     H142821   0.007   8.420   4.100
14193WAT     H242822  -0.038   8.264   4.116
14194WAT      O42823   2.424   7.904   7.636
14194WAT     H142824   2.501   7.964   7.612
14194WAT     H242825   2.456   7.810   7.647
14195WAT      O42826   4.254   0.021   7.359
14195WAT     H142827   4.211  -0.055   7.310
14195WAT     H242828   4.221   0.108   7.323
14196WAT      O42829   7.190   5.773   1.800
14196WAT     H142830   7.183   5.688   1.853
14196WAT     H242831   7.273   5.769   1.743
14197WAT      O42832   4.040   6.335   8.335
14197WAT     H142833   4.065   6.240   8.316
14197WAT     H242834   3.979   6.338   8.414
14198WAT      O42835   6.059   8.895   1.817
14198WAT     H142836   6.079   8.824   1.750
14198WAT     H242837   6.135   8.960   1.821
14199WAT      O42838   0.984   6.482   5.841
14199WAT     H142839   0.934   6.399   5.863
14199WAT     H242840   1.079   6.460   5.819
14200WAT      O42841   4.871   9.613   5.970
14200WAT     H142842   4.885   9.594   6.067
14200WAT     H242843   4.809   9.545   5.931
14201WAT      O42844   2.897   5.975   8.891
14201WAT     H142845   2.918   5.878   8.875
14201WAT     H242846   2.963   6.032   8.843
14202WAT      O42847   1.409   3.007   3.397
14202WAT     H142848   1.378   2.918   3.431
14202WAT     H242849   1.370   3.079   3.454
14203WAT      O42850   5.825   8.724   5.643
14203WAT     H142851   5.730   8.751   5.663
14203WAT     H242852   5.833   8.698   5.547
14204WAT      O42853   2.521   9.186   6.736
14204WAT     H142854   2.525   9.285   6.720
14204WAT     H242855   2.545   9.167   6.831
14205WAT      O42856   0.429   8.621   9.803
14205WAT     H142857   0.449   8.526   9.780
14205WAT     H242858   0.385   8.625   9.893
14206WAT      O42859   2.780   0.904   3.469
14206WAT     H142860   2.848   0.975   3.489
14206WAT     H242861   2.796   0.826   3.529
14207WAT      O42862   0.684   4.323   0.262
14207WAT     H142863   0.706   4.245   0.203
14207WAT     H242864   0.741   4.401   0.237
14208WAT      O42865   1.184   8.762   0.401
14208WAT     H142866   1.189   8.822   0.321
14208WAT     H242867   1.235   8.803   0.477
14209WAT      O42868   1.978   8.898   6.956
14209WAT     H142869   1.949   8.870   6.865
14209WAT     H242870   1.935   8.839   7.024
14210WAT      O42871   5.976   6.192   1.024
14210WAT     H142872   5.932   6.275   1.057
14210WAT     H242873   6.071   6.212   1.000
14211WAT      O42874   3.193   4.379   1.483
14211WAT     H142875   3.267   4.357   1.546
14211WAT     H242876   3.188   4.310   1.411
14212WAT      O42877   5.250   2.411   1.210
14212WAT     H142878   5.187   2.367   1.274
14212WAT     H242879   5.281   2.498   1.249
14213WAT      O42880   8.039   7.349   0.181
14213WAT     H142881   8.008   7.276   0.120
14213WAT     H242882   7.990   7.434   0.159
14214WAT      O42883   3.736   6.063   1.225
14214WAT     H142884   3.677   5.991   1.262
14214WAT     H242885   3.750   6.133   1.294
14215WAT      O42886   9.494   5.648   5.889
14215WAT     H142887   9.568   5.659   5.956
14215WAT     H242888   9.534   5.632   5.799
14216WAT      O42889   3.041   7.670   3.882
14216WAT     H142890   3.069   7.751   3.830
14216WAT     H242891   3.025   7.594   3.819
14217WAT      O42892   7.465   7.159   0.385
14217WAT     H142893   7.424   7.220   0.317
14217WAT     H242894   7.393   7.113   0.437
14218WAT      O42895   8.370   3.240   9.295
14218WAT     H142896   8.304   3.257   9.222
14218WAT     H242897   8.345   3.293   9.376
14219WAT      O42898   3.300   0.416   7.443
14219WAT     H142899   3.266   0.343   7.383
14219WAT     H242900   3.399   0.410   7.450
14220WAT      O42901   7.845   0.940   6.537
14220WAT     H142902   7.793   1.012   6.583
14220WAT     H242903   7.817   0.936   6.441
14221WAT      O42904   5.895   1.316   4.167
14221WAT     H142905   5.832   1.256   4.216
14221WAT     H242906   5.843   1.379   4.109
14222WAT      O42907   1.047   1.294   6.189
14222WAT     H142908   1.042   1.204   6.146
14222WAT     H242909   1.102   1.355   6.131
14223WAT      O42910   8.862   6.169   4.943
14223WAT     H142911   8.945   6.223   4.960
14223WAT     H242912   8.782   6.223   4.969
14224WAT      O42913   2.815   5.103   0.633
14224WAT     H142914   2.757   5.105   0.714
14224WAT     H242915   2.797   5.020   0.581
14225WAT      O42916   9.473   7.829   7.064
14225WAT     H142917   9.474   7.833   7.164
14225WAT     H242918   9.430   7.743   7.034
14226WAT      O42919   9.875   1.342   9.487
14226WAT     H142920   9.835   1.322   9.577
14226WAT     H242921   9.833   1.284   9.418
14227WAT      O42922   1.567   9.692   7.247
14227WAT     H142923   1.660   9.670   7.217
14227WAT     H242924   1.517   9.607   7.264
14228WAT      O42925   6.574   5.984   8.531
14228WAT     H142926   6.482   6.021   8.522
14228WAT     H242927   6.611   6.009   8.620
14229WAT      O42928   7.138   4.410   7.920
14229WAT     H142929   7.143   4.347   7.843
14229WAT     H242930   7.178   4.367   8.001
14230WAT      O42931   8.073   5.837   5.459
14230WAT     H142932   8.122   5.775   5.397
14230WAT     H242933   8.048   5.787   5.542
14231WAT      O42934   1.099   8.256   0.163
14231WAT     H142935   1.036   8.261   0.240
14231WAT     H242936   1.074   8.325   0.095
14232WAT      O42937   0.072   3.460   0.008
14232WAT     H142938   0.115   3.476  -0.082
14232WAT     H242939  -0.024   3.438  -0.005
14233WAT      O42940   2.675   5.731   7.857
14233WAT     H142941   2.664   5.701   7.952
14233WAT     H242942   2.593   5.708   7.805
14234WAT      O42943   5.409   6.723   8.209
14234WAT     H142944   5.498   6.763   8.234
14234WAT     H242945   5.341   6.796   8.202
14235WAT      O42946   2.957   1.609   7.449
14235WAT     H142947   2.959   1.511   7.426
14235WAT     H242948   2.887   1.626   7.518
14236WAT      O42949   0.528   5.095   1.504
14236WAT     H142950   0.510   5.039   1.423
14236WAT     H242951   0.577   5.041   1.572
14237WAT      O42952   5.885   0.659   8.467
14237WAT     H142953   5.939   0.592   8.416
14237WAT     H242954   5.820   0.611   8.526
14238WAT      O42955   5.324   2.136   6.504
14238WAT     H142956   5.360   2.162   6.415
14238WAT     H242957   5.354   2.202   6.573
14239WAT      O42958   5.257   8.512   9.160
14239WAT     H142959   5.161   8.508   9.187
14239WAT     H242960   5.289   8.420   9.140
14240WAT      O42961   0.116   1.158   4.810
14240WAT     H142962   0.040   1.212   4.847
14240WAT     H242963   0.201   1.210   4.821
14241WAT      O42964   5.735   9.029   9.005
14241WAT     H142965   5.811   9.059   9.064
14241WAT     H242966   5.770   9.009   8.914
14242WAT      O42967   3.230   6.062   6.046
14242WAT     H142968   3.195   6.154   6.030
14242WAT     H242969   3.300   6.040   5.978
14243WAT      O42970   4.518   7.333   3.968
14243WAT     H142971   4.493   7.238   3.985
14243WAT     H242972   4.599   7.357   4.020
14244WAT      O42973   6.378   5.144   7.896
14244WAT     H142974   6.415   5.051   7.893
14244WAT     H242975   6.446   5.209   7.861
14245WAT      O42976   4.430   5.605   4.962
14245WAT     H142977   4.354   5.650   4.916
14245WAT     H242978   4.509   5.601   4.901
14246WAT      O42979   5.650   3.526   3.112
14246WAT     H142980   5.657   3.581   3.195
14246WAT     H242981   5.726   3.549   3.050
14247WAT      O42982   3.043   0.234   2.649
14247WAT     H142983   3.086   0.242   2.739
14247WAT     H242984   3.113   0.243   2.578
14248WAT      O42985   2.886   2.954   3.114
14248WAT     H142986   2.833   2.912   3.040
14248WAT     H242987   2.961   2.893   3.140
14249WAT      O42988   2.334   0.907   7.241
14249WAT     H142989   2.344   0.913   7.340
14249WAT     H242990   2.284   0.987   7.207
14250WAT      O42991   0.884   8.371   8.175
14250WAT     H142992   0.939   8.298   8.135
14250WAT     H242993   0.921   8.395   8.265
14251WAT      O42994   9.108   8.025   3.090
14251WAT     H142995   9.144   7.984   3.006
14251WAT     H242996   9.030   7.971   3.122
14252WAT      O42997   0.918   6.160   3.036
14252WAT     H142998   0.976   6.198   2.964
14252WAT     H242999   0.837   6.217   3.047
14253WAT      O43000   6.269   1.123   5.736
14253WAT     H143001   6.365   1.106   5.758
14253WAT     H243002   6.262   1.166   5.646
14254WAT      O43003   0.553   9.221   1.071
14254WAT     H143004   0.558   9.122   1.060
14254WAT     H243005   0.553   9.265   0.981
14255WAT      O43006   4.687   3.020   6.468
14255WAT     H143007   4.632   3.083   6.413
14255WAT     H243008   4.704   3.060   6.558
14256WAT      O43009   2.246   7.311   4.908
14256WAT     H143010   2.272   7.286   5.001
14256WAT     H243011   2.147   7.303   4.898
14257WAT      O43012   5.636   6.104   0.179
14257WAT     H143013   5.727   6.068   0.156
14257WAT     H243014   5.631   6.200   0.153
14258WAT      O43015   2.679   0.595   8.870
14258WAT     H143016   2.607   0.567   8.934
14258WAT     H243017   2.683   0.695   8.867
14259WAT      O43018   4.510   3.552   1.032
14259WAT     H143019   4.533   3.586   0.941
14259WAT     H243020   4.458   3.467   1.024
14260WAT      O43021   2.305   8.159   9.831
14260WAT     H143022   2.372   8.087   9.812
14260WAT     H243023   2.314   8.232   9.764
14261WAT      O43024   0.885   1.434   1.811
14261WAT     H143025   0.880   1.468   1.905
14261WAT     H243026   0.961   1.477   1.764
14262WAT      O43027   3.069   2.830   3.951
14262WAT     H143028   3.109   2.832   4.043
14262WAT     H243029   3.056   2.923   3.918
14263WAT      O43030   1.787   5.108   0.749
14263WAT     H143031   1.721   5.176   0.716
14263WAT     H243032   1.878   5.149   0.749
14264WAT      O43033   6.678   7.874   4.151
14264WAT     H143034   6.636   7.923   4.228
14264WAT     H243035   6.755   7.927   4.116
14265WAT      O43036   9.821   8.463   5.431
14265WAT     H143037   9.780   8.550   5.403
14265WAT     H243038   9.894   8.480   5.497
14266WAT      O43039   1.414   6.825   5.170
14266WAT     H143040   1.386   6.913   5.207
14266WAT     H243041   1.372   6.812   5.080
14267WAT      O43042   4.360   3.033   1.447
14267WAT     H143043   4.347   2.990   1.536
14267WAT     H243044   4.456   3.063   1.438
14268WAT      O43045   7.534   7.703   4.433
14268WAT     H143046   7.459   7.765   4.414
14268WAT     H243047   7.549   7.643   4.354
14269WAT      O43048   6.280   8.299   1.411
14269WAT     H143049   6.324   8.338   1.330
14269WAT     H243050   6.207   8.359   1.442
14270WAT      O43051   6.439   9.043   9.357
14270WAT     H143052   6.365   9.013   9.298
14270WAT     H243053   6.442   8.987   9.440
14271WAT      O43054   9.453   7.778   4.154
14271WAT     H143055   9.398   7.857   4.128
14271WAT     H243056   9.394   7.697   4.159
14272WAT      O43057   4.864   1.834   2.058
14272WAT     H143058   4.915   1.752   2.085
14272WAT     H243059   4.800   1.812   1.985
14273WAT      O43060   2.487   2.831   2.878
14273WAT     H143061   2.581   2.808   2.903
14273WAT     H243062   2.488   2.910   2.816
14274WAT      O43063   3.976   8.532   4.053
14274WAT     H143064   4.050   8.566   4.110
14274WAT     H243065   3.967   8.433   4.067
14275WAT      O43066   1.472   5.747   6.768
14275WAT     H143067   1.549   5.689   6.744
14275WAT     H243068   1.387   5.699   6.746
14276WAT      O43069   5.357   3.445   4.708
14276WAT     H143070   5.407   3.474   4.627
14276WAT     H243071   5.260   3.434   4.685
14277WAT      O43072   5.985   7.849   5.595
14277WAT     H143073   5.947   7.779   5.656
14277WAT     H243074   6.054   7.902   5.644
14278WAT      O43075   1.810   8.005   2.612
14278WAT     H143076   1.800   8.096   2.571
14278WAT     H243077   1.861   7.946   2.550
14279WAT      O43078   4.464   9.691   2.779
14279WAT     H143079   4.512   9.712   2.864
14279WAT     H243080   4.468   9.593   2.761
14280WAT      O43081   9.113   3.527   4.512
14280WAT     H143082   9.145   3.452   4.453
14280WAT     H243083   9.170   3.532   4.593
14281WAT      O43084   9.187   5.570   4.483
14281WAT     H143085   9.281   5.598   4.464
14281WAT     H243086   9.148   5.628   4.554
14282WAT      O43087   6.223   7.038   7.378
14282WAT     H143088   6.124   7.024   7.371
14282WAT     H243089   6.266   6.953   7.408
14283WAT      O43090   8.615   4.722   2.762
14283WAT     H143091   8.562   4.638   2.751
14283WAT     H243092   8.575   4.779   2.834
14284WAT      O43093   0.592   9.191   4.921
14284WAT     H143094   0.527   9.180   4.845
14284WAT     H243095   0.646   9.274   4.906
14285WAT      O43096   7.772   9.422   6.680
14285WAT     H143097   7.723   9.509   6.674
14285WAT     H243098   7.724   9.354   6.624
14286WAT      O43099   3.051   6.105   8.704
14286WAT     H143100   3.022   6.169   8.634
14286WAT     H243101   3.098   6.154   8.777
14287WAT      O43102   0.955   6.371   1.796
14287WAT     H143103   0.868   6.356   1.842
14287WAT     H243104   0.952   6.329   1.705
14288WAT      O43105   0.622   2.252   5.805
14288WAT     H143106   0.529   2.278   5.780
14288WAT     H243107   0.641   2.159   5.772
14289WAT      O43108   5.442   1.158   1.790
14289WAT     H143109   5.381   1.201   1.857
14289WAT     H243110   5.405   1.069   1.764
14290WAT      O43111   5.569   9.331   5.044
14290WAT     H143112   5.617   9.248   5.074
14290WAT     H243113   5.505   9.360   5.115
14291WAT      O43114   0.568   9.313   1.494
14291WAT     H143115   0.543   9.379   1.565
14291WAT     H243116   0.522   9.226   1.513
14292WAT      O43117   0.286   3.195   0.410
14292WAT     H143118   0.308   3.264   0.341
14292WAT     H243119   0.325   3.107   0.384
14293WAT      O43120   0.381   6.623   9.156
14293WAT     H143121   0.352   6.609   9.062
14293WAT     H243122   0.304   6.609   9.218
14294WAT      O43123   7.053   5.093   4.711
14294WAT     H143124   7.125   5.037   4.673
14294WAT     H243125   6.992   5.036   4.766
14295WAT      O43126   5.144   3.959   1.949
14295WAT     H143127   5.132   3.984   1.853
14295WAT     H243128   5.064   3.906   1.979
14296WAT      O43129   0.075   5.554   2.437
14296WAT     H143130   0.136   5.544   2.516
14296WAT     H243131   0.130   5.552   2.353
14297WAT      O43132   4.235   5.059   6.460
14297WAT     H143133   4.197   4.967   6.474
14297WAT     H243134   4.257   5.070   6.363
14298WAT      O43135   6.114   8.177   1.695
14298WAT     H143136   6.032   8.224   1.726
14298WAT     H243137   6.194   8.235   1.710
14299WAT      O43138   8.273   2.175   3.901
14299WAT     H143139   8.337   2.119   3.849
14299WAT     H243140   8.318   2.211   3.982
14300WAT      O43141   8.911   2.786   8.771
14300WAT     H143142   8.987   2.789   8.705
14300WAT     H243143   8.942   2.822   8.859
14301WAT      O43144   0.537   5.901   1.894
14301WAT     H143145   0.621   5.864   1.852
14301WAT     H243146   0.528   5.867   1.987
14302WAT      O43147   9.808   8.913   5.995
14302WAT     H143148   9.874   8.927   5.922
14302WAT     H243149   9.726   8.968   5.977
14303WAT      O43150   4.529   2.257   2.940
14303WAT     H143151   4.461   2.279   2.870
14303WAT     H243152   4.551   2.339   2.992
14304WAT      O43153   4.930   3.300   1.463
14304WAT     H143154   4.897   3.390   1.434
14304WAT     H243155   4.946   3.300   1.561
14305WAT      O43156   4.596   5.478   8.636
14305WAT     H143157   4.545   5.494   8.721
14305WAT     H243158   4.551   5.406   8.583
14306WAT      O43159   5.315   4.940   1.163
14306WAT     H143160   5.385   4.995   1.208
14306WAT     H243161   5.227   4.988   1.167
14307WAT      O43162   0.465   5.585   9.878
14307WAT     H143163   0.441   5.489   9.864
14307WAT     H243164   0.486   5.601   9.975
14308WAT      O43165   3.913   2.646   9.390
14308WAT     H143166   3.847   2.618   9.320
14308WAT     H243167   3.877   2.725   9.440
14309WAT      O43168   6.064   0.589   2.606
14309WAT     H143169   6.139   0.620   2.548
14309WAT     H243170   6.012   0.518   2.558
14310WAT      O43171   7.149   4.722   9.779
14310WAT     H143172   7.214   4.714   9.703
14310WAT     H243173   7.180   4.793   9.842
14311WAT      O43174   4.275   5.311   3.448
14311WAT     H143175   4.204   5.248   3.478
14311WAT     H243176   4.235   5.382   3.391
14312WAT      O43177   8.315   4.400   7.982
14312WAT     H143178   8.309   4.342   8.063
14312WAT     H243179   8.243   4.376   7.918
14313WAT      O43180   3.178   8.077   6.152
14313WAT     H143181   3.142   8.000   6.100
14313WAT     H243182   3.234   8.043   6.227
14314WAT      O43183   7.228   6.767   2.115
14314WAT     H143184   7.317   6.788   2.156
14314WAT     H243185   7.240   6.699   2.043
14315WAT      O43186   9.289   6.638   3.471
14315WAT     H143187   9.354   6.643   3.547
14315WAT     H243188   9.335   6.600   3.391
14316WAT      O43189   7.702   6.916   2.378
14316WAT     H143190   7.626   6.942   2.319
14316WAT     H243191   7.668   6.894   2.469
14317WAT      O43192   8.610   7.874   0.396
14317WAT     H143193   8.566   7.816   0.465
14317WAT     H243194   8.704   7.843   0.381
14318WAT      O43195   8.673   9.794   4.868
14318WAT     H143196   8.662   9.881   4.915
14318WAT     H243197   8.669   9.719   4.934
14319WAT      O43198   7.143   5.656   8.239
14319WAT     H143199   7.099   5.575   8.279
14319WAT     H243200   7.142   5.731   8.305
14320WAT      O43201   8.964   0.909   6.484
14320WAT     H143202   8.896   0.933   6.553
14320WAT     H243203   9.055   0.917   6.523
14321WAT      O43204   4.108   1.741   5.655
14321WAT     H143205   4.026   1.784   5.615
14321WAT     H243206   4.108   1.757   5.754
14322WAT      O43207   5.368   7.115   4.866
14322WAT     H143208   5.468   7.121   4.863
14322WAT     H243209   5.331   7.141   4.777
14323WAT      O43210   0.789   3.218   9.048
14323WAT     H143211   0.812   3.170   9.133
14323WAT     H243212   0.690   3.212   9.033
14324WAT      O43213   8.197   4.215   5.363
14324WAT     H143214   8.259   4.258   5.298
14324WAT     H243215   8.102   4.234   5.336
14325WAT      O43216   9.423   7.893   5.304
14325WAT     H143217   9.465   7.802   5.308
14325WAT     H243218   9.377   7.904   5.215
14326WAT      O43219   4.766   7.622   5.203
14326WAT     H143220   4.768   7.694   5.133
14326WAT     H243221   4.676   7.578   5.203
14327WAT      O43222   2.835   5.395   9.463
14327WAT     H143223   2.767   5.373   9.393
14327WAT     H243224   2.809   5.353   9.550
14328WAT      O43225   3.608   3.705   6.313
14328WAT     H143226   3.572   3.657   6.233
14328WAT     H243227   3.574   3.661   6.396
14329WAT      O43228   3.192   9.298   1.507
14329WAT     H143229   3.161   9.275   1.415
14329WAT     H243230   3.193   9.397   1.519
14330WAT      O43231   9.764   6.613   6.107
14330WAT     H143232   9.821   6.643   6.184
14330WAT     H243233   9.766   6.682   6.035
14331WAT      O43234   7.707   3.242   9.303
14331WAT     H143235   7.671   3.231   9.396
14331WAT     H243236   7.800   3.208   9.300
14332WAT      O43237   2.896   6.341   6.950
14332WAT     H143238   2.876   6.284   7.030
14332WAT     H243239   2.835   6.315   6.875
14333WAT      O43240   4.837   2.546   5.619
14333WAT     H143241   4.871   2.586   5.705
14333WAT     H243242   4.797   2.457   5.637
14334WAT      O43243   8.564   8.125   3.391
14334WAT     H143244   8.660   8.128   3.363
14334WAT     H243245   8.527   8.033   3.377
14335WAT      O43246   1.149   2.166   5.764
14335WAT     H143247   1.061   2.210   5.783
14335WAT     H243248   1.135   2.085   5.707
14336WAT      O43249   4.681   2.929   0.595
14336WAT     H143250   4.636   2.905   0.681
14336WAT     H243251   4.613   2.967   0.532
14337WAT      O43252   2.436   7.594   3.989
14337WAT     H143253   2.496   7.670   4.011
14337WAT     H243254   2.435   7.579   3.890
14338WAT      O43255   9.500   5.563   2.579
14338WAT     H143256   9.586   5.566   2.629
14338WAT     H243257   9.492   5.475   2.532
14339WAT      O43258   3.472   2.273   5.223
14339WAT     H143259   3.515   2.229   5.302
14339WAT     H243260   3.476   2.212   5.144
14340WAT      O43261   3.795   6.211   4.121
14340WAT     H143262   3.859   6.252   4.186
14340WAT     H243263   3.839   6.134   4.075
14341WAT      O43264   4.366   2.628   0.639
14341WAT     H143265   4.366   2.666   0.731
14341WAT     H243266   4.334   2.698   0.574
14342WAT      O43267   0.719   6.344   1.897
14342WAT     H143268   0.667   6.350   1.982
14342WAT     H243269   0.717   6.250   1.862
14343WAT      O43270   9.873   8.756   8.578
14343WAT     H143271   9.789   8.797   8.543
14343WAT     H243272   9.917   8.703   8.505
14344WAT      O43273   4.561   7.160   9.024
14344WAT     H143274   4.582   7.250   8.986
14344WAT     H243275   4.513   7.105   8.955
14345WAT      O43276   2.614   2.918   0.475
14345WAT     H143277   2.544   2.966   0.422
14345WAT     H243278   2.692   2.898   0.416
14346WAT      O43279   2.565   6.052   4.941
14346WAT     H143280   2.606   6.142   4.926
14346WAT     H243281   2.618   5.982   4.894
14347WAT      O43282   5.968   3.545   8.370
14347WAT     H143283   5.926   3.484   8.436
14347WAT     H243284   6.048   3.589   8.411
14348WAT      O43285   1.724   0.852   3.879
14348WAT     H143286   1.767   0.912   3.812
14348WAT     H243287   1.755   0.758   3.865
14349WAT      O43288   1.217   2.551   2.844
14349WAT     H143289   1.247   2.617   2.912
14349WAT     H243290   1.215   2.594   2.754
14350WAT      O43291   5.073   8.414   2.659
14350WAT     H143292   5.164   8.450   2.639
14350WAT     H243293   5.082   8.322   2.698
14351WAT      O43294   0.948   3.980   4.731
14351WAT     H143295   0.994   4.000   4.644
14351WAT     H243296   0.914   4.065   4.772
14352WAT      O43297   2.747   4.027   8.727
14352WAT     H143298   2.842   4.043   8.754
14352WAT     H243299   2.698   4.115   8.725
14353WAT      O43300   9.194   8.940   5.004
14353WAT     H143301   9.113   8.986   5.039
14353WAT     H243302   9.274   8.969   5.056
14354WAT      O43303   1.151   2.684   2.635
14354WAT     H143304   1.092   2.628   2.576
14354WAT     H243305   1.241   2.695   2.591
14355WAT      O43306   2.825   1.854   5.495
14355WAT     H143307   2.897   1.873   5.561
14355WAT     H243308   2.830   1.758   5.467
14356WAT      O43309   4.613   3.524   4.752
14356WAT     H143310   4.536   3.505   4.691
14356WAT     H243311   4.599   3.476   4.839
14357WAT      O43312   3.943   5.516   3.950
14357WAT     H143313   3.924   5.433   3.897
14357WAT     H243314   3.892   5.512   4.036
14358WAT      O43315   8.271   2.634   9.452
14358WAT     H143316   8.211   2.579   9.394
14358WAT     H243317   8.299   2.581   9.532
14359WAT      O43318   5.391   8.088   5.969
14359WAT     H143319   5.436   8.162   5.920
14359WAT     H243320   5.310   8.059   5.919
14360WAT      O43321   2.162   4.154   4.058
14360WAT     H143322   2.222   4.110   4.124
14360WAT     H243323   2.084   4.194   4.106
14361WAT      O43324   8.756   5.001   3.842
14361WAT     H143325   8.844   5.049   3.846
14361WAT     H243326   8.708   5.027   3.758
14362WAT      O43327   1.782   4.889   3.264
14362WAT     H143328   1.761   4.919   3.171
14362WAT     H243329   1.873   4.921   3.290
14363WAT      O43330   4.488   7.659   6.862
14363WAT     H143331   4.470   7.708   6.777
14363WAT     H243332   4.587   7.654   6.877
14364WAT      O43333   4.110   3.354   9.556
14364WAT     H143334   4.060   3.306   9.484
14364WAT     H243335   4.104   3.302   9.641
14365WAT      O43336   4.509   5.822   6.280
14365WAT     H143337   4.446   5.899   6.267
14365WAT     H243338   4.474   5.763   6.353
14366WAT      O43339   1.131   3.323   4.326
14366WAT     H143340   1.109   3.350   4.420
14366WAT     H243341   1.073   3.373   4.262
14367WAT      O43342   9.586   0.942   7.825
14367WAT     H143343   9.534   0.890   7.757
14367WAT     H243344   9.530   1.019   7.857
14368WAT      O43345   6.956   7.503   6.780
14368WAT     H143346   7.002   7.532   6.864
14368WAT     H243347   6.933   7.406   6.787
14369WAT      O43348   2.299   8.910   5.079
14369WAT     H143349   2.398   8.921   5.071
14369WAT     H243350   2.254   8.956   5.002
14370WAT      O43351   6.570   6.610   1.045
14370WAT     H143352   6.598   6.544   1.114
14370WAT     H243353   6.473   6.597   1.023
14371WAT      O43354   9.884   0.539   8.784
14371WAT     H143355   9.795   0.504   8.755
14371WAT     H243356   9.940   0.464   8.820
14372WAT      O43357   0.988   9.368   2.239
14372WAT     H143358   1.041   9.324   2.166
14372WAT     H243359   0.947   9.452   2.203
14373WAT      O43360   8.605   5.154   3.203
14373WAT     H143361   8.523   5.196   3.163
14373WAT     H243362   8.685   5.180   3.149
14374WAT      O43363   1.125   4.120   3.022
14374WAT     H143364   1.029   4.146   3.032
14374WAT     H243365   1.131   4.022   3.006
14375WAT      O43366   3.236   5.550   0.024
14375WAT     H143367   3.335   5.553   0.036
14375WAT     H243368   3.194   5.509   0.105
14376WAT      O43369   8.956   4.435   7.831
14376WAT     H143370   8.986   4.522   7.869
14376WAT     H243371   8.949   4.367   7.905
14377WAT      O43372   7.551   2.339   2.469
14377WAT     H143373   7.583   2.388   2.388
14377WAT     H243374   7.617   2.268   2.494
14378WAT      O43375   5.309   6.964   2.722
14378WAT     H143376   5.321   6.867   2.699
14378WAT     H243377   5.349   6.982   2.812
14379WAT      O43378   3.556   6.772   8.946
14379WAT     H143379   3.647   6.747   8.911
14379WAT     H243380   3.503   6.689   8.964
14380WAT      O43381   3.211   1.336   9.305
14380WAT     H143382   3.233   1.293   9.217
14380WAT     H243383   3.261   1.289   9.378
14381WAT      O43384   4.162   6.851   3.687
14381WAT     H143385   4.192   6.826   3.779
14381WAT     H243386   4.099   6.929   3.693
14382WAT      O43387   3.486   3.903   8.282
14382WAT     H143388   3.576   3.882   8.242
14382WAT     H243389   3.432   3.954   8.215
14383WAT      O43390   4.389   0.058   7.076
14383WAT     H143391   4.292   0.070   7.058
14383WAT     H243392   4.435   0.147   7.073
14384WAT      O43393   6.313   0.700   5.822
14384WAT     H143394   6.294   0.765   5.896
14384WAT     H243395   6.350   0.616   5.861
14385WAT      O43396   9.232   2.255   8.166
14385WAT     H143397   9.152   2.232   8.111
14385WAT     H243398   9.242   2.190   8.240
14386WAT      O43399   3.503   6.905   1.316
14386WAT     H143400   3.526   6.810   1.337
14386WAT     H243401   3.587   6.954   1.290
14387WAT      O43402   8.409   6.448   5.173
14387WAT     H143403   8.310   6.438   5.178
14387WAT     H243404   8.452   6.398   5.248
14388WAT      O43405   7.912   3.693   9.615
14388WAT     H143406   7.995   3.745   9.592
14388WAT     H243407   7.865   3.736   9.692
14389WAT      O43408   7.885   0.674   2.468
14389WAT     H143409   7.915   0.769   2.459
14389WAT     H243410   7.960   0.612   2.444
14390WAT      O43411   7.614   5.550   9.087
14390WAT     H143412   7.687   5.484   9.071
14390WAT     H243413   7.551   5.512   9.156
14391WAT      O43414   0.933   3.460   8.664
14391WAT     H143415   1.002   3.472   8.735
14391WAT     H243416   0.842   3.478   8.703
14392WAT      O43417   9.687   6.986   1.707
14392WAT     H143418   9.785   6.997   1.689
14392WAT     H243419   9.663   6.889   1.703
14393WAT      O43420   7.290   8.842   8.388
14393WAT     H143421   7.346   8.924   8.399
14393WAT     H243422   7.247   8.843   8.298
14394WAT      O43423   0.081   2.402   5.891
14394WAT     H143424   0.104   2.454   5.809
14394WAT     H243425  -0.010   2.362   5.879
14395WAT      O43426   8.313   3.875   7.952
14395WAT     H143427   8.346   3.943   8.017
14395WAT     H243428   8.217   3.893   7.930
14396WAT      O43429   2.640   6.157   6.961
14396WAT     H143430   2.626   6.120   7.053
14396WAT     H243431   2.611   6.252   6.959
14397WAT      O43432   9.581   5.417   4.587
14397WAT     H143433   9.584   5.321   4.614
14397WAT     H243434   9.558   5.424   4.490
14398WAT      O43435   0.519   7.816   1.466
14398WAT     H143436   0.452   7.742   1.459
14398WAT     H243437   0.474   7.900   1.496
14399WAT      O43438   7.553   8.641   0.330
14399WAT     H143439   7.546   8.555   0.380
14399WAT     H243440   7.519   8.629   0.237
14400WAT      O43441   3.634   8.117   2.325
14400WAT     H143442   3.731   8.110   2.304
14400WAT     H243443   3.585   8.044   2.277
14401WAT      O43444   4.254   0.929   7.177
14401WAT     H143445   4.340   0.943   7.226
14401WAT     H243446   4.189   1.000   7.203
14402WAT      O43447   1.155   0.934   1.535
14402WAT     H143448   1.063   0.973   1.528
14402WAT     H243449   1.165   0.861   1.468
14403WAT      O43450   7.334   3.447   8.292
14403WAT     H143451   7.411   3.436   8.355
14403WAT     H243452   7.289   3.535   8.309
14404WAT      O43453   9.764   6.139   1.665
14404WAT     H143454   9.802   6.170   1.753
14404WAT     H243455   9.810   6.056   1.637
14405WAT      O43456   8.885   2.573   1.977
14405WAT     H143457   8.930   2.617   2.055
14405WAT     H243458   8.875   2.640   1.903
14406WAT      O43459   3.871   7.816   8.414
14406WAT     H143460   3.782   7.844   8.451
14406WAT     H243461   3.943   7.873   8.455
14407WAT      O43462   8.427   8.513   2.118
14407WAT     H143463   8.373   8.597   2.114
14407WAT     H243464   8.514   8.531   2.163
14408WAT      O43465   9.424   6.556   8.179
14408WAT     H143466   9.456   6.650   8.189
14408WAT     H243467   9.456   6.520   8.091
14409WAT      O43468   6.128   9.589   1.193
14409WAT     H143469   6.170   9.666   1.145
14409WAT     H243470   6.082   9.622   1.276
14410WAT      O43471   0.324   0.374   8.650
14410WAT     H143472   0.306   0.466   8.615
14410WAT     H243473   0.416   0.346   8.624
14411WAT      O43474   3.271   2.785   2.455
14411WAT     H143475   3.267   2.715   2.526
14411WAT     H243476   3.350   2.844   2.471
14412WAT      O43477   9.539   2.585   0.725
14412WAT     H143478   9.444   2.552   0.727
14412WAT     H243479   9.539   2.685   0.722
14413WAT      O43480   2.530   0.818   4.777
14413WAT     H143481   2.525   0.915   4.801
14413WAT     H243482   2.590   0.771   4.841
14414WAT      O43483   2.498   7.233   5.472
14414WAT     H143484   2.550   7.249   5.557
14414WAT     H243485   2.547   7.274   5.395
14415WAT      O43486   2.651   8.500   2.259
14415WAT     H143487   2.608   8.537   2.341
14415WAT     H243488   2.658   8.572   2.190
14416WAT      O43489   8.994   6.084   5.797
14416WAT     H143490   8.974   6.149   5.725
14416WAT     H243491   9.076   6.112   5.847
14417WAT      O43492   7.780   6.229   9.267
14417WAT     H143493   7.789   6.250   9.364
14417WAT     H243494   7.715   6.154   9.255
14418WAT      O43495   0.348   4.747   6.279
14418WAT     H143496   0.355   4.808   6.200
14418WAT     H243497   0.288   4.787   6.348
14419WAT      O43498   7.756   1.085   4.475
14419WAT     H143499   7.751   1.145   4.395
14419WAT     H243500   7.664   1.066   4.507
14420WAT      O43501   9.283   5.130   2.272
14420WAT     H143502   9.237   5.042   2.273
14420WAT     H243503   9.300   5.158   2.177
14421WAT      O43504   5.749   5.437   8.227
14421WAT     H143505   5.809   5.419   8.304
14421WAT     H243506   5.777   5.382   8.148
14422WAT      O43507   7.202   7.372   2.039
14422WAT     H143508   7.276   7.413   2.093
14422WAT     H243509   7.120   7.428   2.047
14423WAT      O43510   3.142   8.082   5.149
14423WAT     H143511   3.079   8.080   5.228
14423WAT     H243512   3.236   8.070   5.181
14424WAT      O43513   9.090   7.485   6.352
14424WAT     H143514   9.136   7.465   6.265
14424WAT     H243515   9.050   7.401   6.389
14425WAT      O43516   3.878   0.551   2.337
14425WAT     H143517   3.929   0.638   2.335
14425WAT     H243518   3.942   0.475   2.346
14426WAT      O43519   0.706   0.215   1.047
14426WAT     H143520   0.647   0.194   0.969
14426WAT     H243521   0.772   0.141   1.061
14427WAT      O43522   3.140   1.976   2.648
14427WAT     H143523   3.140   1.939   2.742
14427WAT     H243524   3.100   2.067   2.648
14428WAT      O43525   9.821   3.840   4.278
14428WAT     H143526   9.769   3.926   4.282
14428WAT     H243527   9.812   3.792   4.366
14429WAT      O43528   9.881   1.902   6.864
14429WAT     H143529   9.891   1.844   6.783
14429WAT     H243530   9.966   1.954   6.877
14430WAT      O43531   1.264   5.048   4.552
14430WAT     H143532   1.235   5.053   4.457
14430WAT     H243533   1.250   4.956   4.587
14431WAT      O43534   1.027   4.062   6.311
14431WAT     H143535   1.006   4.005   6.391
14431WAT     H243536   0.983   4.023   6.230
14432WAT      O43537   6.435   6.928   7.122
14432WAT     H143538   6.520   6.973   7.147
14432WAT     H243539   6.394   6.974   7.043
14433WAT      O43540   6.710   8.972   7.134
14433WAT     H143541   6.720   9.061   7.089
14433WAT     H243542   6.653   8.912   7.078
14434WAT      O43543   2.500   1.581   7.189
14434WAT     H143544   2.501   1.517   7.113
14434WAT     H243545   2.470   1.671   7.157
14435WAT      O43546   6.769   0.268   2.126
14435WAT     H143547   6.731   0.179   2.102
14435WAT     H243548   6.861   0.276   2.087
14436WAT      O43549   5.544   2.893   4.652
14436WAT     H143550   5.533   2.794   4.643
14436WAT     H243551   5.458   2.934   4.684
14437WAT      O43552   0.198   4.740   9.402
14437WAT     H143553   0.241   4.829   9.389
14437WAT     H243554   0.102   4.745   9.374
14438WAT      O43555   1.767   3.065   3.906
14438WAT     H143556   1.867   3.073   3.905
14438WAT     H243557   1.738   3.031   3.995
14439WAT      O43558   6.691   4.993   8.065
14439WAT     H143559   6.765   4.935   8.101
14439WAT     H243560   6.683   5.075   8.121
14440WAT      O43561   6.824   8.052   5.843
14440WAT     H143562   6.795   7.963   5.876
14440WAT     H243563   6.753   8.090   5.783
14441WAT      O43564   5.437   2.215   8.841
14441WAT     H143565   5.465   2.237   8.934
14441WAT     H243566   5.491   2.138   8.807
14442WAT      O43567   2.879   2.443   8.350
14442WAT     H143568   2.825   2.368   8.388
14442WAT     H243569   2.828   2.529   8.360
14443WAT      O43570   2.817   1.577   8.404
14443WAT     H143571   2.823   1.669   8.442
14443WAT     H243572   2.730   1.536   8.431
14444WAT      O43573   0.987   9.399   7.255
14444WAT     H143574   1.013   9.493   7.274
14444WAT     H243575   0.889   9.388   7.268
14445WAT      O43576   5.326   4.171   7.444
14445WAT     H143577   5.286   4.149   7.355
14445WAT     H243578   5.254   4.172   7.514
14446WAT      O43579   2.482   5.688   7.461
14446WAT     H143580   2.489   5.755   7.387
14446WAT     H243581   2.424   5.613   7.432
14447WAT      O43582   0.662   8.902   1.469
14447WAT     H143583   0.678   8.988   1.421
14447WAT     H243584   0.738   8.839   1.452
14448WAT      O43585   6.893   2.075   7.946
14448WAT     H143586   6.884   2.162   7.898
14448WAT     H243587   6.838   2.077   8.030
14449WAT      O43588   3.911   2.992   7.542
14449WAT     H143589   3.862   3.031   7.619
14449WAT     H243590   3.866   2.907   7.513
14450WAT      O43591   4.983   8.813   1.254
14450WAT     H143592   4.952   8.897   1.297
14450WAT     H243593   5.082   8.803   1.267
14451WAT      O43594   5.581   7.868   3.993
14451WAT     H143595   5.543   7.960   3.978
14451WAT     H243596   5.667   7.876   4.044
14452WAT      O43597   8.550   0.200   5.653
14452WAT     H143598   8.623   0.230   5.592
14452WAT     H243599   8.507   0.279   5.695
14453WAT      O43600   3.835   1.417   1.963
14453WAT     H143601   3.876   1.461   2.043
14453WAT     H243602   3.875   1.455   1.880
14454WAT      O43603   5.183   4.706   3.492
14454WAT     H143604   5.210   4.792   3.449
14454WAT     H243605   5.159   4.639   3.421
14455WAT      O43606   2.100   3.887   8.255
14455WAT     H143607   2.051   3.800   8.241
14455WAT     H243608   2.044   3.947   8.312
14456WAT      O43609   6.312   8.036   3.958
14456WAT     H143610   6.350   8.125   3.937
14456WAT     H243611   6.362   7.965   3.909
14457WAT      O43612   7.530   7.426   1.316
14457WAT     H143613   7.467   7.366   1.366
14457WAT     H243614   7.499   7.436   1.221
14458WAT      O43615   8.349   9.418   4.121
14458WAT     H143616   8.272   9.423   4.184
14458WAT     H243617   8.416   9.351   4.154
14459WAT      O43618   4.979   7.008   5.109
14459WAT     H143619   4.925   7.055   5.039
14459WAT     H243620   4.928   7.007   5.195
14460WAT      O43621   6.945   9.743   4.741
14460WAT     H143622   6.995   9.819   4.782
14460WAT     H243623   6.907   9.685   4.814
14461WAT      O43624   2.415   0.724   8.330
14461WAT     H143625   2.348   0.799   8.328
14461WAT     H243626   2.507   0.762   8.335
14462WAT      O43627   5.132   7.501   4.478
14462WAT     H143628   5.058   7.449   4.436
14462WAT     H243629   5.124   7.496   4.578
14463WAT      O43630   3.534   2.817   9.129
14463WAT     H143631   3.543   2.911   9.097
14463WAT     H243632   3.558   2.754   9.055
14464WAT      O43633   9.103   8.568   5.489
14464WAT     H143634   9.005   8.587   5.487
14464WAT     H243635   9.145   8.617   5.565
14465WAT      O43636   7.967   3.589   0.660
14465WAT     H143637   8.050   3.560   0.708
14465WAT     H243638   7.981   3.584   0.561
14466WAT      O43639   7.814   6.255   1.085
14466WAT     H143640   7.805   6.202   1.170
14466WAT     H243641   7.751   6.218   1.016
14467WAT      O43642   5.128   6.534   0.671
14467WAT     H143643   5.213   6.570   0.633
14467WAT     H243644   5.064   6.610   0.685
14468WAT      O43645   6.065   2.132   3.910
14468WAT     H143646   6.070   2.137   3.810
14468WAT     H243647   5.969   2.135   3.939
14469WAT      O43648   8.136   2.657   7.197
14469WAT     H143649   8.123   2.728   7.128
14469WAT     H243650   8.177   2.697   7.279
14470WAT      O43651   6.634   1.734   9.789
14470WAT     H143652   6.653   1.683   9.705
14470WAT     H243653   6.706   1.801   9.805
14471WAT      O43654   3.518   2.665   7.756
14471WAT     H143655   3.613   2.685   7.777
14471WAT     H243656   3.490   2.581   7.801
14472WAT      O43657   7.734   5.933   6.799
14472WAT     H143658   7.777   5.868   6.736
14472WAT     H243659   7.635   5.926   6.790
14473WAT      O43660   7.447   8.151   0.801
14473WAT     H143661   7.524   8.173   0.740
14473WAT     H243662   7.444   8.217   0.876
14474WAT      O43663   6.992   2.935   7.621
14474WAT     H143664   7.041   2.851   7.640
14474WAT     H243665   6.906   2.936   7.674
14475WAT      O43666   8.992   0.139   6.502
14475WAT     H143667   8.923   0.079   6.463
14475WAT     H243668   8.985   0.230   6.463
14476WAT      O43669   8.237   9.756   6.135
14476WAT     H143670   8.176   9.686   6.171
14476WAT     H243671   8.276   9.725   6.048
14477WAT      O43672   0.844   9.576   2.159
14477WAT     H143673   0.889   9.656   2.198
14477WAT     H243674   0.780   9.538   2.226
14478WAT      O43675   0.871   3.715   7.245
14478WAT     H143676   0.872   3.616   7.260
14478WAT     H243677   0.856   3.735   7.148
14479WAT      O43678   9.260   1.326   7.308
14479WAT     H143679   9.231   1.236   7.275
14479WAT     H243680   9.352   1.319   7.347
14480WAT      O43681   7.950   3.285   4.379
14480WAT     H143682   7.852   3.288   4.401
14480WAT     H243683   7.968   3.341   4.298
14481WAT      O43684   6.474   4.990   3.356
14481WAT     H143685   6.385   5.031   3.335
14481WAT     H243686   6.523   5.048   3.421
14482WAT      O43687   7.831   1.029   8.673
14482WAT     H143688   7.917   0.977   8.670
14482WAT     H243689   7.772   1.001   8.597
14483WAT      O43690   9.402   1.086   3.302
14483WAT     H143691   9.365   1.038   3.223
14483WAT     H243692   9.452   1.167   3.272
14484WAT      O43693   7.938   2.060   6.541
14484WAT     H143694   8.028   2.103   6.538
14484WAT     H243695   7.886   2.084   6.460
14485WAT      O43696   7.280   4.226   7.001
14485WAT     H143697   7.213   4.152   7.008
14485WAT     H243698   7.275   4.267   6.910
14486WAT      O43699   0.642   0.370   4.183
14486WAT     H143700   0.614   0.275   4.169
14486WAT     H243701   0.708   0.375   4.257
14487WAT      O43702   3.825   2.095   0.365
14487WAT     H143703   3.844   2.179   0.416
14487WAT     H243704   3.742   2.106   0.311
14488WAT      O43705   0.239   4.164   3.971
14488WAT     H143706   0.319   4.141   4.026
14488WAT     H243707   0.162   4.107   4.000
14489WAT      O43708   5.494   1.736   4.000
14489WAT     H143709   5.464   1.811   4.059
14489WAT     H243710   5.589   1.752   3.972
14490WAT      O43711   0.483   5.846   0.490
14490WAT     H143712   0.577   5.827   0.462
14490WAT     H243713   0.429   5.875   0.411
14491WAT      O43714   5.071   4.854   6.437
14491WAT     H143715   5.029   4.940   6.468
14491WAT     H243716   5.152   4.834   6.493
14492WAT      O43717   4.032   2.978   6.282
14492WAT     H143718   3.954   2.960   6.223
14492WAT     H243719   4.117   2.964   6.231
14493WAT      O43720   0.800   8.151   6.616
14493WAT     H143721   0.702   8.163   6.602
14493WAT     H243722   0.823   8.054   6.615
14494WAT      O43723   7.096   1.382   2.934
14494WAT     H143724   7.003   1.371   2.898
14494WAT     H243725   7.101   1.344   3.026
14495WAT      O43726   2.169   6.983   3.616
14495WAT     H143727   2.106   6.923   3.567
14495WAT     H243728   2.125   7.072   3.631
14496WAT      O43729   2.085   9.675   6.787
14496WAT     H143730   2.124   9.600   6.841
14496WAT     H243731   2.007   9.713   6.837
14497WAT      O43732   0.834   4.046   7.551
14497WAT     H143733   0.768   4.102   7.501
14497WAT     H243734   0.923   4.090   7.549
14498WAT      O43735   9.379   0.773   4.675
14498WAT     H143736   9.284   0.800   4.658
14498WAT     H243737   9.383   0.674   4.689
14499WAT      O43738   1.242   3.932   1.643
14499WAT     H143739   1.339   3.930   1.666
14499WAT     H243740   1.232   3.960   1.547
14500WAT      O43741   7.198   7.055   8.109
14500WAT     H143742   7.276   7.054   8.171
14500WAT     H243743   7.208   6.983   8.040
14501WAT      O43744   7.990   1.293   6.017
14501WAT     H143745   8.007   1.268   6.112
14501WAT     H243746   8.011   1.390   6.004
14502WAT      O43747   1.353   5.794   0.518
14502WAT     H143748   1.407   5.795   0.434
14502WAT     H243749   1.263   5.753   0.500
14503WAT      O43750   2.426   7.001   8.388
14503WAT     H143751   2.504   6.940   8.374
14503WAT     H243752   2.413   7.058   8.307
14504WAT      O43753   0.714   9.282   5.890
14504WAT     H143754   0.804   9.278   5.847
14504WAT     H243755   0.724   9.311   5.985
14505WAT      O43756   3.723   3.101   1.254
14505WAT     H143757   3.820   3.116   1.235
14505WAT     H243758   3.694   3.014   1.215
14506WAT      O43759   4.589   8.142   3.483
14506WAT     H143760   4.664   8.076   3.476
14506WAT     H243761   4.603   8.216   3.416
14507WAT      O43762   8.814   1.703   7.637
14507WAT     H143763   8.905   1.736   7.615
14507WAT     H243764   8.771   1.765   7.703
14508WAT      O43765   2.214   8.967   1.528
14508WAT     H143766   2.245   9.053   1.487
14508WAT     H243767   2.171   8.911   1.458
14509WAT      O43768   1.092   5.441   3.241
14509WAT     H143769   1.157   5.512   3.212
14509WAT     H243770   1.139   5.353   3.244
14510WAT      O43771   1.008   2.446   6.018
14510WAT     H143772   0.995   2.545   6.014
14510WAT     H243773   0.979   2.404   5.932
14511WAT      O43774   5.208   3.837   1.287
14511WAT     H143775   5.169   3.899   1.355
14511WAT     H243776   5.187   3.871   1.195
14512WAT      O43777   2.854   0.380   1.834
14512WAT     H143778   2.768   0.340   1.803
14512WAT     H243779   2.889   0.329   1.912
14513WAT      O43780   2.574   7.943   5.970
14513WAT     H143781   2.487   7.966   6.014
14513WAT     H243782   2.632   8.025   5.967
14514WAT      O43783   1.936   8.690   4.730
14514WAT     H143784   1.972   8.782   4.715
14514WAT     H243785   1.988   8.625   4.674
14515WAT      O43786   6.838   3.253   6.885
14515WAT     H143787   6.872   3.162   6.861
14515WAT     H243788   6.911   3.320   6.873
14516WAT      O43789   5.513   0.309   6.333
14516WAT     H143790   5.557   0.398   6.324
14516WAT     H243791   5.532   0.254   6.251
14517WAT      O43792   2.459   6.524   4.940
14517WAT     H143793   2.376   6.470   4.930
14517WAT     H243794   2.444   6.596   5.007
14518WAT      O43795   5.743   8.393   7.175
14518WAT     H143796   5.790   8.436   7.252
14518WAT     H243797   5.692   8.313   7.206
14519WAT      O43798   1.659   1.534   1.027
14519WAT     H143799   1.666   1.632   1.046
14519WAT     H243800   1.565   1.504   1.042
14520WAT      O43801   8.088   2.336   9.531
14520WAT     H143802   8.064   2.363   9.438
14520WAT     H243803   8.005   2.310   9.580
14521WAT      O43804   3.877   5.126   5.971
14521WAT     H143805   3.862   5.027   5.976
14521WAT     H243806   3.967   5.148   6.009
14522WAT      O43807   3.002   0.038   7.507
14522WAT     H143808   2.974  -0.057   7.517
14522WAT     H243809   3.088   0.052   7.557
14523WAT      O43810   7.813   5.232   0.316
14523WAT     H143811   7.800   5.135   0.298
14523WAT     H243812   7.727   5.271   0.349
14524WAT      O43813   4.678   7.296   8.062
14524WAT     H143814   4.625   7.372   8.024
14524WAT     H243815   4.760   7.281   8.006
14525WAT      O43816   8.162   3.738   4.815
14525WAT     H143817   8.160   3.676   4.737
14525WAT     H243818   8.141   3.688   4.898
14526WAT      O43819   5.767   2.036   1.105
14526WAT     H143820   5.773   1.953   1.161
14526WAT     H243821   5.671   2.058   1.088
14527WAT      O43822   6.615   0.784   5.354
14527WAT     H143823   6.568   0.832   5.428
14527WAT     H243824   6.654   0.852   5.291
14528WAT      O43825   2.269   1.971   5.687
14528WAT     H143826   2.300   1.943   5.597
14528WAT     H243827   2.283   2.069   5.698
14529WAT      O43828   2.443   5.003   6.669
14529WAT     H143829   2.397   5.027   6.754
14529WAT     H243830   2.429   5.076   6.602
14530WAT      O43831   1.455   0.907   6.862
14530WAT     H143832   1.428   0.994   6.821
14530WAT     H243833   1.549   0.885   6.837
14531WAT      O43834   1.448   8.140   9.065
14531WAT     H143835   1.500   8.056   9.085
14531WAT     H243836   1.354   8.129   9.095
14532WAT      O43837   3.118   0.497   6.185
14532WAT     H143838   3.019   0.480   6.187
14532WAT     H243839   3.137   0.588   6.221
14533WAT      O43840   7.099   1.408   0.693
14533WAT     H143841   7.096   1.398   0.593
14533WAT     H243842   7.049   1.333   0.735
14534WAT      O43843   1.162   5.267   4.403
14534WAT     H143844   1.167   5.188   4.342
14534WAT     H243845   1.072   5.311   4.393
14535WAT      O43846   3.209   7.264   8.763
14535WAT     H143847   3.179   7.225   8.850
14535WAT     H243848   3.164   7.352   8.749
14536WAT      O43849   2.206   8.584   9.818
14536WAT     H143850   2.271   8.529   9.765
14536WAT     H243851   2.152   8.523   9.876
14537WAT      O43852   7.913   5.052   0.555
14537WAT     H143853   7.866   5.136   0.526
14537WAT     H243854   7.952   5.064   0.646
14538WAT      O43855   6.989   1.047   5.952
14538WAT     H143856   6.926   1.076   5.879
14538WAT     H243857   7.033   0.961   5.924
14539WAT      O43858   7.478   6.421   4.919
14539WAT     H143859   7.474   6.521   4.911
14539WAT     H243860   7.508   6.396   5.011
14540WAT      O43861   7.775   1.325   2.773
14540WAT     H143862   7.795   1.234   2.737
14540WAT     H243863   7.702   1.367   2.720
14541WAT      O43864   2.399   7.740   5.913
14541WAT     H143865   2.402   7.647   5.947
14541WAT     H243866   2.481   7.790   5.942
14542WAT      O43867   9.422   5.720   4.424
14542WAT     H143868   9.442   5.754   4.332
14542WAT     H243869   9.507   5.716   4.477
14543WAT      O43870   3.205   0.204   6.773
14543WAT     H143871   3.214   0.174   6.678
14543WAT     H243872   3.265   0.148   6.831
14544WAT      O43873   1.495   4.484   5.060
14544WAT     H143874   1.420   4.547   5.081
14544WAT     H243875   1.505   4.419   5.135
14545WAT      O43876   8.043   2.148   2.516
14545WAT     H143877   8.097   2.108   2.590
14545WAT     H243878   8.088   2.130   2.429
14546WAT      O43879   8.240   5.405   5.538
14546WAT     H143880   8.337   5.409   5.563
14546WAT     H243881   8.194   5.487   5.571
14547WAT      O43882   7.824   6.109   9.812
14547WAT     H143883   7.777   6.028   9.777
14547WAT     H243884   7.822   6.108   9.912
14548WAT      O43885   6.079   0.324   1.540
14548WAT     H143886   6.136   0.384   1.595
14548WAT     H243887   5.995   0.302   1.590
14549WAT      O43888   3.178   9.096   9.149
14549WAT     H143889   3.080   9.114   9.146
14549WAT     H243890   3.224   9.155   9.083
14550WAT      O43891   8.119   0.509   5.743
14550WAT     H143892   8.192   0.505   5.674
14550WAT     H243893   8.036   0.467   5.706
14551WAT      O43894   9.696   6.609   3.353
14551WAT     H143895   9.654   6.540   3.412
14551WAT     H243896   9.742   6.563   3.277
14552WAT      O43897   3.171   7.414   5.471
14552WAT     H143898   3.262   7.452   5.453
14552WAT     H243899   3.175   7.314   5.469
14553WAT      O43900   3.782   1.506   6.911
14553WAT     H143901   3.706   1.536   6.854
14553WAT     H243902   3.813   1.582   6.969
14554WAT      O43903   3.226   6.611   6.877
14554WAT     H143904   3.146   6.670   6.886
14554WAT     H243905   3.285   6.646   6.804
14555WAT      O43906   0.742   4.791   6.044
14555WAT     H143907   0.750   4.837   6.132
14555WAT     H243908   0.727   4.858   5.972
14556WAT      O43909   2.822   7.853   9.752
14556WAT     H143910   2.759   7.830   9.678
14556WAT     H243911   2.882   7.775   9.769
14557WAT      O43912   9.275   5.326   7.365
14557WAT     H143913   9.328   5.265   7.306
14557WAT     H243914   9.287   5.420   7.333
14558WAT      O43915   4.675   2.220   7.064
14558WAT     H143916   4.592   2.216   7.008
14558WAT     H243917   4.754   2.190   7.010
14559WAT      O43918   8.436   6.096   1.610
14559WAT     H143919   8.426   6.073   1.513
14559WAT     H243920   8.346   6.100   1.653
14560WAT      O43921   7.643   6.363   6.645
14560WAT     H143922   7.582   6.287   6.627
14560WAT     H243923   7.604   6.447   6.607
14561WAT      O43924   0.286   1.073   8.534
14561WAT     H143925   0.327   1.101   8.620
14561WAT     H243926   0.335   0.994   8.497
14562WAT      O43927   3.808   5.170   6.718
14562WAT     H143928   3.740   5.129   6.658
14562WAT     H243929   3.893   5.186   6.667
14563WAT      O43930   8.083   9.545   9.417
14563WAT     H143931   8.146   9.562   9.341
14563WAT     H243932   8.135   9.523   9.500
14564WAT      O43933   1.737   5.656   9.119
14564WAT     H143934   1.658   5.718   9.125
14564WAT     H243935   1.800   5.677   9.194
14565WAT      O43936   4.417   2.519   8.444
14565WAT     H143937   4.483   2.584   8.483
14565WAT     H243938   4.360   2.481   8.516
14566WAT      O43939   7.982   2.435   2.571
14566WAT     H143940   8.032   2.350   2.553
14566WAT     H243941   7.906   2.417   2.633
14567WAT      O43942   3.377   6.870   5.285
14567WAT     H143943   3.287   6.908   5.261
14567WAT     H243944   3.448   6.918   5.235
14568WAT      O43945   5.915   9.747   5.385
14568WAT     H143946   5.998   9.803   5.381
14568WAT     H243947   5.900   9.703   5.296
14569WAT      O43948   2.574   8.952   5.128
14569WAT     H143949   2.631   8.878   5.164
14569WAT     H243950   2.539   9.007   5.203
14570WAT      O43951   7.062   6.808   0.834
14570WAT     H143952   7.025   6.800   0.741
14570WAT     H243953   7.000   6.763   0.898
14571WAT      O43954   9.852   3.075   4.788
14571WAT     H143955   9.912   3.010   4.834
14571WAT     H243956   9.758   3.042   4.792
14572WAT      O43957   9.434   7.256   4.971
14572WAT     H143958   9.528   7.250   4.938
14572WAT     H243959   9.371   7.237   4.896
14573WAT      O43960   6.940   5.994   2.248
14573WAT     H143961   6.949   5.951   2.159
14573WAT     H243962   6.859   6.053   2.249
14574WAT      O43963   2.921   6.803   3.508
14574WAT     H143964   2.963   6.852   3.586
14574WAT     H243965   2.984   6.805   3.431
14575WAT      O43966   7.749   6.386   2.095
14575WAT     H143967   7.782   6.292   2.086
14575WAT     H243968   7.826   6.449   2.093
14576WAT      O43969   2.312   3.988   4.898
14576WAT     H143970   2.353   4.034   4.976
14576WAT     H243971   2.221   3.955   4.922
14577WAT      O43972   5.935   3.368   9.876
14577WAT     H143973   5.950   3.382   9.974
14577WAT     H243974   5.838   3.352   9.859
14578WAT      O43975   2.037   5.493   2.956
14578WAT     H143976   2.023   5.586   2.988
14578WAT     H243977   1.998   5.482   2.864
14579WAT      O43978   6.647   8.464   6.758
14579WAT     H143979   6.601   8.496   6.841
14579WAT     H243980   6.611   8.514   6.679
14580WAT      O43981   8.420   0.609   8.554
14580WAT     H143982   8.410   0.538   8.484
14580WAT     H243983   8.356   0.590   8.629
14581WAT      O43984   3.234   4.427   0.862
14581WAT     H143985   3.291   4.452   0.941
14581WAT     H243986   3.277   4.461   0.778
14582WAT      O43987   7.419   0.249   7.744
14582WAT     H143988   7.370   0.220   7.827
14582WAT     H243989   7.388   0.340   7.718
14583WAT      O43990   8.489   1.050   6.906
14583WAT     H143991   8.506   1.132   6.961
14583WAT     H243992   8.511   1.069   6.811
14584WAT      O43993   9.186   1.541   4.521
14584WAT     H143994   9.150   1.543   4.427
14584WAT     H243995   9.234   1.626   4.540
14585WAT      O43996   4.303   3.844   7.146
14585WAT     H143997   4.304   3.771   7.215
14585WAT     H243998   4.358   3.921   7.178
14586WAT      O43999   7.578   9.836   0.123
14586WAT     H144000   7.598   9.781   0.042
14586WAT     H244001   7.552   9.776   0.198
14587WAT      O44002   3.096   4.636   0.975
14587WAT     H144003   3.148   4.559   0.937
14587WAT     H244004   3.134   4.722   0.940
14588WAT      O44005   8.294   2.199   9.634
14588WAT     H144006   8.253   2.138   9.703
14588WAT     H244007   8.222   2.247   9.585
14589WAT      O44008   9.697   4.492   3.321
14589WAT     H144009   9.730   4.398   3.330
14589WAT     H244010   9.752   4.553   3.378
14590WAT      O44011   3.188   1.350   3.389
14590WAT     H144012   3.122   1.376   3.319
14590WAT     H244013   3.229   1.432   3.428
14591WAT      O44014   6.371   3.028   9.387
14591WAT     H144015   6.444   3.061   9.446
14591WAT     H244016   6.287   3.015   9.440
14592WAT      O44017   8.030   4.775   4.766
14592WAT     H144018   8.087   4.723   4.830
14592WAT     H244019   7.934   4.769   4.795
14593WAT      O44020   5.481   7.259   4.433
14593WAT     H144021   5.573   7.275   4.471
14593WAT     H244022   5.450   7.340   4.384
14594WAT      O44023   9.427   0.501   2.706
14594WAT     H144024   9.334   0.507   2.669
14594WAT     H244025   9.471   0.417   2.674
14595WAT      O44026   0.238   7.782   9.081
14595WAT     H144027   0.222   7.794   8.983
14595WAT     H244028   0.156   7.808   9.131
14596WAT      O44029   7.573   4.780   5.252
14596WAT     H144030   7.540   4.706   5.194
14596WAT     H244031   7.497   4.843   5.271
14597WAT      O44032   1.871   7.377   5.219
14597WAT     H144033   1.867   7.319   5.137
14597WAT     H244034   1.813   7.339   5.290
14598WAT      O44035   1.847   0.573   8.976
14598WAT     H144036   1.902   0.499   9.014
14598WAT     H244037   1.882   0.661   9.007
14599WAT      O44038   9.188   0.233   9.863
14599WAT     H144039   9.234   0.313   9.823
14599WAT     H244040   9.204   0.233   9.962
14600WAT      O44041   4.579   5.189   1.172
14600WAT     H144042   4.587   5.251   1.250
14600WAT     H244043   4.668   5.177   1.129
14601WAT      O44044   9.150   1.168   2.515
14601WAT     H144045   9.130   1.264   2.531
14601WAT     H244046   9.207   1.159   2.434
14602WAT      O44047   3.876   9.469   0.140
14602WAT     H144048   3.920   9.433   0.223
14602WAT     H244049   3.779   9.486   0.158
14603WAT      O44050   2.889   8.802   6.700
14603WAT     H144051   2.959   8.731   6.714
14603WAT     H244052   2.892   8.832   6.604
14604WAT      O44053   0.754   3.765   5.906
14604WAT     H144054   0.738   3.818   5.823
14604WAT     H244055   0.681   3.783   5.972
14605WAT      O44056   5.991   3.485   9.522
14605WAT     H144057   6.047   3.514   9.599
14605WAT     H244058   5.898   3.521   9.533
14606WAT      O44059   1.914   3.154   1.658
14606WAT     H144060   2.008   3.189   1.656
14606WAT     H244061   1.851   3.228   1.683
14607WAT      O44062   2.785   6.938   7.619
14607WAT     H144063   2.832   6.953   7.532
14607WAT     H244064   2.809   7.011   7.683
14608WAT      O44065   1.554   5.101   9.425
14608WAT     H144066   1.540   5.069   9.519
14608WAT     H244067   1.609   5.185   9.426
14609WAT      O44068   1.643   4.379   2.323
14609WAT     H144069   1.546   4.359   2.311
14609WAT     H244070   1.687   4.385   2.233
14610WAT      O44071   4.518   2.494   2.106
14610WAT     H144072   4.430   2.506   2.060
14610WAT     H244073   4.571   2.424   2.059
14611WAT      O44074   1.567   5.112   4.879
14611WAT     H144075   1.537   5.032   4.932
14611WAT     H244076   1.562   5.090   4.781
14612WAT      O44077   2.094   2.215   4.691
14612WAT     H144078   2.173   2.168   4.654
14612WAT     H244079   2.103   2.223   4.791
14613WAT      O44080   4.587   0.177   4.258
14613WAT     H144081   4.644   0.097   4.238
14613WAT     H244082   4.644   0.249   4.297
14614WAT      O44083   0.767   3.022   8.054
14614WAT     H144084   0.782   3.035   7.956
14614WAT     H244085   0.849   3.048   8.104
14615WAT      O44086   4.791   8.833   1.058
14615WAT     H144087   4.735   8.750   1.056
14615WAT     H244088   4.869   8.818   1.119
14616WAT      O44089   5.895   0.896   5.567
14616WAT     H144090   5.942   0.810   5.547
14616WAT     H244091   5.799   0.876   5.590
14617WAT      O44092   4.313   2.801   9.326
14617WAT     H144093   4.305   2.886   9.274
14617WAT     H244094   4.267   2.727   9.276
14618WAT      O44095   9.607   3.623   8.958
14618WAT     H144096   9.531   3.557   8.954
14618WAT     H244097   9.588   3.698   8.894
14619WAT      O44098   3.090   4.406   7.082
14619WAT     H144099   3.126   4.328   7.031
14619WAT     H244100   3.152   4.484   7.070
14620WAT      O44101   4.981   3.499   9.658
14620WAT     H144102   4.957   3.592   9.688
14620WAT     H244103   4.906   3.462   9.603
14621WAT      O44104   2.445   3.837   4.129
14621WAT     H144105   2.368   3.790   4.085
14621WAT     H244106   2.420   3.932   4.149
14622WAT      O44107   2.464   4.781   2.345
14622WAT     H144108   2.470   4.819   2.252
14622WAT     H244109   2.433   4.686   2.339
14623WAT      O44110   5.477   1.782   7.801
14623WAT     H144111   5.456   1.756   7.707
14623WAT     H244112   5.568   1.822   7.806
14624WAT      O44113   6.325   9.292   1.806
14624WAT     H144114   6.343   9.283   1.708
14624WAT     H244115   6.247   9.353   1.820
14625WAT      O44116   9.584   9.167   3.010
14625WAT     H144117   9.496   9.204   2.980
14625WAT     H244118   9.629   9.234   3.070
14626WAT      O44119   0.171   7.998   9.479
14626WAT     H144120   0.210   7.973   9.568
14626WAT     H244121   0.071   8.000   9.486
14627WAT      O44122   2.105   2.767   5.342
14627WAT     H144123   2.158   2.713   5.407
14627WAT     H244124   2.021   2.799   5.385
14628WAT      O44125   3.465   8.917   0.687
14628WAT     H144126   3.562   8.921   0.708
14628WAT     H244127   3.436   8.821   0.678
14629WAT      O44128   2.717   3.105   5.791
14629WAT     H144129   2.800   3.077   5.744
14629WAT     H244130   2.728   3.090   5.890
14630WAT      O44131   9.296   8.789   9.089
14630WAT     H144132   9.260   8.868   9.140
14630WAT     H244133   9.233   8.712   9.097
14631WAT      O44134   4.580   0.768   2.945
14631WAT     H144135   4.569   0.756   2.846
14631WAT     H244136   4.491   0.788   2.986
14632WAT      O44137   2.880   3.327   2.632
14632WAT     H144138   2.863   3.410   2.578
14632WAT     H244139   2.963   3.282   2.599
14633WAT      O44140   3.932   1.872   0.238
14633WAT     H144141   3.951   1.882   0.141
14633WAT     H244142   3.905   1.961   0.276
14634WAT      O44143   2.059   4.991   1.115
14634WAT     H144144   1.995   5.068   1.111
14634WAT     H244145   2.042   4.937   1.197
14635WAT      O44146   7.806   6.059   4.757
14635WAT     H144147   7.790   6.001   4.837
14635WAT     H244148   7.874   6.129   4.779
14636WAT      O44149   1.766   7.390   3.021
14636WAT     H144150   1.777   7.418   3.116
14636WAT     H244151   1.855   7.372   2.981
14637WAT      O44152   0.467   3.557   9.858
14637WAT     H144153   0.550   3.520   9.902
14637WAT     H244154   0.456   3.513   9.768
14638WAT      O44155   4.799   0.328   7.204
14638WAT     H144156   4.863   0.393   7.162
14638WAT     H244157   4.838   0.236   7.200
14639WAT      O44158   9.106   5.489   3.773
14639WAT     H144159   9.147   5.552   3.839
14639WAT     H244160   9.007   5.497   3.777
14640WAT      O44161   3.361   4.022   5.587
14640WAT     H144162   3.395   4.016   5.494
14640WAT     H244163   3.288   3.955   5.601
14641WAT      O44164   2.770   2.342   9.337
14641WAT     H144165   2.863   2.317   9.364
14641WAT     H244166   2.768   2.363   9.239
14642WAT      O44167   8.443   6.859   9.473
14642WAT     H144168   8.474   6.772   9.511
14642WAT     H244169   8.390   6.909   9.541
14643WAT      O44170   5.281   3.553   9.847
14643WAT     H144171   5.286   3.560   9.946
14643WAT     H244172   5.220   3.478   9.821
14644WAT      O44173   5.814   5.859   6.242
14644WAT     H144174   5.889   5.817   6.190
14644WAT     H244175   5.748   5.789   6.266
14645WAT      O44176   7.138   7.010   5.351
14645WAT     H144177   7.158   6.912   5.347
14645WAT     H244178   7.099   7.040   5.264
14646WAT      O44179   9.688   8.688   5.455
14646WAT     H144180   9.757   8.759   5.441
14646WAT     H244181   9.665   8.681   5.552
14647WAT      O44182   6.277   4.340   1.957
14647WAT     H144183   6.317   4.250   1.977
14647WAT     H244184   6.177   4.331   1.954
14648WAT      O44185   5.196   3.541   7.896
14648WAT     H144186   5.108   3.549   7.944
14648WAT     H244187   5.270   3.569   7.957
14649WAT      O44188   0.749   1.410   4.175
14649WAT     H144189   0.695   1.491   4.198
14649WAT     H244190   0.840   1.439   4.142
14650WAT      O44191   8.860   9.628   8.188
14650WAT     H144192   8.813   9.671   8.265
14650WAT     H244193   8.793   9.599   8.120
14651WAT      O44194   1.641   5.856   5.633
14651WAT     H144195   1.584   5.882   5.555
14651WAT     H244196   1.723   5.912   5.635
14652WAT      O44197   0.562   7.863   3.416
14652WAT     H144198   0.471   7.894   3.443
14652WAT     H244199   0.628   7.886   3.488
14653WAT      O44200   1.119   7.530   9.681
14653WAT     H144201   1.115   7.438   9.720
14653WAT     H244202   1.147   7.595   9.751
14654WAT      O44203   0.212   2.327   5.120
14654WAT     H144204   0.140   2.324   5.190
14654WAT     H244205   0.297   2.293   5.159
14655WAT      O44206   5.402   2.362   3.082
14655WAT     H144207   5.428   2.418   3.003
14655WAT     H244208   5.453   2.392   3.162
14656WAT      O44209   0.931   2.877   8.627
14656WAT     H144210   0.874   2.914   8.554
14656WAT     H244211   0.891   2.791   8.659
14657WAT      O44212   2.911   2.303   5.730
14657WAT     H144213   2.825   2.263   5.698
14657WAT     H244214   2.952   2.357   5.657
14658WAT      O44215   6.333   4.528   2.937
14658WAT     H144216   6.241   4.555   2.908
14658WAT     H244217   6.348   4.432   2.914
14659WAT      O44218   3.515   4.005   6.509
14659WAT     H144219   3.508   4.071   6.584
14659WAT     H244220   3.546   4.053   6.427
14660WAT      O44221   2.931   2.364   6.784
14660WAT     H144222   3.014   2.414   6.760
14660WAT     H244223   2.920   2.365   6.884
14661WAT      O44224   3.946   3.317   5.930
14661WAT     H144225   3.944   3.317   6.030
14661WAT     H244226   3.953   3.223   5.897
14662WAT      O44227   2.186   6.532   3.714
14662WAT     H144228   2.275   6.527   3.668
14662WAT     H244229   2.120   6.475   3.665
14663WAT      O44230   4.403   1.473   9.033
14663WAT     H144231   4.378   1.465   9.129
14663WAT     H244232   4.419   1.570   9.011
14664WAT      O44233   7.136   6.206   0.833
14664WAT     H144234   7.134   6.306   0.826
14664WAT     H244235   7.050   6.174   0.873
14665WAT      O44236   9.720   9.359   7.863
14665WAT     H144237   9.647   9.317   7.917
14665WAT     H244238   9.748   9.445   7.906
14666WAT      O44239   1.498   9.184   3.773
14666WAT     H144240   1.502   9.094   3.817
14666WAT     H244241   1.403   9.204   3.747
14667WAT      O44242   2.041   1.219   3.532
14667WAT     H144243   2.088   1.155   3.469
14667WAT     H244244   2.047   1.312   3.495
14668WAT      O44245   1.188   5.206   2.182
14668WAT     H144246   1.258   5.260   2.229
14668WAT     H244247   1.098   5.227   2.220
14669WAT      O44248   1.811   1.408   0.122
14669WAT     H144249   1.905   1.376   0.110
14669WAT     H244250   1.810   1.483   0.188
14670WAT      O44251   1.927   5.915   6.559
14670WAT     H144252   1.978   6.000   6.547
14670WAT     H244253   1.949   5.875   6.648
14671WAT      O44254   5.817   4.998   1.830
14671WAT     H144255   5.859   4.909   1.847
14671WAT     H244256   5.769   4.996   1.742
14672WAT      O44257   9.324   5.787   4.955
14672WAT     H144258   9.290   5.707   4.907
14672WAT     H244259   9.312   5.868   4.897
14673WAT      O44260   4.866   9.410   1.944
14673WAT     H144261   4.778   9.438   1.906
14673WAT     H244262   4.915   9.356   1.876
14674WAT      O44263   5.848   9.606   6.159
14674WAT     H144264   5.893   9.696   6.158
14674WAT     H244265   5.844   9.572   6.253
14675WAT      O44266   9.141   9.621   5.387
14675WAT     H144267   9.057   9.590   5.433
14675WAT     H244268   9.216   9.624   5.454
14676WAT      O44269   6.299   9.000   0.262
14676WAT     H144270   6.356   8.925   0.230
14676WAT     H244271   6.326   9.025   0.355
14677WAT      O44272   5.037   4.390   6.714
14677WAT     H144273   4.985   4.307   6.732
14677WAT     H244274   5.135   4.369   6.715
14678WAT      O44275   1.089   6.468   4.423
14678WAT     H144276   1.097   6.529   4.502
14678WAT     H244277   1.002   6.419   4.429
14679WAT      O44278   1.460   1.040   4.917
14679WAT     H144279   1.510   1.127   4.921
14679WAT     H244280   1.524   0.965   4.900
14680WAT      O44281   3.576   7.659   5.007
14680WAT     H144282   3.492   7.688   5.054
14680WAT     H244283   3.630   7.739   4.982
14681WAT      O44284   7.963   1.350   7.575
14681WAT     H144285   8.039   1.333   7.512
14681WAT     H244286   7.993   1.331   7.668
14682WAT      O44287   5.267   2.477   8.365
14682WAT     H144288   5.206   2.510   8.292
14682WAT     H244289   5.251   2.379   8.379
14683WAT      O44290   2.649   0.268   4.030
14683WAT     H144291   2.549   0.269   4.040
14683WAT     H244292   2.691   0.312   4.109
14684WAT      O44293   0.191   9.293   4.833
14684WAT     H144294   0.092   9.275   4.838
14684WAT     H244295   0.240   9.206   4.825
14685WAT      O44296   3.657   1.364   6.257
14685WAT     H144297   3.623   1.329   6.345
14685WAT     H244298   3.757   1.363   6.258
14686WAT      O44299   3.449   9.215   3.702
14686WAT     H144300   3.377   9.255   3.646
14686WAT     H244301   3.530   9.274   3.700
14687WAT      O44302   4.274   8.953   0.292
14687WAT     H144303   4.242   8.864   0.260
14687WAT     H244304   4.364   8.942   0.336
14688WAT      O44305   5.054   2.585   8.509
14688WAT     H144306   5.136   2.551   8.463
14688WAT     H244307   5.078   2.660   8.570
14689WAT      O44308   1.797   3.413   8.942
14689WAT     H144309   1.854   3.470   8.882
14689WAT     H244310   1.837   3.322   8.950
14690WAT      O44311   5.354   4.037   3.698
14690WAT     H144312   5.305   4.109   3.746
14690WAT     H244313   5.289   3.973   3.657
14691WAT      O44314   4.437   7.221   9.536
14691WAT     H144315   4.406   7.128   9.516
14691WAT     H244316   4.446   7.272   9.450
14692WAT      O44317   8.562   5.905   0.526
14692WAT     H144318   8.491   5.974   0.540
14692WAT     H244319   8.560   5.840   0.601
14693WAT      O44320   7.795   8.634   6.985
14693WAT     H144321   7.856   8.578   6.930
14693WAT     H244322   7.700   8.603   6.973
14694WAT      O44323   0.789   8.183   9.843
14694WAT     H144324   0.838   8.101   9.814
14694WAT     H244325   0.700   8.186   9.798
14695WAT      O44326   4.573   1.589   6.559
14695WAT     H144327   4.601   1.494   6.574
14695WAT     H244328   4.586   1.613   6.463
14696WAT      O44329   7.832   8.335   3.769
14696WAT     H144330   7.814   8.360   3.864
14696WAT     H244331   7.830   8.418   3.713
14697WAT      O44332   7.660   8.996   6.820
14697WAT     H144333   7.606   9.061   6.874
14697WAT     H244334   7.740   8.967   6.873
14698WAT      O44335   7.373   1.051   4.796
14698WAT     H144336   7.322   1.134   4.816
14698WAT     H244337   7.317   0.990   4.739
14699WAT      O44338   1.780   5.884   1.260
14699WAT     H144339   1.692   5.854   1.224
14699WAT     H244340   1.767   5.965   1.317
14700WAT      O44341   8.480   2.345   2.257
14700WAT     H144342   8.554   2.277   2.259
14700WAT     H244343   8.512   2.431   2.298
14701WAT      O44344   0.250   1.297   1.240
14701WAT     H144345   0.208   1.353   1.312
14701WAT     H244346   0.178   1.262   1.180
14702WAT      O44347   5.228   1.069   7.559
14702WAT     H144348   5.231   1.109   7.467
14702WAT     H244349   5.153   1.003   7.564
14703WAT      O44350   1.922   8.639   1.056
14703WAT     H144351   1.902   8.670   0.963
14703WAT     H244352   1.841   8.596   1.095
14704WAT      O44353   3.732   2.014   1.457
14704WAT     H144354   3.705   2.064   1.375
14704WAT     H244355   3.766   2.078   1.526
14705WAT      O44356   2.249   6.633   0.157
14705WAT     H144357   2.249   6.636   0.057
14705WAT     H244358   2.343   6.626   0.190
14706WAT      O44359   5.758   2.293   1.017
14706WAT     H144360   5.772   2.205   1.063
14706WAT     H244361   5.662   2.322   1.028
14707WAT      O44362   4.708   7.536   4.353
14707WAT     H144363   4.715   7.623   4.304
14707WAT     H244364   4.695   7.553   4.450
14708WAT      O44365   3.873   5.668   6.437
14708WAT     H144366   3.921   5.648   6.523
14708WAT     H244367   3.938   5.665   6.361
14709WAT      O44368   7.035   4.405   7.071
14709WAT     H144369   7.131   4.431   7.061
14709WAT     H244370   6.992   4.401   6.981
14710WAT      O44371   9.808   8.772   9.369
14710WAT     H144372   9.861   8.839   9.317
14710WAT     H244373   9.779   8.813   9.456
14711WAT      O44374   0.976   4.556   2.995
14711WAT     H144375   0.920   4.488   3.042
14711WAT     H244376   0.951   4.558   2.898
14712WAT      O44377   0.629   9.188   3.487
14712WAT     H144378   0.623   9.106   3.543
14712WAT     H244379   0.623   9.269   3.546
14713WAT      O44380   1.647   0.716   3.610
14713WAT     H144381   1.556   0.755   3.601
14713WAT     H244382   1.640   0.616   3.611
14714WAT      O44383   5.676   4.494   2.486
14714WAT     H144384   5.583   4.531   2.489
14714WAT     H244385   5.679   4.408   2.536
14715WAT      O44386   1.396   1.666   3.206
14715WAT     H144387   1.446   1.750   3.225
14715WAT     H244388   1.372   1.662   3.109
14716WAT      O44389   0.703   5.968   4.023
14716WAT     H144390   0.644   6.044   3.995
14716WAT     H244391   0.651   5.883   4.023
14717WAT      O44392   4.045   0.161   1.509
14717WAT     H144393   4.032   0.201   1.418
14717WAT     H244394   3.991   0.078   1.517
14718WAT      O44395   1.539   5.501   2.401
14718WAT     H144396   1.589   5.416   2.416
14718WAT     H244397   1.476   5.516   2.477
14719WAT      O44398   5.589   6.640   0.606
14719WAT     H144399   5.558   6.655   0.700
14719WAT     H244400   5.643   6.555   0.602
14720WAT      O44401   4.663   4.535   5.701
14720WAT     H144402   4.702   4.452   5.663
14720WAT     H244403   4.589   4.511   5.765
14721WAT      O44404   7.574   2.306   0.673
14721WAT     H144405   7.525   2.229   0.632
14721WAT     H244406   7.514   2.386   0.675
14722WAT      O44407   2.856   3.718   5.912
14722WAT     H144408   2.825   3.810   5.889
14722WAT     H244409   2.801   3.650   5.863
14723WAT      O44410   1.266   7.156   1.667
14723WAT     H144411   1.265   7.146   1.767
14723WAT     H244412   1.189   7.212   1.638
14724WAT      O44413   8.773   6.811   7.244
14724WAT     H144414   8.808   6.727   7.287
14724WAT     H244415   8.719   6.862   7.311
14725WAT      O44416   8.554   2.873   0.527
14725WAT     H144417   8.563   2.859   0.429
14725WAT     H244418   8.638   2.916   0.562
14726WAT      O44419   8.352   8.762   9.793
14726WAT     H144420   8.286   8.698   9.752
14726WAT     H244421   8.444   8.724   9.785
14727WAT      O44422   1.269   6.152   4.144
14727WAT     H144423   1.212   6.203   4.078
14727WAT     H244424   1.210   6.097   4.203
14728WAT      O44425   5.479   9.693   0.261
14728WAT     H144426   5.555   9.741   0.219
14728WAT     H244427   5.448   9.619   0.201
14729WAT      O44428   0.794   3.176   3.672
14729WAT     H144429   0.761   3.153   3.580
14729WAT     H244430   0.749   3.261   3.702
14730WAT      O44431   5.958   0.737   4.063
14730WAT     H144432   5.918   0.799   3.995
14730WAT     H244433   5.968   0.785   4.150
14731WAT      O44434   4.151   6.087   8.754
14731WAT     H144435   4.062   6.050   8.728
14731WAT     H244436   4.139   6.178   8.794
14732WAT      O44437   1.686   5.132   6.578
14732WAT     H144438   1.632   5.072   6.637
14732WAT     H244439   1.629   5.208   6.547
14733WAT      O44440   9.473   5.502   4.012
14733WAT     H144441   9.401   5.439   4.043
14733WAT     H244442   9.472   5.584   4.069
14734WAT      O44443   0.683   1.484   0.018
14734WAT     H144444   0.693   1.404   0.077
14734WAT     H244445   0.747   1.477  -0.059
14735WAT      O44446   3.662   6.432   0.855
14735WAT     H144447   3.649   6.407   0.951
14735WAT     H244448   3.722   6.365   0.811
14736WAT      O44449   4.334   6.326   1.098
14736WAT     H144450   4.256   6.325   1.161
14736WAT     H244451   4.359   6.232   1.075
14737WAT      O44452   1.944   8.530   6.955
14737WAT     H144453   1.900   8.520   6.866
14737WAT     H244454   2.030   8.479   6.956
14738WAT      O44455   2.601   7.140   3.676
14738WAT     H144456   2.579   7.131   3.773
14738WAT     H244457   2.517   7.131   3.622
14739WAT      O44458   2.454   7.493   7.971
14739WAT     H144459   2.507   7.408   7.972
14739WAT     H244460   2.356   7.471   7.974
14740WAT      O44461   4.469   8.588   3.656
14740WAT     H144462   4.526   8.539   3.721
14740WAT     H244463   4.462   8.684   3.683
14741WAT      O44464   9.893   0.963   7.766
14741WAT     H144465   9.914   0.871   7.799
14741WAT     H244466   9.794   0.978   7.768
14742WAT      O44467   4.294   4.462   1.684
14742WAT     H144468   4.307   4.561   1.688
14742WAT     H244469   4.213   4.437   1.738
14743WAT      O44470   0.508   0.483   4.908
14743WAT     H144471   0.472   0.562   4.958
14743WAT     H244472   0.442   0.454   4.839
14744WAT      O44473   3.711   0.329   8.357
14744WAT     H144474   3.786   0.336   8.292
14744WAT     H244475   3.717   0.242   8.406
14745WAT      O44476   9.434   9.527   3.339
14745WAT     H144477   9.400   9.559   3.250
14745WAT     H244478   9.520   9.574   3.360
14746WAT      O44479   1.232   0.264   2.962
14746WAT     H144480   1.150   0.299   3.007
14746WAT     H244481   1.222   0.274   2.863
14747WAT      O44482   3.875   2.414   7.261
14747WAT     H144483   3.782   2.378   7.269
14747WAT     H244484   3.915   2.424   7.352
14748WAT      O44485   9.016   9.753   7.569
14748WAT     H144486   8.959   9.820   7.521
14748WAT     H244487   8.967   9.666   7.575
14749WAT      O44488   5.318   7.572   9.694
14749WAT     H144489   5.245   7.637   9.715
14749WAT     H244490   5.290   7.480   9.721
14750WAT      O44491   8.225   5.800   3.179
14750WAT     H144492   8.267   5.711   3.166
14750WAT     H244493   8.183   5.831   3.093
14751WAT      O44494   9.694   2.419   4.696
14751WAT     H144495   9.688   2.502   4.752
14751WAT     H244496   9.702   2.339   4.755
14752WAT      O44497   2.400   1.854   4.083
14752WAT     H144498   2.492   1.867   4.119
14752WAT     H244499   2.384   1.919   4.008
14753WAT      O44500   2.750   7.967   1.045
14753WAT     H144501   2.770   8.065   1.050
14753WAT     H244502   2.705   7.938   1.129
14754WAT      O44503   3.588   8.735   4.611
14754WAT     H144504   3.509   8.794   4.596
14754WAT     H244505   3.581   8.655   4.551
14755WAT      O44506   6.285   2.161   3.549
14755WAT     H144507   6.343   2.218   3.608
14755WAT     H244508   6.286   2.067   3.583
14756WAT      O44509   7.477   4.663   4.299
14756WAT     H144510   7.452   4.712   4.216
14756WAT     H244511   7.535   4.585   4.275
14757WAT      O44512   3.180   7.294   8.211
14757WAT     H144513   3.141   7.355   8.280
14757WAT     H244514   3.244   7.345   8.153
14758WAT      O44515   2.603   4.879   6.903
14758WAT     H144516   2.540   4.951   6.931
14758WAT     H244517   2.635   4.897   6.810
14759WAT      O44518   8.491   5.898   6.466
14759WAT     H144519   8.534   5.915   6.555
14759WAT     H244520   8.496   5.981   6.411
14760WAT      O44521   4.696   4.779   7.276
14760WAT     H144522   4.617   4.768   7.216
14760WAT     H244523   4.755   4.852   7.241
14761WAT      O44524   4.639   6.839   5.158
14761WAT     H144525   4.703   6.886   5.218
14761WAT     H244526   4.689   6.779   5.096
14762WAT      O44527   5.668   0.789   1.032
14762WAT     H144528   5.738   0.735   0.986
14762WAT     H244529   5.614   0.729   1.092
14763WAT      O44530   9.379   6.150   8.975
14763WAT     H144531   9.352   6.058   8.945
14763WAT     H244532   9.302   6.212   8.966
14764WAT      O44533   2.451   4.747   5.555
14764WAT     H144534   2.457   4.678   5.627
14764WAT     H244535   2.479   4.836   5.591
14765WAT      O44536   7.486   2.628   4.820
14765WAT     H144537   7.513   2.635   4.916
14765WAT     H244538   7.549   2.682   4.764
14766WAT      O44539   6.927   3.124   3.037
14766WAT     H144540   6.949   3.156   3.129
14766WAT     H244541   7.007   3.135   2.977
14767WAT      O44542   3.579   1.069   4.898
14767WAT     H144543   3.550   1.031   4.810
14767WAT     H244544   3.504   1.119   4.940
14768WAT      O44545   9.866   0.527   3.771
14768WAT     H144546   9.922   0.512   3.689
14768WAT     H244547   9.918   0.503   3.852
14769WAT      O44548   2.888   5.192   0.011
14769WAT     H144549   2.929   5.173   0.100
14769WAT     H244550   2.960   5.207  -0.057
14770WAT      O44551   3.864   2.916   9.535
14770WAT     H144552   3.874   2.979   9.611
14770WAT     H244553   3.788   2.945   9.477
14771WAT      O44554   3.359   0.991   0.482
14771WAT     H144555   3.327   0.924   0.416
14771WAT     H244556   3.315   1.079   0.464
14772WAT      O44557   6.264   7.970   8.079
14772WAT     H144558   6.252   7.952   7.981
14772WAT     H244559   6.191   7.923   8.130
14773WAT      O44560   3.155   8.797   1.202
14773WAT     H144561   3.193   8.727   1.263
14773WAT     H244562   3.057   8.781   1.191
14774WAT      O44563   4.930   4.048   3.643
14774WAT     H144564   4.879   4.120   3.689
14774WAT     H244565   4.942   4.071   3.547
14775WAT      O44566   6.966   6.817   0.100
14775WAT     H144567   7.043   6.876   0.123
14775WAT     H244568   7.000   6.735   0.054
14776WAT      O44569   5.363   4.050   0.795
14776WAT     H144570   5.459   4.060   0.821
14776WAT     H244571   5.305   4.095   0.863
14777WAT      O44572   0.579   6.138   0.334
14777WAT     H144573   0.615   6.051   0.301
14777WAT     H244574   0.653   6.193   0.372
14778WAT      O44575   0.995   6.547   8.946
14778WAT     H144576   0.937   6.578   8.870
14778WAT     H244577   1.062   6.618   8.967
14779WAT      O44578   6.693   0.978   0.205
14779WAT     H144579   6.741   0.890   0.199
14779WAT     H244580   6.750   1.044   0.254
14780WAT      O44581   1.489   6.592   2.094
14780WAT     H144582   1.464   6.635   2.008
14780WAT     H244583   1.467   6.654   2.170
14781WAT      O44584   9.735   0.741   3.639
14781WAT     H144585   9.778   0.679   3.704
14781WAT     H244586   9.778   0.731   3.549
14782WAT      O44587   0.584   0.014   0.203
14782WAT     H144588   0.544  -0.077   0.218
14782WAT     H244589   0.644   0.012   0.123
14783WAT      O44590   4.343   0.856   1.225
14783WAT     H144591   4.401   0.792   1.174
14783WAT     H244592   4.400   0.910   1.287
14784WAT      O44593   7.904   7.155   1.095
14784WAT     H144594   7.983   7.213   1.076
14784WAT     H244595   7.859   7.186   1.179
14785WAT      O44596   6.717   5.641   6.623
14785WAT     H144597   6.794   5.578   6.631
14785WAT     H244598   6.668   5.623   6.537
14786WAT      O44599   7.268   2.568   2.822
14786WAT     H144600   7.332   2.550   2.748
14786WAT     H244601   7.278   2.663   2.852
14787WAT      O44602   3.550   4.268   8.798
14787WAT     H144603   3.491   4.201   8.752
14787WAT     H244604   3.532   4.359   8.761
14788WAT      O44605   6.604   8.569   6.254
14788WAT     H144606   6.698   8.589   6.226
14788WAT     H244607   6.555   8.529   6.176
14789WAT      O44608   1.516   3.194   5.551
14789WAT     H144609   1.557   3.255   5.619
14789WAT     H244610   1.516   3.240   5.462
14790WAT      O44611   4.226   4.675   2.235
14790WAT     H144612   4.201   4.748   2.171
14790WAT     H244613   4.222   4.711   2.328
14791WAT      O44614   8.192   6.136   1.715
14791WAT     H144615   8.226   6.224   1.748
14791WAT     H244616   8.146   6.088   1.790
14792WAT      O44617   0.938   2.782   4.734
14792WAT     H144618   0.863   2.721   4.758
14792WAT     H244619   0.983   2.748   4.650
14793WAT      O44620   6.732   5.362   2.498
14793WAT     H144621   6.715   5.445   2.552
14793WAT     H244622   6.821   5.367   2.455
14794WAT      O44623   0.341   1.179   1.861
14794WAT     H144624   0.438   1.193   1.882
14794WAT     H244625   0.293   1.149   1.943
14795WAT      O44626   4.344   5.003   0.164
14795WAT     H144627   4.298   4.915   0.176
14795WAT     H244628   4.431   4.990   0.117
14796WAT      O44629   8.820   7.719   7.797
14796WAT     H144630   8.752   7.792   7.811
14796WAT     H244631   8.849   7.683   7.885
14797WAT      O44632   6.084   8.368   5.137
14797WAT     H144633   5.995   8.349   5.096
14797WAT     H244634   6.155   8.362   5.068
14798WAT      O44635   0.910   1.836   6.610
14798WAT     H144636   0.986   1.891   6.644
14798WAT     H244637   0.824   1.874   6.642
14799WAT      O44638   5.780   3.379   1.423
14799WAT     H144639   5.788   3.370   1.324
14799WAT     H244640   5.817   3.298   1.467
14800WAT      O44641   2.817   2.834   7.906
14800WAT     H144642   2.912   2.844   7.878
14800WAT     H244643   2.802   2.885   7.992
14801WAT      O44644   1.460   1.466   6.017
14801WAT     H144645   1.367   1.448   6.049
14801WAT     H244646   1.461   1.551   5.965
14802WAT      O44647   1.271   9.308   9.675
14802WAT     H144648   1.330   9.365   9.732
14802WAT     H244649   1.200   9.266   9.732
14803WAT      O44650   8.990   3.367   3.993
14803WAT     H144651   9.006   3.313   4.075
14803WAT     H244652   8.917   3.433   4.010
14804WAT      O44653   3.847   9.221   6.596
14804WAT     H144654   3.903   9.233   6.677
14804WAT     H244655   3.906   9.201   6.517
14805WAT      O44656   4.860   3.294   8.990
14805WAT     H144657   4.941   3.339   9.027
14805WAT     H244658   4.779   3.325   9.042
14806WAT      O44659   4.056   0.548   4.560
14806WAT     H144660   4.092   0.624   4.613
14806WAT     H244661   3.965   0.523   4.595
14807WAT      O44662   7.544   9.027   8.428
14807WAT     H144663   7.620   9.080   8.465
14807WAT     H244664   7.577   8.938   8.398
14808WAT      O44665   1.411   2.449   9.677
14808WAT     H144666   1.444   2.356   9.663
14808WAT     H244667   1.333   2.466   9.616
14809WAT      O44668   5.703   3.604   5.011
14809WAT     H144669   5.771   3.592   5.084
14809WAT     H244670   5.704   3.524   4.951
14810WAT      O44671   6.053   3.453   7.772
14810WAT     H144672   5.953   3.458   7.772
14810WAT     H244673   6.090   3.537   7.811
14811WAT      O44674   3.294   5.415   7.415
14811WAT     H144675   3.384   5.409   7.374
14811WAT     H244676   3.240   5.485   7.368
14812WAT      O44677   9.124   3.255   0.381
14812WAT     H144678   9.171   3.314   0.314
14812WAT     H244679   9.190   3.191   0.420
14813WAT      O44680   0.802   9.492   8.214
14813WAT     H144681   0.893   9.512   8.177
14813WAT     H244682   0.748   9.576   8.216
14814WAT      O44683   5.069   5.702   3.928
14814WAT     H144684   4.986   5.661   3.891
14814WAT     H244685   5.047   5.753   4.012
14815WAT      O44686   5.087   8.834   6.242
14815WAT     H144687   5.137   8.849   6.156
14815WAT     H244688   5.062   8.738   6.250
14816WAT      O44689   0.228   3.437   3.833
14816WAT     H144690   0.222   3.342   3.801
14816WAT     H244691   0.136   3.470   3.854
14817WAT      O44692   0.152   0.597   0.438
14817WAT     H144693   0.203   0.568   0.518
14817WAT     H244694   0.147   0.697   0.436
14818WAT      O44695   9.543   2.672   9.479
14818WAT     H144696   9.593   2.753   9.448
14818WAT     H244697   9.602   2.616   9.536
14819WAT      O44698   8.576   7.937   2.409
14819WAT     H144699   8.672   7.928   2.384
14819WAT     H244700   8.520   7.885   2.345
14820WAT      O44701   5.432   4.501   5.768
14820WAT     H144702   5.526   4.495   5.801
14820WAT     H244703   5.432   4.542   5.676
14821WAT      O44704   4.948   1.463   8.547
14821WAT     H144705   4.853   1.471   8.516
14821WAT     H244706   4.980   1.554   8.576
14822WAT      O44707   6.622   6.510   8.015
14822WAT     H144708   6.621   6.606   8.042
14822WAT     H244709   6.648   6.502   7.919
14823WAT      O44710   0.083   7.260   5.680
14823WAT     H144711   0.157   7.270   5.747
14823WAT     H244712  -0.005   7.273   5.726
14824WAT      O44713   4.593   1.985   3.193
14824WAT     H144714   4.638   1.896   3.184
14824WAT     H244715   4.503   1.981   3.149
14825WAT      O44716   7.512   3.507   1.989
14825WAT     H144717   7.425   3.557   1.992
14825WAT     H244718   7.503   3.428   1.929
14826WAT      O44719   0.180   8.038   8.620
14826WAT     H144720   0.161   8.086   8.706
14826WAT     H244721   0.178   8.104   8.544
14827WAT      O44722   2.023   0.326   7.829
14827WAT     H144723   2.081   0.274   7.766
14827WAT     H244724   2.035   0.424   7.812
14828WAT      O44725   4.432   6.713   4.172
14828WAT     H144726   4.334   6.714   4.188
14828WAT     H244727   4.454   6.772   4.094
14829WAT      O44728   5.472   3.843   9.351
14829WAT     H144729   5.539   3.835   9.425
14829WAT     H244730   5.516   3.882   9.270
14830WAT      O44731   0.015   2.317   6.219
14830WAT     H144732   0.071   2.305   6.301
14830WAT     H244733   0.072   2.352   6.144
14831WAT      O44734   8.398   1.461   1.610
14831WAT     H144735   8.473   1.524   1.595
14831WAT     H244736   8.424   1.369   1.580
14832WAT      O44737   7.652   2.471   3.478
14832WAT     H144738   7.564   2.451   3.436
14832WAT     H244739   7.654   2.566   3.510
14833WAT      O44740   4.847   9.153   5.680
14833WAT     H144741   4.909   9.080   5.708
14833WAT     H244742   4.753   9.118   5.677
14834WAT      O44743   6.747   5.375   9.659
14834WAT     H144744   6.746   5.475   9.648
14834WAT     H244745   6.750   5.331   9.570
14835WAT      O44746   7.796   5.836   3.201
14835WAT     H144747   7.816   5.872   3.293
14835WAT     H244748   7.850   5.886   3.134
14836WAT      O44749   7.453   0.050   5.503
14836WAT     H144750   7.504   0.129   5.468
14836WAT     H244751   7.408   0.075   5.588
14837WAT      O44752   2.283   2.312   8.976
14837WAT     H144753   2.277   2.395   8.920
14837WAT     H244754   2.364   2.317   9.034
14838WAT      O44755   5.979   7.318   7.436
14838WAT     H144756   5.958   7.223   7.460
14838WAT     H244757   6.037   7.319   7.354
14839WAT      O44758   9.475   7.382   6.925
14839WAT     H144759   9.565   7.424   6.915
14839WAT     H244760   9.468   7.340   7.016
14840WAT      O44761   3.663   6.884   3.451
14840WAT     H144762   3.685   6.814   3.383
14840WAT     H244763   3.683   6.974   3.413
14841WAT      O44764   1.874   5.248   5.474
14841WAT     H144765   1.925   5.181   5.529
14841WAT     H244766   1.821   5.199   5.405
14842WAT      O44767   2.487   5.462   8.883
14842WAT     H144768   2.529   5.550   8.908
14842WAT     H244769   2.549   5.388   8.908
14843WAT      O44770   2.946   2.615   9.138
14843WAT     H144771   2.942   2.676   9.217
14843WAT     H244772   2.948   2.670   9.054
14844WAT      O44773   0.211   2.922   1.268
14844WAT     H144774   0.194   2.824   1.263
14844WAT     H244775   0.146   2.964   1.332
14845WAT      O44776   5.247   2.914   4.736
14845WAT     H144777   5.169   2.971   4.711
14845WAT     H244778   5.215   2.828   4.776
14846WAT      O44779   4.629   2.944   3.169
14846WAT     H144780   4.534   2.976   3.167
14846WAT     H244781   4.680   2.992   3.239
14847WAT      O44782   4.211   7.767   1.003
14847WAT     H144783   4.178   7.764   1.097
14847WAT     H244784   4.197   7.858   0.966
14848WAT      O44785   4.523   4.952   8.742
14848WAT     H144786   4.476   4.946   8.654
14848WAT     H244787   4.469   4.905   8.812
14849WAT      O44788   1.671   3.998   5.984
14849WAT     H144789   1.657   3.921   6.045
14849WAT     H244790   1.769   4.015   5.974
14850WAT      O44791   1.975   1.593   7.893
14850WAT     H144792   2.029   1.611   7.975
14850WAT     H244793   2.036   1.580   7.815
14851WAT      O44794   4.148   1.282   9.095
14851WAT     H144795   4.112   1.356   9.039
14851WAT     H244796   4.184   1.210   9.036
14852WAT      O44797   8.371   4.562   0.227
14852WAT     H144798   8.394   4.501   0.151
14852WAT     H244799   8.314   4.637   0.194
14853WAT      O44800   5.869   0.643   6.968
14853WAT     H144801   5.952   0.611   7.014
14853WAT     H244802   5.843   0.577   6.897
14854WAT      O44803   4.802   2.741   5.449
14854WAT     H144804   4.794   2.658   5.504
14854WAT     H244805   4.757   2.817   5.496
14855WAT      O44806   1.527   4.798   1.635
14855WAT     H144807   1.572   4.714   1.606
14855WAT     H244808   1.524   4.863   1.559
14856WAT      O44809   4.630   7.380   8.894
14856WAT     H144810   4.726   7.364   8.872
14856WAT     H244811   4.609   7.478   8.886
14857WAT      O44812   7.738   0.656   5.710
14857WAT     H144813   7.651   0.610   5.691
14857WAT     H244814   7.799   0.645   5.631
14858WAT      O44815   5.946   9.002   7.390
14858WAT     H144816   5.894   9.071   7.441
14858WAT     H244817   5.888   8.962   7.319
14859WAT      O44818   7.659   7.916   8.394
14859WAT     H144819   7.586   7.905   8.462
14859WAT     H244820   7.708   8.002   8.412
14860WAT      O44821   5.217   7.520   1.434
14860WAT     H144822   5.119   7.501   1.440
14860WAT     H244823   5.237   7.562   1.345
14861WAT      O44824   7.833   0.709   1.278
14861WAT     H144825   7.763   0.722   1.348
14861WAT     H244826   7.791   0.676   1.194
14862WAT      O44827   1.397   4.352   4.659
14862WAT     H144828   1.475   4.388   4.710
14862WAT     H244829   1.337   4.303   4.722
14863WAT      O44830   3.985   2.781   0.530
14863WAT     H144831   3.915   2.717   0.562
14863WAT     H244832   4.025   2.747   0.445
14864WAT      O44833   3.298   2.195   9.505
14864WAT     H144834   3.317   2.097   9.500
14864WAT     H244835   3.237   2.213   9.582
14865WAT      O44836   5.449   3.993   1.820
14865WAT     H144837   5.453   3.953   1.729
14865WAT     H244838   5.382   3.944   1.876
14866WAT      O44839   2.014   0.057   6.021
14866WAT     H144840   1.987   0.084   5.928
14866WAT     H244841   1.934   0.025   6.071
14867WAT      O44842   1.920   7.878   0.173
14867WAT     H144843   1.868   7.866   0.258
14867WAT     H244844   1.861   7.920   0.104
14868WAT      O44845   1.896   0.109   2.820
14868WAT     H144846   1.806   0.148   2.843
14868WAT     H244847   1.940   0.167   2.751
14869WAT      O44848   3.177   2.273   1.102
14869WAT     H144849   3.116   2.285   1.181
14869WAT     H244850   3.180   2.177   1.077
14870WAT      O44851   1.516   7.227   5.739
14870WAT     H144852   1.441   7.190   5.683
14870WAT     H244853   1.500   7.325   5.754
14871WAT      O44854   6.467   4.587   3.927
14871WAT     H144855   6.392   4.624   3.981
14871WAT     H244856   6.504   4.658   3.867
14872WAT      O44857   0.871   2.619   7.318
14872WAT     H144858   0.890   2.661   7.407
14872WAT     H244859   0.943   2.643   7.254
14873WAT      O44860   6.862   5.753   5.010
14873WAT     H144861   6.784   5.799   4.967
14873WAT     H244862   6.841   5.736   5.106
14874WAT      O44863   1.522   8.183   5.916
14874WAT     H144864   1.456   8.258   5.906
14874WAT     H244865   1.563   8.188   6.007
14875WAT      O44866   0.867   0.217   7.759
14875WAT     H144867   0.776   0.203   7.798
14875WAT     H244868   0.924   0.264   7.826
14876WAT      O44869   9.870   5.819   8.866
14876WAT     H144870   9.774   5.840   8.849
14876WAT     H244871   9.927   5.867   8.799
14877WAT      O44872   9.262   0.361   6.205
14877WAT     H144873   9.316   0.424   6.148
14877WAT     H244874   9.266   0.269   6.166
14878WAT      O44875   7.564   9.285   9.044
14878WAT     H144876   7.491   9.228   9.081
14878WAT     H244877   7.581   9.260   8.949
14879WAT      O44878   0.440   0.173   8.847
14879WAT     H144879   0.408   0.247   8.788
14879WAT     H244880   0.497   0.110   8.795
14880WAT      O44881   9.863   0.031   8.856
14880WAT     H144882   9.805   0.061   8.781
14880WAT     H244883   9.953   0.006   8.820
14881WAT      O44884   2.562   4.805   7.658
14881WAT     H144885   2.548   4.734   7.727
14881WAT     H244886   2.627   4.772   7.590
14882WAT      O44887   4.691   1.598   7.278
14882WAT     H144888   4.743   1.677   7.309
14882WAT     H244889   4.713   1.578   7.183
14883WAT      O44890   6.957   2.535   9.873
14883WAT     H144891   6.978   2.591   9.953
14883WAT     H244892   7.007   2.449   9.879
14884WAT      O44893   4.279   2.697   5.025
14884WAT     H144894   4.191   2.653   5.040
14884WAT     H244895   4.279   2.744   4.937
14885WAT      O44896   1.542   7.517   7.566
14885WAT     H144897   1.538   7.499   7.468
14885WAT     H244898   1.615   7.462   7.607
14886WAT      O44899   0.854   7.113   6.973
14886WAT     H144900   0.837   7.021   6.938
14886WAT     H244901   0.921   7.109   7.047
14887WAT      O44902   2.254   7.514   3.352
14887WAT     H144903   2.302   7.592   3.391
14887WAT     H244904   2.180   7.546   3.293
14888WAT      O44905   3.458   9.781   5.147
14888WAT     H144906   3.435   9.693   5.105
14888WAT     H244907   3.548   9.811   5.114
14889WAT      O44908   2.828   6.446   7.900
14889WAT     H144909   2.745   6.492   7.932
14889WAT     H244910   2.899   6.454   7.970
14890WAT      O44911   9.718   7.929   0.624
14890WAT     H144912   9.621   7.928   0.603
14890WAT     H244913   9.760   7.845   0.588
14891WAT      O44914   2.381   7.634   4.372
14891WAT     H144915   2.308   7.578   4.411
14891WAT     H244916   2.361   7.731   4.389
14892WAT      O44917   6.219   1.642   4.817
14892WAT     H144918   6.193   1.694   4.736
14892WAT     H244919   6.137   1.621   4.871
14893WAT      O44920   2.647   7.969   0.230
14893WAT     H144921   2.733   7.995   0.274
14893WAT     H244922   2.612   7.885   0.272
14894WAT      O44923   8.350   7.674   1.613
14894WAT     H144924   8.290   7.676   1.533
14894WAT     H244925   8.373   7.768   1.640
14895WAT      O44926   3.892   8.741   0.157
14895WAT     H144927   3.870   8.746   0.255
14895WAT     H244928   3.858   8.824   0.111
14896WAT      O44929   4.586   7.458   2.751
14896WAT     H144930   4.587   7.540   2.808
14896WAT     H244931   4.658   7.395   2.780
14897WAT      O44932   8.336   5.171   1.339
14897WAT     H144933   8.332   5.078   1.303
14897WAT     H244934   8.320   5.236   1.264
14898WAT      O44935   7.403   8.114   8.789
14898WAT     H144936   7.407   8.168   8.704
14898WAT     H244937   7.308   8.103   8.816
14899WAT      O44938   7.243   7.030   4.719
14899WAT     H144939   7.187   6.953   4.687
14899WAT     H244940   7.186   7.110   4.733
14900WAT      O44941   1.088   1.922   5.656
14900WAT     H144942   1.030   1.882   5.727
14900WAT     H244943   1.049   1.902   5.566
14901WAT      O44944   3.118   1.183   1.362
14901WAT     H144945   3.199   1.124   1.370
14901WAT     H244946   3.077   1.172   1.272
14902WAT      O44947   5.901   6.352   9.077
14902WAT     H144948   5.917   6.421   9.148
14902WAT     H244949   5.907   6.261   9.117
14903WAT      O44950   2.745   1.736   9.232
14903WAT     H144951   2.770   1.825   9.270
14903WAT     H244952   2.685   1.688   9.296
14904WAT      O44953   5.416   0.412   5.169
14904WAT     H144954   5.457   0.406   5.078
14904WAT     H244955   5.361   0.331   5.187
14905WAT      O44956   2.408   2.087   7.242
14905WAT     H144957   2.407   2.002   7.295
14905WAT     H244958   2.472   2.151   7.285
14906WAT      O44959   7.018   6.657   2.868
14906WAT     H144960   7.031   6.599   2.788
14906WAT     H244961   6.962   6.609   2.936
14907WAT      O44962   7.618   7.556   2.356
14907WAT     H144963   7.685   7.488   2.328
14907WAT     H244964   7.619   7.566   2.456
14908WAT      O44965   3.976   5.582   5.424
14908WAT     H144966   4.015   5.491   5.437
14908WAT     H244967   3.900   5.596   5.488
14909WAT      O44968   4.776   2.891   2.766
14909WAT     H144969   4.795   2.950   2.845
14909WAT     H244970   4.812   2.934   2.683
14910WAT      O44971   4.018   0.316   9.698
14910WAT     H144972   3.972   0.231   9.670
14910WAT     H244973   4.091   0.337   9.633
14911WAT      O44974   1.440   7.328   8.479
14911WAT     H144975   1.381   7.249   8.497
14911WAT     H244976   1.390   7.412   8.499
14912WAT      O44977   3.628   2.194   9.109
14912WAT     H144978   3.685   2.191   9.191
14912WAT     H244979   3.649   2.277   9.058
14913WAT      O44980   2.853   2.392   1.538
14913WAT     H144981   2.878   2.379   1.442
14913WAT     H244982   2.753   2.396   1.545
14914WAT      O44983   9.346   7.467   1.233
14914WAT     H144984   9.411   7.529   1.276
14914WAT     H244985   9.281   7.520   1.178
14915WAT      O44986   5.349   1.770   4.958
14915WAT     H144987   5.401   1.802   5.037
14915WAT     H244988   5.344   1.670   4.960
14916WAT      O44989   4.367   3.305   2.485
14916WAT     H144990   4.357   3.209   2.462
14916WAT     H244991   4.296   3.358   2.438
14917WAT      O44992   4.478   7.218   9.832
14917WAT     H144993   4.400   7.175   9.877
14917WAT     H244994   4.467   7.211   9.732
14918WAT      O44995   2.446   5.858   7.227
14918WAT     H144996   2.417   5.862   7.131
14918WAT     H244997   2.366   5.859   7.286
14919WAT      O44998   9.498   8.331   8.713
14919WAT     H144999   9.537   8.417   8.680
14919WAT     H245000   9.412   8.313   8.665
14920WAT      O45001   1.775   5.750   7.928
14920WAT     H145002   1.719   5.794   7.858
14920WAT     H245003   1.869   5.781   7.919
14921WAT      O45004   2.433   7.161   2.604
14921WAT     H145005   2.342   7.130   2.574
14921WAT     H245006   2.427   7.254   2.640
14922WAT      O45007   2.659   8.268   8.299
14922WAT     H145008   2.654   8.367   8.315
14922WAT     H245009   2.670   8.221   8.387
14923WAT      O45010   2.906   8.319   5.233
14923WAT     H145011   2.902   8.247   5.302
14923WAT     H245012   2.834   8.304   5.165
14924WAT      O45013   2.607   9.762   9.298
14924WAT     H145014   2.512   9.743   9.274
14924WAT     H245015   2.611   9.842   9.358
14925WAT      O45016   2.912   5.642   3.166
14925WAT     H145017   2.938   5.644   3.262
14925WAT     H245018   2.826   5.691   3.154
14926WAT      O45019   4.703   3.705   4.040
14926WAT     H145020   4.673   3.799   4.057
14926WAT     H245021   4.764   3.675   4.114
14927WAT      O45022   6.800   7.792   0.319
14927WAT     H145023   6.777   7.812   0.224
14927WAT     H245024   6.885   7.741   0.324
14928WAT      O45025   3.433   4.483   7.613
14928WAT     H145026   3.407   4.541   7.690
14928WAT     H245027   3.397   4.520   7.528
14929WAT      O45028   3.811   6.845   7.765
14929WAT     H145029   3.887   6.779   7.762
14929WAT     H245030   3.733   6.808   7.714
14930WAT      O45031   5.802   4.491   2.250
14930WAT     H145032   5.768   4.483   2.343
14930WAT     H245033   5.850   4.579   2.240
14931WAT      O45034   5.746   6.129   8.124
14931WAT     H145035   5.702   6.094   8.042
14931WAT     H245036   5.677   6.145   8.195
14932WAT      O45037   7.298   8.758   4.884
14932WAT     H145038   7.284   8.688   4.814
14932WAT     H245039   7.284   8.717   4.974
14933WAT      O45040   6.271   1.425   1.908
14933WAT     H145041   6.337   1.480   1.858
14933WAT     H245042   6.180   1.464   1.896
14934WAT      O45043   2.915   3.038   5.618
14934WAT     H145044   2.945   2.942   5.623
14934WAT     H245045   2.870   3.054   5.530
14935WAT      O45046   2.182   6.727   8.932
14935WAT     H145047   2.234   6.662   8.987
14935WAT     H245048   2.211   6.820   8.953
14936WAT      O45049   2.875   0.787   5.271
14936WAT     H145050   2.808   0.856   5.299
14936WAT     H245051   2.896   0.798   5.174
14937WAT      O45052   7.783   6.268   3.258
14937WAT     H145053   7.858   6.280   3.323
14937WAT     H245054   7.812   6.300   3.167
14938WAT      O45055   4.574   9.056   0.388
14938WAT     H145056   4.631   8.995   0.333
14938WAT     H245057   4.629   9.099   0.459
14939WAT      O45058   3.955   6.884   3.254
14939WAT     H145059   4.029   6.833   3.298
14939WAT     H245060   3.921   6.834   3.175
14940WAT      O45061   4.980   3.897   4.270
14940WAT     H145062   4.971   3.893   4.369
14940WAT     H245063   4.965   3.806   4.231
14941WAT      O45064   2.548   1.893   8.574
14941WAT     H145065   2.478   1.907   8.503
14941WAT     H245066   2.503   1.878   8.662
14942WAT      O45067   5.627   3.044   0.360
14942WAT     H145068   5.564   2.970   0.380
14942WAT     H245069   5.673   3.072   0.444
14943WAT      O45070   2.426   8.071   6.613
14943WAT     H145071   2.426   8.008   6.535
14943WAT     H245072   2.517   8.072   6.655
14944WAT      O45073   5.464   5.164   0.628
14944WAT     H145074   5.377   5.119   0.609
14944WAT     H245075   5.467   5.253   0.583
14945WAT      O45076   0.188   6.640   8.354
14945WAT     H145077   0.182   6.698   8.435
14945WAT     H245078   0.150   6.689   8.275
14946WAT      O45079   0.091   8.236   7.638
14946WAT     H145080   0.056   8.190   7.556
14946WAT     H245081   0.135   8.322   7.612
14947WAT      O45082   7.813   2.301   4.354
14947WAT     H145083   7.795   2.352   4.269
14947WAT     H245084   7.771   2.348   4.431
14948WAT      O45085   9.545   5.986   7.537
14948WAT     H145086   9.534   6.047   7.615
14948WAT     H245087   9.590   6.035   7.462
14949WAT      O45088   5.010   3.651   9.264
14949WAT     H145089   5.094   3.682   9.309
14949WAT     H245090   4.938   3.718   9.280
14950WAT      O45091   7.526   7.638   9.486
14950WAT     H145092   7.487   7.688   9.409
14950WAT     H245093   7.555   7.547   9.455
14951WAT      O45094   8.456   0.968   4.070
14951WAT     H145095   8.365   0.959   4.029
14951WAT     H245096   8.525   0.948   4.001
14952WAT      O45097   3.117   2.793   3.157
14952WAT     H145098   3.194   2.837   3.112
14952WAT     H245099   3.141   2.772   3.252
14953WAT      O45100   6.974   2.206   8.694
14953WAT     H145101   6.893   2.233   8.643
14953WAT     H245102   7.053   2.203   8.633
14954WAT      O45103   2.986   1.560   8.213
14954WAT     H145104   3.069   1.586   8.262
14954WAT     H245105   2.909   1.556   8.277
14955WAT      O45106   8.162   5.141   0.456
14955WAT     H145107   8.069   5.108   0.470
14955WAT     H245108   8.226   5.081   0.504
14956WAT      O45109   2.522   0.559   1.873
14956WAT     H145110   2.544   0.631   1.806
14956WAT     H245111   2.574   0.574   1.957
14957WAT      O45112   8.235   5.554   6.337
14957WAT     H145113   8.175   5.539   6.258
14957WAT     H245114   8.329   5.566   6.305
14958WAT      O45115   4.038   8.842   9.423
14958WAT     H145116   3.960   8.867   9.365
14958WAT     H245117   4.116   8.899   9.400
14959WAT      O45118   8.791   3.796   0.620
14959WAT     H145119   8.815   3.700   0.632
14959WAT     H245120   8.863   3.842   0.569
14960WAT      O45121   3.704   0.405   2.670
14960WAT     H145122   3.727   0.323   2.619
14960WAT     H245123   3.679   0.379   2.764
14961WAT      O45124   5.349   1.355   9.233
14961WAT     H145125   5.387   1.344   9.141
14961WAT     H245126   5.424   1.372   9.297
14962WAT      O45127   1.936   3.378   6.979
14962WAT     H145128   1.979   3.463   6.949
14962WAT     H245129   1.956   3.305   6.913
14963WAT      O45130   7.682   6.589   7.587
14963WAT     H145131   7.612   6.577   7.658
14963WAT     H245132   7.643   6.640   7.511
14964WAT      O45133   2.872   0.903   7.263
14964WAT     H145134   2.866   0.804   7.247
14964WAT     H245135   2.782   0.944   7.248
14965WAT      O45136   7.333   7.886   2.962
14965WAT     H145137   7.338   7.986   2.963
14965WAT     H245138   7.245   7.858   2.925
14966WAT      O45139   2.992   0.342   3.528
14966WAT     H145140   3.037   0.418   3.480
14966WAT     H245141   2.894   0.360   3.532
14967WAT      O45142   0.113   8.114   3.174
14967WAT     H145143   0.166   8.075   3.098
14967WAT     H245144   0.016   8.107   3.154
14968WAT      O45145   9.481   6.007   8.497
14968WAT     H145146   9.465   5.968   8.406
14968WAT     H245147   9.528   6.095   8.486
14969WAT      O45148   3.379   5.284   2.314
14969WAT     H145149   3.440   5.288   2.394
14969WAT     H245150   3.347   5.190   2.302
14970WAT      O45151   6.192   1.176   1.859
14970WAT     H145152   6.218   1.263   1.900
14970WAT     H245153   6.256   1.105   1.887
14971WAT      O45154   2.415   7.765   3.320
14971WAT     H145155   2.479   7.784   3.245
14971WAT     H245156   2.324   7.797   3.293
14972WAT      O45157   4.644   2.639   7.582
14972WAT     H145158   4.651   2.738   7.595
14972WAT     H245159   4.735   2.600   7.576
14973WAT      O45160   1.324   6.850   6.509
14973WAT     H145161   1.250   6.788   6.480
14973WAT     H245162   1.330   6.850   6.609
14974WAT      O45163   7.009   1.149   6.602
14974WAT     H145164   7.034   1.245   6.609
14974WAT     H245165   6.950   1.136   6.522
14975WAT      O45166   9.706   8.004   1.017
14975WAT     H145167   9.728   7.912   1.049
14975WAT     H245168   9.612   8.026   1.042
14976WAT      O45169   7.033   7.219   2.426
14976WAT     H145170   6.949   7.208   2.480
14976WAT     H245171   7.107   7.168   2.469
14977WAT      O45172   5.274   6.011   4.379
14977WAT     H145173   5.294   6.109   4.378
14977WAT     H245174   5.179   5.997   4.405
14978WAT      O45175   7.496   7.580   7.026
14978WAT     H145176   7.508   7.481   7.037
14978WAT     H245177   7.519   7.606   6.932
14979WAT      O45178   3.385   8.345   8.483
14979WAT     H145179   3.314   8.393   8.431
14979WAT     H245180   3.473   8.392   8.470
14980WAT      O45181   3.330   0.882   2.439
14980WAT     H145182   3.325   0.948   2.365
14980WAT     H245183   3.294   0.794   2.407
14981WAT      O45184   3.303   5.838   0.626
14981WAT     H145185   3.246   5.858   0.706
14981WAT     H245186   3.279   5.901   0.552
14982WAT      O45187   6.660   7.059   7.517
14982WAT     H145188   6.731   7.113   7.472
14982WAT     H245189   6.681   6.962   7.507
14983WAT      O45190   8.369   3.864   6.415
14983WAT     H145191   8.294   3.804   6.388
14983WAT     H245192   8.436   3.811   6.468
14984WAT      O45193   1.068   6.720   5.001
14984WAT     H145194   1.067   6.662   5.082
14984WAT     H245195   1.163   6.741   4.977
14985WAT      O45196   1.193   8.194   6.815
14985WAT     H145197   1.195   8.148   6.727
14985WAT     H245198   1.103   8.182   6.857
14986WAT      O45199   0.644   6.266   3.375
14986WAT     H145200   0.554   6.286   3.413
14986WAT     H245201   0.714   6.316   3.426
14987WAT      O45202   4.818   5.160   3.723
14987WAT     H145203   4.803   5.252   3.760
14987WAT     H245204   4.730   5.115   3.709
14988WAT      O45205   9.550   8.640   9.383
14988WAT     H145206   9.636   8.689   9.371
14988WAT     H245207   9.565   8.542   9.371
14989WAT      O45208   2.340   3.831   0.554
14989WAT     H145209   2.346   3.738   0.590
14989WAT     H245210   2.301   3.829   0.462
14990WAT      O45211   4.786   6.687   0.966
14990WAT     H145212   4.739   6.618   1.021
14990WAT     H245213   4.762   6.779   1.000
14991WAT      O45214   6.577   8.222   4.789
14991WAT     H145215   6.568   8.271   4.702
14991WAT     H245216   6.486   8.202   4.825
14992WAT      O45217   7.857   2.554   3.835
14992WAT     H145218   7.919   2.632   3.841
14992WAT     H245219   7.906   2.475   3.800
14993WAT      O45220   8.207   3.017   6.768
14993WAT     H145221   8.273   2.999   6.840
14993WAT     H245222   8.116   3.029   6.808
14994WAT      O45223   1.374   4.164   9.582
14994WAT     H145224   1.304   4.228   9.553
14994WAT     H245225   1.366   4.147   9.680
14995WAT      O45226   8.280   9.812   0.495
14995WAT     H145227   8.222   9.892   0.485
14995WAT     H245228   8.243   9.752   0.566
14996WAT      O45229   6.038   3.047   8.889
14996WAT     H145230   5.946   3.069   8.855
14996WAT     H245231   6.039   3.052   8.989
14997WAT      O45232   9.738   7.737   5.109
14997WAT     H145233   9.714   7.715   5.204
14997WAT     H245234   9.654   7.747   5.055
14998WAT      O45235   8.170   4.624   4.957
14998WAT     H145236   8.186   4.708   5.009
14998WAT     H245237   8.145   4.551   5.020
14999WAT      O45238   4.424   2.521   4.370
14999WAT     H145239   4.499   2.468   4.409
14999WAT     H245240   4.337   2.475   4.389
15000WAT      O45241   8.382   2.148   6.167
15000WAT     H145242   8.405   2.127   6.262
15000WAT     H245243   8.424   2.235   6.141
15001WAT      O45244   8.036   7.266   2.815
15001WAT     H145245   7.965   7.237   2.879
15001WAT     H245246   8.107   7.196   2.810
15002WAT      O45247   7.678   1.500   3.857
15002WAT     H145248   7.654   1.436   3.784
15002WAT     H245249   7.777   1.512   3.860
15003WAT      O45250   6.734   2.456   6.989
15003WAT     H145251   6.708   2.370   6.946
15003WAT     H245252   6.708   2.454   7.086
15004WAT      O45253   6.314   7.983   4.207
15004WAT     H145254   6.322   7.885   4.227
15004WAT     H245255   6.310   7.996   4.108
15005WAT      O45256   3.555   9.318   9.187
15005WAT     H145257   3.537   9.226   9.152
15005WAT     H245258   3.473   9.354   9.230
15006WAT      O45259   5.542   8.966   4.179
15006WAT     H145260   5.597   8.914   4.245
15006WAT     H245261   5.494   9.040   4.226
15007WAT      O45262   3.544   3.920   0.134
15007WAT     H145263   3.587   3.883   0.216
15007WAT     H245264   3.530   4.018   0.145
15008WAT      O45265   0.985   6.313   7.488
15008WAT     H145266   0.919   6.277   7.553
15008WAT     H245267   1.029   6.238   7.440
15009WAT      O45268   0.822   6.585   5.496
15009WAT     H145269   0.784   6.604   5.586
15009WAT     H245270   0.893   6.653   5.475
15010WAT      O45271   0.633   1.031   7.877
15010WAT     H145272   0.621   1.114   7.931
15010WAT     H245273   0.729   1.022   7.850
15011WAT      O45274   6.194   4.327   6.681
15011WAT     H145275   6.162   4.235   6.703
15011WAT     H245276   6.235   4.327   6.590
15012WAT      O45277   5.270   3.924   6.900
15012WAT     H145278   5.352   3.873   6.876
15012WAT     H245279   5.202   3.862   6.938
15013WAT      O45280   9.441   5.243   5.411
15013WAT     H145281   9.425   5.268   5.315
15013WAT     H245282   9.367   5.280   5.467
15014WAT      O45283   3.601   0.519   3.217
15014WAT     H145284   3.650   0.606   3.223
15014WAT     H245285   3.534   0.524   3.143
15015WAT      O45286   7.138   5.694   4.958
15015WAT     H145287   7.080   5.755   5.011
15015WAT     H245288   7.081   5.630   4.906
15016WAT      O45289   5.530   5.395   0.502
15016WAT     H145290   5.476   5.468   0.459
15016WAT     H245291   5.616   5.433   0.535
15017WAT      O45292   0.951   2.759   5.752
15017WAT     H145293   0.942   2.857   5.737
15017WAT     H245294   0.883   2.711   5.697
15018WAT      O45295   6.229   4.478   3.677
15018WAT     H145296   6.242   4.559   3.620
15018WAT     H245297   6.318   4.444   3.708
15019WAT      O45298   3.127   7.578   7.020
15019WAT     H145299   3.078   7.500   6.982
15019WAT     H245300   3.222   7.552   7.038
15020WAT      O45301   6.530   4.535   2.317
15020WAT     H145302   6.455   4.500   2.261
15020WAT     H245303   6.499   4.544   2.412
15021WAT      O45304   7.023   8.743   0.594
15021WAT     H145305   7.110   8.792   0.587
15021WAT     H245306   6.950   8.808   0.612
15022WAT      O45307   8.214   9.387   2.621
15022WAT     H145308   8.270   9.462   2.587
15022WAT     H245309   8.198   9.321   2.548
15023WAT      O45310   8.004   8.997   2.250
15023WAT     H145311   8.072   9.040   2.308
15023WAT     H245312   7.918   9.049   2.254
15024WAT      O45313   0.572   5.514   1.035
15024WAT     H145314   0.532   5.473   0.953
15024WAT     H245315   0.545   5.610   1.040
15025WAT      O45316   5.818   2.069   2.087
15025WAT     H145317   5.853   1.976   2.095
15025WAT     H245318   5.863   2.116   2.012
15026WAT      O45319   5.146   0.077   9.546
15026WAT     H145320   5.207   0.134   9.492
15026WAT     H245321   5.134  -0.012   9.502
15027WAT      O45322   8.713   1.511   7.248
15027WAT     H145323   8.811   1.512   7.227
15027WAT     H245324   8.701   1.514   7.348
15028WAT      O45325   3.576   8.897   2.280
15028WAT     H145326   3.484   8.886   2.240
15028WAT     H245327   3.638   8.831   2.238
15029WAT      O45328   6.786   5.577   2.649
15029WAT     H145329   6.833   5.662   2.627
15029WAT     H245330   6.695   5.597   2.684
15030WAT      O45331   6.051   8.887   5.266
15030WAT     H145332   6.064   8.791   5.288
15030WAT     H245333   5.992   8.929   5.335
15031WAT      O45334   7.518   0.282   9.466
15031WAT     H145335   7.421   0.296   9.484
15031WAT     H245336   7.543   0.187   9.488
15032WAT      O45337   0.292   0.229   6.076
15032WAT     H145338   0.289   0.314   6.129
15032WAT     H245339   0.310   0.250   5.980
15033WAT      O45340   8.896   9.401   0.651
15033WAT     H145341   8.846   9.431   0.732
15033WAT     H245342   8.922   9.305   0.661
15034WAT      O45343   8.938   9.833   0.630
15034WAT     H145344   8.882   9.916   0.620
15034WAT     H245345   9.030   9.851   0.597
15035WAT      O45346   6.347   6.341   7.953
15035WAT     H145347   6.423   6.406   7.956
15035WAT     H245348   6.276   6.374   7.891
15036WAT      O45349   2.649   1.732   1.018
15036WAT     H145350   2.743   1.747   0.986
15036WAT     H245351   2.585   1.775   0.954
15037WAT      O45352   8.100   6.180   1.994
15037WAT     H145353   8.060   6.131   2.072
15037WAT     H245354   8.174   6.239   2.026
15038WAT      O45355   8.188   1.215   2.329
15038WAT     H145356   8.166   1.218   2.232
15038WAT     H245357   8.247   1.137   2.348
15039WAT      O45358   6.070   1.301   7.794
15039WAT     H145359   6.162   1.263   7.793
15039WAT     H245360   6.051   1.347   7.708
15040WAT      O45361   2.415   6.660   9.128
15040WAT     H145362   2.472   6.578   9.127
15040WAT     H245363   2.464   6.735   9.083
15041WAT      O45364   4.830   2.013   7.931
15041WAT     H145365   4.855   1.924   7.893
15041WAT     H245366   4.806   2.002   8.027
15042WAT      O45367   1.973   1.440   9.556
15042WAT     H145368   2.072   1.450   9.564
15042WAT     H245369   1.930   1.465   9.642
15043WAT      O45370   2.604   0.287   7.325
15043WAT     H145371   2.675   0.252   7.386
15043WAT     H245372   2.643   0.309   7.236
15044WAT      O45373   8.295   5.651   4.529
15044WAT     H145374   8.359   5.727   4.541
15044WAT     H245375   8.326   5.573   4.583
15045WAT      O45376   7.352   8.823   5.352
15045WAT     H145377   7.405   8.874   5.420
15045WAT     H245378   7.255   8.844   5.363
15046WAT      O45379   1.178   6.056   7.053
15046WAT     H145380   1.150   5.988   7.122
15046WAT     H245381   1.277   6.053   7.041
15047WAT      O45382   0.998   5.982   7.629
15047WAT     H145383   0.962   6.073   7.650
15047WAT     H245384   1.043   5.944   7.709
15048WAT      O45385   3.412   8.296   6.503
15048WAT     H145386   3.412   8.390   6.538
15048WAT     H245387   3.395   8.298   6.404
15049WAT      O45388   6.908   5.079   9.154
15049WAT     H145389   6.988   5.139   9.147
15049WAT     H245390   6.833   5.118   9.101
15050WAT      O45391   6.532   9.550   5.608
15050WAT     H145392   6.523   9.508   5.518
15050WAT     H245393   6.623   9.531   5.645
15051WAT      O45394   0.701   0.282   2.214
15051WAT     H145395   0.629   0.352   2.212
15051WAT     H245396   0.662   0.195   2.184
15052WAT      O45397   5.319   6.923   1.827
15052WAT     H145398   5.283   6.952   1.916
15052WAT     H245399   5.332   6.824   1.827
15053WAT      O45400   3.284   8.432   4.856
15053WAT     H145401   3.318   8.458   4.946
15053WAT     H245402   3.361   8.424   4.793
15054WAT      O45403   2.274   5.858   3.129
15054WAT     H145404   2.303   5.880   3.222
15054WAT     H245405   2.305   5.930   3.066
15055WAT      O45406   0.945   7.649   7.878
15055WAT     H145407   0.897   7.609   7.800
15055WAT     H245408   0.901   7.620   7.963
15056WAT      O45409   7.511   1.176   1.838
15056WAT     H145410   7.458   1.092   1.849
15056WAT     H245411   7.474   1.230   1.762
15057WAT      O45412   5.571   8.814   8.894
15057WAT     H145413   5.503   8.875   8.854
15057WAT     H245414   5.633   8.866   8.952
15058WAT      O45415   9.888   5.242   4.527
15058WAT     H145416   9.836   5.199   4.453
15058WAT     H245417   9.929   5.327   4.494
15059WAT      O45418   6.354   9.653   7.664
15059WAT     H145419   6.399   9.570   7.697
15059WAT     H245420   6.343   9.649   7.565
15060WAT      O45421   0.614   6.464   5.930
15060WAT     H145422   0.516   6.483   5.922
15060WAT     H245423   0.634   6.428   6.021
15061WAT      O45424   6.774   6.358   3.266
15061WAT     H145425   6.711   6.282   3.251
15061WAT     H245426   6.854   6.325   3.316
15062WAT      O45427   3.904   5.950   5.529
15062WAT     H145428   3.890   5.907   5.618
15062WAT     H245429   3.816   5.963   5.484
15063WAT      O45430   2.742   1.119   9.715
15063WAT     H145431   2.837   1.106   9.742
15063WAT     H245432   2.713   1.212   9.734
15064WAT      O45433   1.349   3.741   8.065
15064WAT     H145434   1.403   3.799   8.004
15064WAT     H245435   1.410   3.682   8.118
15065WAT      O45436   9.577   8.161   3.850
15065WAT     H145437   9.566   8.233   3.918
15065WAT     H245438   9.491   8.146   3.802
15066WAT      O45439   0.688   5.265   7.672
15066WAT     H145440   0.695   5.170   7.641
15066WAT     H245441   0.758   5.320   7.625
15067WAT      O45442   6.011   5.020   7.867
15067WAT     H145443   5.931   5.002   7.925
15067WAT     H245444   6.007   4.961   7.786
15068WAT      O45445   4.988   5.094   2.327
15068WAT     H145446   4.952   5.019   2.271
15068WAT     H245447   4.950   5.181   2.295
15069WAT      O45448   0.375   6.731   4.749
15069WAT     H145449   0.281   6.763   4.765
15069WAT     H245450   0.432   6.809   4.722
15070WAT      O45451   8.888   0.860   4.414
15070WAT     H145452   8.979   0.846   4.374
15070WAT     H245453   8.823   0.884   4.341
15071WAT      O45454   9.077   0.187   3.183
15071WAT     H145455   9.138   0.202   3.261
15071WAT     H245456   9.039   0.274   3.153
15072WAT      O45457   6.085   6.528   7.212
15072WAT     H145458   6.121   6.622   7.214
15072WAT     H245459   6.010   6.523   7.146
15073WAT      O45460   5.824   4.692   1.899
15073WAT     H145461   5.760   4.716   1.971
15073WAT     H245462   5.914   4.731   1.921
15074WAT      O45463   5.727   1.622   6.966
15074WAT     H145464   5.766   1.537   6.930
15074WAT     H245465   5.797   1.694   6.963
15075WAT      O45466   5.314   5.768   3.174
15075WAT     H145467   5.348   5.681   3.138
15075WAT     H245468   5.359   5.843   3.127
15076WAT      O45469   5.437   8.560   5.584
15076WAT     H145470   5.357   8.569   5.526
15076WAT     H245471   5.463   8.650   5.619
15077WAT      O45472   8.311   6.242   3.920
15077WAT     H145473   8.337   6.193   4.004
15077WAT     H245474   8.217   6.274   3.928
15078WAT      O45475   9.406   4.280   1.982
15078WAT     H145476   9.479   4.348   1.976
15078WAT     H245477   9.397   4.233   1.895
15079WAT      O45478   6.950   4.292   2.735
15079WAT     H145479   6.893   4.285   2.817
15079WAT     H245480   7.028   4.352   2.754
15080WAT      O45481   2.752   8.849   4.334
15080WAT     H145482   2.691   8.924   4.310
15080WAT     H245483   2.839   8.885   4.366
15081WAT      O45484   8.007   8.901   9.718
15081WAT     H145485   8.055   8.984   9.688
15081WAT     H245486   8.024   8.885   9.815
15082WAT      O45487   2.739   7.009   8.518
15082WAT     H145488   2.673   7.013   8.593
15082WAT     H245489   2.825   7.052   8.547
15083WAT      O45490   9.544   2.783   4.013
15083WAT     H145491   9.585   2.870   4.038
15083WAT     H245492   9.611   2.727   3.965
15084WAT      O45493   0.130   1.011   8.037
15084WAT     H145494   0.151   0.922   7.997
15084WAT     H245495   0.166   1.016   8.130
15085WAT      O45496   3.717   3.867   8.152
15085WAT     H145497   3.792   3.920   8.191
15085WAT     H245498   3.753   3.788   8.104
15086WAT      O45499   8.565   0.490   6.211
15086WAT     H145500   8.663   0.480   6.194
15086WAT     H245501   8.515   0.420   6.160
15087WAT      O45502   2.299   0.226   3.625
15087WAT     H145503   2.235   0.302   3.633
15087WAT     H245504   2.271   0.167   3.549
15088WAT      O45505   4.359   1.639   3.025
15088WAT     H145506   4.335   1.735   3.040
15088WAT     H245507   4.276   1.583   3.032
15089WAT      O45508   7.618   6.780   2.584
15089WAT     H145509   7.592   6.739   2.671
15089WAT     H245510   7.548   6.760   2.516
15090WAT      O45511   4.244   2.443   7.243
15090WAT     H145512   4.332   2.405   7.271
15090WAT     H245513   4.171   2.405   7.301
15091WAT      O45514   1.267   7.261   5.982
15091WAT     H145515   1.219   7.212   5.910
15091WAT     H245516   1.329   7.328   5.941
15092WAT      O45517   8.076   2.454   4.139
15092WAT     H145518   8.056   2.545   4.102
15092WAT     H245519   8.080   2.388   4.064
15093WAT      O45520   2.914   7.902   1.865
15093WAT     H145521   2.910   7.949   1.953
15093WAT     H245522   3.008   7.873   1.847
15094WAT      O45523   3.630   0.988   0.525
15094WAT     H145524   3.533   1.006   0.509
15094WAT     H245525   3.648   0.891   0.513
15095WAT      O45526   7.300   2.559   9.372
15095WAT     H145527   7.248   2.492   9.319
15095WAT     H245528   7.242   2.637   9.392
15096WAT      O45529   3.944   7.591   6.910
15096WAT     H145530   4.015   7.657   6.934
15096WAT     H245531   3.892   7.567   6.992
15097WAT      O45532   8.152   3.877   9.606
15097WAT     H145533   8.223   3.886   9.536
15097WAT     H245534   8.160   3.952   9.671
15098WAT      O45535   3.638   9.757   0.833
15098WAT     H145536   3.708   9.827   0.848
15098WAT     H245537   3.631   9.698   0.913
15099WAT      O45538   8.479   1.527   7.110
15099WAT     H145539   8.397   1.526   7.166
15099WAT     H245540   8.560   1.515   7.169
15100WAT      O45541   3.749   1.182   8.549
15100WAT     H145542   3.754   1.146   8.456
15100WAT     H245543   3.840   1.178   8.591
15101WAT      O45544   1.971   9.195   0.729
15101WAT     H145545   1.998   9.277   0.780
15101WAT     H245546   2.041   9.172   0.662
15102WAT      O45547   3.966   0.676   0.788
15102WAT     H145548   4.057   0.646   0.761
15102WAT     H245549   3.897   0.620   0.742
15103WAT      O45550   3.631   9.468   5.545
15103WAT     H145551   3.671   9.377   5.535
15103WAT     H245552   3.688   9.522   5.607
15104WAT      O45553   6.405   2.532   4.056
15104WAT     H145554   6.496   2.518   4.017
15104WAT     H245555   6.414   2.557   4.153
15105WAT      O45556   2.856   4.973   8.750
15105WAT     H145557   2.856   4.894   8.811
15105WAT     H245558   2.876   5.056   8.803
15106WAT      O45559   4.637   4.133   1.451
15106WAT     H145560   4.703   4.208   1.448
15106WAT     H245561   4.683   4.049   1.480
15107WAT      O45562   5.126   5.437   7.081
15107WAT     H145563   5.174   5.397   7.003
15107WAT     H245564   5.136   5.377   7.161
15108WAT      O45565   4.577   3.845   5.760
15108WAT     H145566   4.556   3.933   5.717
15108WAT     H245567   4.660   3.855   5.816
15109WAT      O45568   1.932   0.675   7.317
15109WAT     H145569   1.948   0.767   7.353
15109WAT     H245570   1.860   0.630   7.370
15110WAT      O45571   0.126   6.408   5.829
15110WAT     H145572   0.067   6.445   5.900
15110WAT     H245573   0.072   6.388   5.747
15111WAT      O45574   9.144   4.967   1.125
15111WAT     H145575   9.157   4.868   1.124
15111WAT     H245576   9.119   4.996   1.218
15112WAT      O45577   9.786   5.179   4.281
15112WAT     H145578   9.729   5.099   4.262
15112WAT     H245579   9.769   5.249   4.211
15113WAT      O45580   4.698   9.555   4.156
15113WAT     H145581   4.722   9.650   4.176
15113WAT     H245582   4.669   9.547   4.061
15114WAT      O45583   3.182   8.652   1.710
15114WAT     H145584   3.146   8.741   1.737
15114WAT     H245585   3.218   8.605   1.791
15115WAT      O45586   8.036   0.362   9.794
15115WAT     H145587   8.121   0.312   9.812
15115WAT     H245588   8.009   0.414   9.875
15116WAT      O45589   4.363   0.598   9.490
15116WAT     H145590   4.268   0.614   9.516
15116WAT     H245591   4.422   0.665   9.536
15117WAT      O45592   6.230   6.437   5.256
15117WAT     H145593   6.151   6.476   5.210
15117WAT     H245594   6.289   6.511   5.290
15118WAT      O45595   8.901   1.240   3.158
15118WAT     H145596   8.848   1.325   3.155
15118WAT     H245597   8.868   1.182   3.233
15119WAT      O45598   4.932   7.968   2.302
15119WAT     H145599   4.929   7.962   2.402
15119WAT     H245600   4.880   8.048   2.272
15120WAT      O45601   5.555   9.684   2.413
15120WAT     H145602   5.500   9.767   2.421
15120WAT     H245603   5.524   9.617   2.480
15121WAT      O45604   3.491   6.600   5.279
15121WAT     H145605   3.443   6.553   5.206
15121WAT     H245606   3.459   6.695   5.285
15122WAT      O45607   6.332   8.510   7.127
15122WAT     H145608   6.365   8.420   7.155
15122WAT     H245609   6.245   8.499   7.077
15123WAT      O45610   1.582   5.201   2.879
15123WAT     H145611   1.570   5.170   2.973
15123WAT     H245612   1.528   5.143   2.818
15124WAT      O45613   5.349   3.737   6.541
15124WAT     H145614   5.449   3.744   6.539
15124WAT     H245615   5.319   3.669   6.474
15125WAT      O45616   9.466   5.727   7.573
15125WAT     H145617   9.494   5.818   7.545
15125WAT     H245618   9.430   5.731   7.667
15126WAT      O45619   8.213   4.886   7.122
15126WAT     H145620   8.167   4.962   7.075
15126WAT     H245621   8.198   4.801   7.071
15127WAT      O45622   5.143   8.411   4.974
15127WAT     H145623   5.163   8.508   4.962
15127WAT     H245624   5.223   8.364   5.012
15128WAT      O45625   3.797   2.478   2.206
15128WAT     H145626   3.737   2.526   2.270
15128WAT     H245627   3.885   2.460   2.249
15129WAT      O45628   9.688   5.751   4.577
15129WAT     H145629   9.640   5.821   4.629
15129WAT     H245630   9.731   5.686   4.640
15130WAT      O45631   4.584   1.663   8.723
15130WAT     H145632   4.608   1.733   8.656
15130WAT     H245633   4.660   1.652   8.787
15131WAT      O45634   7.704   3.395   6.764
15131WAT     H145635   7.658   3.427   6.847
15131WAT     H245636   7.748   3.307   6.782
15132WAT      O45637   2.610   7.404   9.775
15132WAT     H145638   2.675   7.450   9.835
15132WAT     H245639   2.516   7.426   9.803
15133WAT      O45640   5.869   2.585   4.720
15133WAT     H145641   5.905   2.497   4.752
15133WAT     H245642   5.855   2.581   4.621
15134WAT      O45643   7.742   0.472   2.830
15134WAT     H145644   7.664   0.460   2.892
15134WAT     H245645   7.738   0.563   2.789
15135WAT      O45646   7.407   8.062   5.242
15135WAT     H145647   7.431   8.113   5.159
15135WAT     H245648   7.469   7.984   5.251
15136WAT      O45649   2.997   4.805   6.319
15136WAT     H145650   3.031   4.755   6.398
15136WAT     H245651   2.977   4.742   6.244
15137WAT      O45652   8.385   9.005   9.648
15137WAT     H145653   8.365   8.908   9.662
15137WAT     H245654   8.453   9.035   9.715
15138WAT      O45655   4.744   2.269   0.526
15138WAT     H145656   4.818   2.254   0.591
15138WAT     H245657   4.662   2.218   0.556
15139WAT      O45658   4.819   9.722   8.823
15139WAT     H145659   4.766   9.666   8.760
15139WAT     H245660   4.861   9.664   8.893
15140WAT      O45661   9.621   8.367   3.562
15140WAT     H145662   9.684   8.433   3.603
15140WAT     H245663   9.663   8.277   3.561
15141WAT      O45664   2.288   6.188   4.962
15141WAT     H145665   2.246   6.102   4.990
15141WAT     H245666   2.384   6.172   4.938
15142WAT      O45667   0.131   0.783   2.556
15142WAT     H145668   0.070   0.854   2.592
15142WAT     H245669   0.226   0.807   2.579
15143WAT      O45670   2.358   6.972   0.817
15143WAT     H145671   2.348   6.971   0.718
15143WAT     H245672   2.267   6.969   0.860
15144WAT      O45673   1.513   8.333   0.367
15144WAT     H145674   1.609   8.327   0.395
15144WAT     H245675   1.458   8.365   0.445
15145WAT      O45676   7.031   7.891   4.790
15145WAT     H145677   7.022   7.812   4.730
15145WAT     H245678   6.963   7.886   4.863
15146WAT      O45679   9.240   7.083   6.141
15146WAT     H145680   9.143   7.075   6.163
15146WAT     H245681   9.292   7.018   6.196
15147WAT      O45682   5.169   4.789   6.987
15147WAT     H145683   5.260   4.747   6.990
15147WAT     H245684   5.178   4.889   6.986
15148WAT      O45685   3.559   1.006   7.489
15148WAT     H145686   3.535   1.090   7.537
15148WAT     H245687   3.656   0.986   7.503
15149WAT      O45688   4.641   3.750   6.634
15149WAT     H145689   4.548   3.786   6.633
15149WAT     H245690   4.643   3.664   6.685
15150WAT      O45691   9.257   3.175   8.915
15150WAT     H145692   9.337   3.129   8.953
15150WAT     H245693   9.174   3.139   8.959
15151WAT      O45694   3.667   2.427   4.565
15151WAT     H145695   3.606   2.487   4.513
15151WAT     H245696   3.694   2.350   4.507
15152WAT      O45697   3.066   5.451   7.691
15152WAT     H145698   3.137   5.521   7.692
15152WAT     H245699   3.000   5.472   7.618
15153WAT      O45700   3.427   1.624   7.673
15153WAT     H145701   3.417   1.701   7.736
15153WAT     H245702   3.522   1.593   7.673
15154WAT      O45703   2.167   0.999   3.148
15154WAT     H145704   2.159   0.957   3.239
15154WAT     H245705   2.242   0.956   3.098
15155WAT      O45706   0.759   4.598   4.527
15155WAT     H145707   0.704   4.655   4.466
15155WAT     H245708   0.783   4.513   4.480
15156WAT      O45709   1.330   9.615   1.452
15156WAT     H145710   1.382   9.602   1.536
15156WAT     H245711   1.286   9.530   1.425
15157WAT      O45712   4.566   5.698   4.485
15157WAT     H145713   4.489   5.641   4.456
15157WAT     H245714   4.650   5.665   4.442
15158WAT      O45715   4.609   7.603   3.732
15158WAT     H145716   4.687   7.667   3.724
15158WAT     H245717   4.564   7.617   3.820
15159WAT      O45718   6.725   6.156   6.662
15159WAT     H145719   6.748   6.144   6.566
15159WAT     H245720   6.704   6.067   6.703
15160WAT      O45721   9.624   5.591   5.652
15160WAT     H145722   9.655   5.505   5.612
15160WAT     H245723   9.613   5.659   5.580
15161WAT      O45724   6.846   0.214   8.084
15161WAT     H145725   6.859   0.307   8.120
15161WAT     H245726   6.818   0.219   7.988
15162WAT      O45727   3.983   5.862   1.320
15162WAT     H145728   3.952   5.837   1.229
15162WAT     H245729   3.964   5.959   1.336
15163WAT      O45730   8.587   4.214   9.384
15163WAT     H145731   8.489   4.207   9.403
15163WAT     H245732   8.616   4.134   9.331
15164WAT      O45733   7.129   9.169   6.364
15164WAT     H145734   7.060   9.124   6.420
15164WAT     H245735   7.215   9.118   6.369
15165WAT      O45736   4.824   5.354   8.746
15165WAT     H145737   4.760   5.409   8.692
15165WAT     H245738   4.777   5.273   8.780
15166WAT      O45739   5.269   7.890   4.311
15166WAT     H145740   5.352   7.835   4.301
15166WAT     H245741   5.245   7.930   4.223
15167WAT      O45742   8.794   3.519   3.122
15167WAT     H145743   8.710   3.571   3.128
15167WAT     H245744   8.868   3.570   3.166
15168WAT      O45745   5.943   8.307   5.864
15168WAT     H145746   5.965   8.316   5.961
15168WAT     H245747   5.931   8.211   5.841
15169WAT      O45748   7.618   7.689   1.648
15169WAT     H145749   7.603   7.690   1.549
15169WAT     H245750   7.594   7.778   1.686
15170WAT      O45751   6.298   6.296   2.424
15170WAT     H145752   6.228   6.243   2.473
15170WAT     H245753   6.314   6.255   2.335
15171WAT      O45754   8.826   0.036   1.450
15171WAT     H145755   8.921   0.060   1.427
15171WAT     H245756   8.810   0.053   1.547
15172WAT      O45757   5.191   5.053   7.029
15172WAT     H145758   5.266   5.115   7.007
15172WAT     H245759   5.107   5.087   6.986
15173WAT      O45760   8.107   0.061   4.613
15173WAT     H145761   8.012   0.033   4.628
15173WAT     H245762   8.140   0.021   4.528
15174WAT      O45763   6.498   6.087   1.474
15174WAT     H145764   6.492   6.187   1.471
15174WAT     H245765   6.523   6.058   1.566
15175WAT      O45766   7.211   6.163   2.552
15175WAT     H145767   7.186   6.087   2.613
15175WAT     H245768   7.229   6.127   2.460
15176WAT      O45769   7.403   6.615   2.391
15176WAT     H145770   7.456   6.583   2.312
15176WAT     H245771   7.393   6.540   2.457
15177WAT      O45772   3.252   6.657   1.940
15177WAT     H145773   3.274   6.745   1.982
15177WAT     H245774   3.209   6.598   2.008
15178WAT      O45775   9.140   6.566   8.227
15178WAT     H145776   9.126   6.479   8.274
15178WAT     H245777   9.236   6.575   8.202
15179WAT      O45778   2.164   6.600   1.557
15179WAT     H145779   2.145   6.601   1.655
15179WAT     H245780   2.093   6.651   1.508
15180WAT      O45781   7.137   6.802   6.201
15180WAT     H145782   7.093   6.891   6.188
15180WAT     H245783   7.232   6.808   6.173
15181WAT      O45784   6.400   1.499   3.385
15181WAT     H145785   6.454   1.523   3.304
15181WAT     H245786   6.396   1.577   3.448
15182WAT      O45787   8.270   8.139   8.200
15182WAT     H145788   8.292   8.154   8.296
15182WAT     H245789   8.172   8.147   8.186
15183WAT      O45790   9.375   9.397   9.618
15183WAT     H145791   9.308   9.355   9.679
15183WAT     H245792   9.436   9.326   9.581
15184WAT      O45793   2.193   9.762   2.436
15184WAT     H145794   2.241   9.807   2.511
15184WAT     H245795   2.233   9.672   2.419
15185WAT      O45796   2.509   1.573   3.888
15185WAT     H145797   2.550   1.488   3.921
15185WAT     H245798   2.416   1.554   3.855
15186WAT      O45799   3.168   3.498   1.531
15186WAT     H145800   3.207   3.413   1.566
15186WAT     H245801   3.078   3.480   1.492
15187WAT      O45802   8.317   3.363   1.014
15187WAT     H145803   8.361   3.438   1.063
15187WAT     H245804   8.346   3.276   1.053
15188WAT      O45805   8.179   4.767   1.419
15188WAT     H145806   8.268   4.748   1.376
15188WAT     H245807   8.118   4.808   1.352
15189WAT      O45808   2.254   4.068   2.560
15189WAT     H145809   2.343   4.110   2.577
15189WAT     H245810   2.185   4.115   2.615
15190WAT      O45811   6.570   6.773   8.120
15190WAT     H145812   6.477   6.738   8.113
15190WAT     H245813   6.568   6.873   8.111
15191WAT      O45814   3.086   5.829   5.054
15191WAT     H145815   2.999   5.826   5.103
15191WAT     H245816   3.087   5.761   4.981
15192WAT      O45817   5.996   2.270   9.848
15192WAT     H145818   6.062   2.344   9.856
15192WAT     H245819   6.025   2.193   9.904
15193WAT      O45820   0.529   7.898   9.659
15193WAT     H145821   0.578   7.885   9.573
15193WAT     H245822   0.466   7.823   9.674
15194WAT      O45823   4.178   0.097   1.950
15194WAT     H145824   4.249   0.156   1.988
15194WAT     H245825   4.205   0.067   1.858
15195WAT      O45826   7.354   5.624   3.619
15195WAT     H145827   7.407   5.599   3.538
15195WAT     H245828   7.370   5.556   3.691
15196WAT      O45829   4.667   8.313   4.164
15196WAT     H145830   4.682   8.325   4.065
15196WAT     H245831   4.647   8.402   4.205
15197WAT      O45832   8.449   1.987   2.038
15197WAT     H145833   8.374   2.053   2.045
15197WAT     H245834   8.464   1.963   1.943
15198WAT      O45835   4.610   4.725   2.843
15198WAT     H145836   4.520   4.682   2.851
15198WAT     H245837   4.671   4.664   2.792
15199WAT      O45838   1.049   3.070   9.440
15199WAT     H145839   1.044   2.984   9.489
15199WAT     H245840   1.145   3.093   9.423
15200WAT      O45841   6.126   6.498   2.880
15200WAT     H145842   6.191   6.495   2.804
15200WAT     H245843   6.146   6.577   2.938
15201WAT      O45844   9.151   3.269   1.019
15201WAT     H145845   9.158   3.176   1.055
15201WAT     H245846   9.240   3.299   0.986
15202WAT      O45847   2.255   4.527   1.188
15202WAT     H145848   2.277   4.593   1.117
15202WAT     H245849   2.166   4.485   1.169
15203WAT      O45850   4.207   7.233   1.346
15203WAT     H145851   4.293   7.215   1.393
15203WAT     H245852   4.131   7.218   1.410
15204WAT      O45853   1.907   0.743   4.326
15204WAT     H145854   1.812   0.776   4.325
15204WAT     H245855   1.953   0.769   4.242
15205WAT      O45856   9.396   0.632   7.968
15205WAT     H145857   9.483   0.680   7.983
15205WAT     H245858   9.415   0.540   7.934
15206WAT      O45859   3.655   9.111   4.459
15206WAT     H145860   3.628   9.207   4.464
15206WAT     H245861   3.636   9.066   4.547
15207WAT      O45862   5.642   8.871   5.328
15207WAT     H145863   5.662   8.779   5.360
15207WAT     H245864   5.619   8.868   5.231
15208WAT      O45865   4.941   7.652   2.638
15208WAT     H145866   5.005   7.714   2.593
15208WAT     H245867   4.894   7.700   2.712
15209WAT      O45868   7.706   5.632   2.955
15209WAT     H145869   7.747   5.577   2.882
15209WAT     H245870   7.716   5.584   3.042
15210WAT      O45871   0.147   9.354   6.420
15210WAT     H145872   0.194   9.435   6.386
15210WAT     H245873   0.091   9.314   6.348
15211WAT      O45874   6.482   5.424   4.545
15211WAT     H145875   6.473   5.440   4.447
15211WAT     H245876   6.405   5.369   4.577
15212WAT      O45877   8.086   0.227   6.601
15212WAT     H145878   8.170   0.222   6.546
15212WAT     H245879   8.077   0.142   6.654
15213WAT      O45880   6.770   8.629   4.492
15213WAT     H145881   6.827   8.700   4.534
15213WAT     H245882   6.766   8.550   4.553
15214WAT      O45883   4.630   5.351   5.012
15214WAT     H145884   4.565   5.338   4.937
15214WAT     H245885   4.722   5.327   4.982
15215WAT      O45886   2.036   1.512   2.902
15215WAT     H145887   2.021   1.518   3.001
15215WAT     H245888   1.952   1.484   2.857
15216WAT      O45889   6.437   7.681   5.342
15216WAT     H145890   6.487   7.746   5.286
15216WAT     H245891   6.355   7.724   5.378
15217WAT      O45892   5.315   4.859   8.489
15217WAT     H145893   5.255   4.812   8.424
15217WAT     H245894   5.260   4.914   8.552
15218WAT      O45895   3.868   9.756   8.762
15218WAT     H145896   3.806   9.801   8.827
15218WAT     H245897   3.960   9.794   8.773
15219WAT      O45898   1.873   9.417   5.554
15219WAT     H145899   1.940   9.349   5.524
15219WAT     H245900   1.781   9.381   5.538
15220WAT      O45901   6.256   5.867   0.108
15220WAT     H145902   6.236   5.944   0.168
15220WAT     H245903   6.353   5.843   0.115
15221WAT      O45904   9.219   5.932   5.405
15221WAT     H145905   9.152   5.926   5.331
15221WAT     H245906   9.297   5.987   5.374
15222WAT      O45907   5.776   0.154   5.129
15222WAT     H145908   5.721   0.223   5.083
15222WAT     H245909   5.716   0.091   5.179
15223WAT      O45910   0.689   7.371   8.167
15223WAT     H145911   0.738   7.454   8.140
15223WAT     H245912   0.687   7.307   8.090
15224WAT      O45913   8.630   2.275   6.924
15224WAT     H145914   8.631   2.215   6.844
15224WAT     H245915   8.593   2.224   7.002
15225WAT      O45916   1.301   8.824   9.030
15225WAT     H145917   1.366   8.895   9.058
15225WAT     H245918   1.339   8.734   9.049
15226WAT      O45919   1.864   1.851   3.565
15226WAT     H145920   1.953   1.843   3.521
15226WAT     H245921   1.868   1.922   3.636
15227WAT      O45922   5.375   8.606   5.190
15227WAT     H145923   5.394   8.515   5.153
15227WAT     H245924   5.359   8.670   5.114
15228WAT      O45925   8.754   6.285   9.754
15228WAT     H145926   8.789   6.197   9.785
15228WAT     H245927   8.666   6.273   9.709
15229WAT      O45928   5.250   6.890   2.340
15229WAT     H145929   5.339   6.850   2.320
15229WAT     H245930   5.211   6.846   2.421
15230WAT      O45931   0.051   8.107   6.375
15230WAT     H145932   0.016   8.020   6.411
15230WAT     H245933  -0.021   8.176   6.379
15231WAT      O45934   1.752   0.069   1.902
15231WAT     H145935   1.796   0.153   1.934
15231WAT     H245936   1.677   0.045   1.963
15232WAT      O45937   1.630   1.440   4.461
15232WAT     H145938   1.620   1.352   4.415
15232WAT     H245939   1.547   1.494   4.447
15233WAT      O45940   6.982   6.976   7.027
15233WAT     H145941   6.994   7.054   6.966
15233WAT     H245942   6.913   6.914   6.990
15234WAT      O45943   2.403   8.792   8.765
15234WAT     H145944   2.431   8.861   8.699
15234WAT     H245945   2.314   8.754   8.738
15235WAT      O45946   8.401   3.411   4.316
15235WAT     H145947   8.453   3.486   4.358
15235WAT     H245948   8.342   3.368   4.384
15236WAT      O45949   2.665   9.807   1.270
15236WAT     H145950   2.751   9.808   1.220
15236WAT     H245951   2.590   9.783   1.208
15237WAT      O45952   0.655   0.044   2.126
15237WAT     H145953   0.718  -0.027   2.094
15237WAT     H245954   0.561   0.011   2.118
15238WAT      O45955   5.916   9.064   3.308
15238WAT     H145956   5.869   9.026   3.228
15238WAT     H245957   6.014   9.050   3.299
15239WAT      O45958   7.662   5.050   4.714
15239WAT     H145959   7.621   4.993   4.785
15239WAT     H245960   7.639   5.146   4.731
15240WAT      O45961   7.417   3.279   5.014
15240WAT     H145962   7.439   3.330   5.098
15240WAT     H245963   7.437   3.336   4.934
15241WAT      O45964   1.302   7.183   5.597
15241WAT     H145965   1.318   7.252   5.527
15241WAT     H245966   1.204   7.177   5.616
15242WAT      O45967   2.145   7.222   0.204
15242WAT     H145968   2.127   7.220   0.105
15242WAT     H245969   2.111   7.309   0.242
15243WAT      O45970   5.721   6.766   1.180
15243WAT     H145971   5.800   6.767   1.242
15243WAT     H245972   5.672   6.853   1.187
15244WAT      O45973   6.460   3.025   0.312
15244WAT     H145974   6.537   3.033   0.249
15244WAT     H245975   6.467   2.938   0.362
15245WAT      O45976   0.901   4.102   8.933
15245WAT     H145977   0.935   4.024   8.880
15245WAT     H245978   0.974   4.170   8.942
15246WAT      O45979   0.055   5.709   9.501
15246WAT     H145980  -0.018   5.702   9.433
15246WAT     H245981   0.076   5.805   9.517
15247WAT      O45982   8.248   4.884   3.918
15247WAT     H145983   8.306   4.914   3.843
15247WAT     H245984   8.305   4.841   3.988
15248WAT      O45985   4.057   8.581   6.999
15248WAT     H145986   4.008   8.628   6.925
15248WAT     H245987   3.994   8.520   7.047
15249WAT      O45988   3.510   2.853   8.278
15249WAT     H145989   3.508   2.759   8.244
15249WAT     H245990   3.500   2.916   8.201
15250WAT      O45991   0.108   4.725   8.425
15250WAT     H145992   0.125   4.740   8.327
15250WAT     H245993   0.017   4.688   8.438
15251WAT      O45994   9.476   0.240   2.621
15251WAT     H145995   9.511   0.202   2.535
15251WAT     H245996   9.451   0.166   2.683
15252WAT      O45997   8.411   7.213   0.495
15252WAT     H145998   8.500   7.205   0.541
15252WAT     H245999   8.338   7.188   0.558
15253WAT      O46000   3.482   7.766   8.720
15253WAT     H146001   3.422   7.763   8.800
15253WAT     H246002   3.505   7.672   8.693
15254WAT      O46003   6.974   5.327   2.370
15254WAT     H146004   7.053   5.378   2.406
15254WAT     H246005   6.987   5.230   2.387
15255WAT      O46006   6.033   4.900   1.564
15255WAT     H146007   6.033   4.881   1.662
15255WAT     H246008   6.048   4.997   1.548
15256WAT      O46009   6.222   8.142   8.444
15256WAT     H146010   6.292   8.082   8.404
15256WAT     H246011   6.179   8.195   8.371
15257WAT      O46012   6.033   0.668   5.499
15257WAT     H146013   6.026   0.606   5.422
15257WAT     H246014   6.000   0.623   5.582
15258WAT      O46015   7.631   7.069   9.878
15258WAT     H146016   7.707   7.132   9.859
15258WAT     H246017   7.557   7.119   9.922
15259WAT      O46018   5.953   0.548   5.255
15259WAT     H146019   5.864   0.562   5.299
15259WAT     H246020   5.984   0.454   5.272
15260WAT      O46021   0.147   4.256   0.568
15260WAT     H146022   0.222   4.322   0.569
15260WAT     H246023   0.184   4.164   0.578
15261WAT      O46024   3.758   8.128   3.374
15261WAT     H146025   3.832   8.182   3.335
15261WAT     H246026   3.794   8.069   3.446
15262WAT      O46027   4.140   0.176   4.736
15262WAT     H146028   4.054   0.129   4.752
15262WAT     H246029   4.157   0.184   4.638
15263WAT      O46030   4.993   7.405   6.913
15263WAT     H146031   4.995   7.417   6.814
15263WAT     H246032   5.017   7.491   6.958
15264WAT      O46033   9.578   2.948   5.452
15264WAT     H146034   9.655   2.885   5.456
15264WAT     H246035   9.555   2.978   5.544
15265WAT      O46036   5.097   4.974   8.610
15265WAT     H146037   5.007   4.969   8.568
15265WAT     H246038   5.093   4.937   8.703
15266WAT      O46039   0.962   5.724   5.342
15266WAT     H146040   1.004   5.754   5.428
15266WAT     H246041   0.974   5.625   5.332
15267WAT      O46042   7.358   0.311   0.625
15267WAT     H146043   7.381   0.389   0.567
15267WAT     H246044   7.411   0.315   0.709
15268WAT      O46045   2.510   5.364   6.855
15268WAT     H146046   2.543   5.324   6.770
15268WAT     H246047   2.465   5.451   6.835
15269WAT      O46048   6.765   6.072   8.357
15269WAT     H146049   6.702   6.024   8.418
15269WAT     H246050   6.717   6.148   8.312
15270WAT      O46051   8.895   7.026   4.912
15270WAT     H146052   8.842   7.110   4.907
15270WAT     H246053   8.976   7.041   4.969
15271WAT      O46054   2.840   0.635   4.518
15271WAT     H146055   2.940   0.634   4.514
15271WAT     H246056   2.803   0.642   4.425
15272WAT      O46057   2.874   0.730   8.556
15272WAT     H146058   2.968   0.720   8.588
15272WAT     H246059   2.818   0.768   8.629
15273WAT      O46060   8.576   6.781   1.280
15273WAT     H146061   8.480   6.765   1.258
15273WAT     H246062   8.633   6.717   1.229
15274WAT      O46063   3.200   1.000   0.714
15274WAT     H146064   3.264   0.980   0.639
15274WAT     H246065   3.237   1.075   0.770
15275WAT      O46066   7.411   1.912   3.372
15275WAT     H146067   7.473   1.989   3.360
15275WAT     H246068   7.443   1.835   3.317
15276WAT      O46069   1.504   1.822   4.501
15276WAT     H146070   1.467   1.747   4.446
15276WAT     H246071   1.494   1.800   4.598
15277WAT      O46072   5.609   0.772   8.511
15277WAT     H146073   5.574   0.680   8.529
15277WAT     H246074   5.669   0.770   8.431
15278WAT      O46075   1.330   0.569   3.486
15278WAT     H146076   1.267   0.541   3.413
15278WAT     H246077   1.283   0.564   3.574
15279WAT      O46078   2.209   5.555   1.921
15279WAT     H146079   2.235   5.567   1.825
15279WAT     H246080   2.224   5.640   1.971
15280WAT      O46081   7.788   4.421   3.282
15280WAT     H146082   7.744   4.505   3.314
15280WAT     H246083   7.861   4.396   3.345
15281WAT      O46084   9.862   1.366   5.980
15281WAT     H146085   9.822   1.319   6.058
15281WAT     H246086   9.798   1.435   5.946
15282WAT      O46087   4.364   8.893   9.835
15282WAT     H146088   4.395   8.966   9.896
15282WAT     H246089   4.264   8.891   9.832
15283WAT      O46090   8.664   4.829   5.885
15283WAT     H146091   8.582   4.771   5.892
15283WAT     H246092   8.673   4.884   5.967
15284WAT      O46093   9.051   5.338   4.540
15284WAT     H146094   9.085   5.421   4.496
15284WAT     H246095   9.105   5.319   4.623
15285WAT      O46096   6.995   6.105   5.931
15285WAT     H146097   6.977   6.069   6.022
15285WAT     H246098   7.053   6.186   5.938
15286WAT      O46099   6.374   2.000   0.103
15286WAT     H146100   6.275   2.012   0.105
15286WAT     H246101   6.414   2.057   0.032
15287WAT      O46102   4.885   2.718   8.299
15287WAT     H146103   4.890   2.643   8.232
15287WAT     H246104   4.907   2.683   8.390
15288WAT      O46105   0.117   7.355   0.492
15288WAT     H146106   0.109   7.441   0.540
15288WAT     H246107   0.035   7.299   0.508
15289WAT      O46108   6.783   6.671   1.302
15289WAT     H146109   6.846   6.695   1.228
15289WAT     H246110   6.704   6.731   1.299
15290WAT      O46111   1.235   0.351   8.250
15290WAT     H146112   1.192   0.423   8.195
15290WAT     H246113   1.219   0.263   8.206
15291WAT      O46114   7.171   1.503   1.131
15291WAT     H146115   7.238   1.429   1.119
15291WAT     H246116   7.219   1.591   1.132
15292WAT      O46117   5.223   1.244   7.340
15292WAT     H146118   5.266   1.334   7.336
15292WAT     H246119   5.139   1.245   7.285
15293WAT      O46120   3.681   6.645   9.546
15293WAT     H146121   3.707   6.695   9.629
15293WAT     H246122   3.601   6.589   9.566
15294WAT      O46123   1.364   5.281   8.241
15294WAT     H146124   1.296   5.265   8.170
15294WAT     H246125   1.336   5.358   8.298
15295WAT      O46126   3.195   0.477   4.907
15295WAT     H146127   3.295   0.482   4.906
15295WAT     H246128   3.167   0.381   4.919
15296WAT      O46129   3.989   5.278   6.975
15296WAT     H146130   4.066   5.263   7.036
15296WAT     H246131   3.931   5.197   6.973
15297WAT      O46132   2.203   6.278   4.032
15297WAT     H146133   2.217   6.376   4.026
15297WAT     H246134   2.289   6.234   4.059
15298WAT      O46135   6.030   0.337   1.975
15298WAT     H146136   6.103   0.319   2.042
15298WAT     H246137   5.988   0.250   1.948
15299WAT      O46138   1.065   4.530   1.275
15299WAT     H146139   1.113   4.483   1.200
15299WAT     H246140   0.975   4.488   1.288
15300WAT      O46141   2.835   5.139   3.180
15300WAT     H146142   2.888   5.221   3.201
15300WAT     H246143   2.848   5.071   3.252
15301WAT      O46144   8.666   9.024   4.814
15301WAT     H146145   8.588   9.070   4.856
15301WAT     H246146   8.660   9.032   4.714
15302WAT      O46147   8.488   4.791   5.127
15302WAT     H146148   8.576   4.789   5.174
15302WAT     H246149   8.438   4.874   5.153
15303WAT      O46150   2.603   6.618   4.678
15303WAT     H146151   2.519   6.608   4.731
15303WAT     H246152   2.581   6.625   4.581
15304WAT      O46153   4.502   3.722   9.181
15304WAT     H146154   4.473   3.643   9.235
15304WAT     H246155   4.452   3.803   9.212
15305WAT      O46156   7.726   2.293   0.059
15305WAT     H146157   7.728   2.380   0.011
15305WAT     H246158   7.635   2.277   0.096
15306WAT      O46159   9.115   2.418   7.352
15306WAT     H146160   9.050   2.345   7.334
15306WAT     H246161   9.146   2.457   7.266
15307WAT      O46162   0.158   3.994   6.019
15307WAT     H146163   0.123   4.086   6.038
15307WAT     H246164   0.127   3.965   5.928
15308WAT      O46165   9.775   1.019   6.684
15308WAT     H146166   9.826   0.937   6.657
15308WAT     H246167   9.715   1.046   6.610
15309WAT      O46168   1.479   1.904   3.351
15309WAT     H146169   1.379   1.907   3.354
15309WAT     H246170   1.514   1.988   3.310
15310WAT      O46171   9.667   7.561   7.260
15310WAT     H146172   9.620   7.473   7.268
15310WAT     H246173   9.605   7.635   7.290
15311WAT      O46174   1.455   0.264   6.237
15311WAT     H146175   1.488   0.300   6.324
15311WAT     H246176   1.523   0.202   6.199
15312WAT      O46177   6.951   3.402   5.553
15312WAT     H146178   6.882   3.370   5.618
15312WAT     H246179   6.948   3.501   5.545
15313WAT      O46180   6.673   4.972   2.878
15313WAT     H146181   6.635   5.028   2.952
15313WAT     H246182   6.743   5.025   2.830
15314WAT      O46183   7.814   1.069   1.070
15314WAT     H146184   7.837   1.094   1.165
15314WAT     H246185   7.845   0.975   1.052
15315WAT      O46186   8.170   4.491   4.726
15315WAT     H146187   8.220   4.552   4.665
15315WAT     H246188   8.173   4.526   4.819
15316WAT      O46189   5.501   7.773   6.367
15316WAT     H146190   5.480   7.870   6.352
15316WAT     H246191   5.525   7.759   6.463
15317WAT      O46192   6.074   0.730   3.314
15317WAT     H146193   5.983   0.753   3.279
15317WAT     H246194   6.077   0.741   3.413
15318WAT      O46195   8.926   8.937   1.527
15318WAT     H146196   8.955   8.923   1.433
15318WAT     H246197   8.854   8.871   1.550
15319WAT      O46198   1.703   8.014   0.070
15319WAT     H146199   1.713   8.103   0.026
15319WAT     H246200   1.609   8.003   0.102
15320WAT      O46201   8.308   8.884   2.482
15320WAT     H146202   8.220   8.923   2.507
15320WAT     H246203   8.320   8.796   2.528
15321WAT      O46204   1.616   8.563   9.415
15321WAT     H146205   1.612   8.647   9.469
15321WAT     H246206   1.689   8.570   9.347
15322WAT      O46207   5.846   6.985   2.124
15322WAT     H146208   5.922   6.988   2.188
15322WAT     H246209   5.764   6.952   2.171
15323WAT      O46210   1.956   8.342   3.460
15323WAT     H146211   1.974   8.378   3.552
15323WAT     H246212   1.876   8.281   3.463
15324WAT      O46213   6.241   7.634   1.975
15324WAT     H146214   6.334   7.622   2.008
15324WAT     H246215   6.237   7.712   1.912
15325WAT      O46216   1.583   9.032   5.599
15325WAT     H146217   1.638   8.952   5.621
15325WAT     H246218   1.540   9.020   5.510
15326WAT      O46219   6.101   0.305   6.764
15326WAT     H146220   6.061   0.235   6.704
15326WAT     H246221   6.051   0.305   6.851
15327WAT      O46222   8.093   5.699   3.404
15327WAT     H146223   8.031   5.767   3.443
15327WAT     H246224   8.118   5.726   3.311
15328WAT      O46225   3.341   6.308   2.560
15328WAT     H146226   3.256   6.319   2.508
15328WAT     H246227   3.396   6.235   2.519
15329WAT      O46228   3.119   0.877   4.471
15329WAT     H146229   3.041   0.934   4.498
15329WAT     H246230   3.199   0.903   4.524
15330WAT      O46231   6.015   8.934   7.971
15330WAT     H146232   6.054   8.938   7.879
15330WAT     H246233   6.030   9.020   8.018
15331WAT      O46234   0.182   9.490   2.713
15331WAT     H146235   0.100   9.438   2.739
15331WAT     H246236   0.263   9.438   2.737
15332WAT      O46237   0.371   6.661   1.334
15332WAT     H146238   0.317   6.733   1.289
15332WAT     H246239   0.455   6.646   1.283
15333WAT      O46240   7.864   4.703   0.233
15333WAT     H146241   7.853   4.748   0.145
15333WAT     H246242   7.837   4.607   0.226
15334WAT      O46243   3.849   4.495   0.948
15334WAT     H146244   3.905   4.568   0.987
15334WAT     H246245   3.904   4.440   0.886
15335WAT      O46246   5.823   5.376   4.631
15335WAT     H146247   5.747   5.430   4.595
15335WAT     H246248   5.895   5.369   4.561
15336WAT      O46249   2.017   1.142   5.895
15336WAT     H146250   1.947   1.213   5.897
15336WAT     H246251   2.107   1.184   5.904
15337WAT      O46252   4.923   1.595   9.365
15337WAT     H146253   4.953   1.530   9.295
15337WAT     H246254   4.875   1.546   9.438
15338WAT      O46255   9.247   8.349   7.868
15338WAT     H146256   9.211   8.290   7.940
15338WAT     H246257   9.224   8.445   7.889
15339WAT      O46258   6.898   4.957   7.438
15339WAT     H146259   6.841   4.884   7.401
15339WAT     H246260   6.975   4.974   7.376
15340WAT      O46261   7.818   5.767   8.062
15340WAT     H146262   7.857   5.830   7.995
15340WAT     H246263   7.891   5.731   8.121
15341WAT      O46264   2.227   4.677   8.559
15341WAT     H146265   2.253   4.582   8.575
15341WAT     H246266   2.147   4.699   8.615
15342WAT      O46267   0.991   4.319   7.731
15342WAT     H146268   0.923   4.268   7.784
15342WAT     H246269   1.044   4.377   7.792
15343WAT      O46270   8.751   3.147   7.393
15343WAT     H146271   8.786   3.102   7.310
15343WAT     H246272   8.678   3.210   7.368
15344WAT      O46273   1.293   7.087   8.503
15344WAT     H146274   1.204   7.051   8.476
15344WAT     H246275   1.365   7.024   8.475
15345WAT      O46276   5.449   1.093   8.808
15345WAT     H146277   5.356   1.128   8.817
15345WAT     H246278   5.513   1.160   8.847
15346WAT      O46279   9.455   4.281   5.279
15346WAT     H146280   9.439   4.245   5.372
15346WAT     H246281   9.436   4.379   5.278
15347WAT      O46282   5.293   1.874   7.505
15347WAT     H146283   5.381   1.912   7.532
15347WAT     H246284   5.275   1.896   7.409
15348WAT      O46285   7.595   5.751   2.745
15348WAT     H146286   7.501   5.726   2.772
15348WAT     H246287   7.658   5.727   2.819
15349WAT      O46288   8.013   0.114   3.530
15349WAT     H146289   7.937   0.127   3.595
15349WAT     H246290   8.099   0.106   3.581
15350WAT      O46291   2.227   2.119   6.934
15350WAT     H146292   2.188   2.171   6.858
15350WAT     H246293   2.300   2.173   6.977
15351WAT      O46294   5.200   8.881   6.009
15351WAT     H146295   5.223   8.805   5.948
15351WAT     H246296   5.112   8.919   5.982
15352WAT      O46297   3.661   7.614   7.492
15352WAT     H146298   3.575   7.562   7.485
15352WAT     H246299   3.675   7.666   7.408
15353WAT      O46300   3.430   4.990   1.613
15353WAT     H146301   3.405   4.894   1.599
15353WAT     H246302   3.522   4.995   1.651
15354WAT      O46303   8.543   4.176   0.064
15354WAT     H146304   8.450   4.213   0.054
15354WAT     H246305   8.604   4.221  -0.001
15355WAT      O46306   8.350   4.543   5.679
15355WAT     H146307   8.381   4.463   5.627
15355WAT     H246308   8.264   4.576   5.642
15356WAT      O46309   8.633   1.406   4.100
15356WAT     H146310   8.563   1.353   4.052
15356WAT     H246311   8.648   1.368   4.191
15357WAT      O46312   8.243   6.405   2.029
15357WAT     H146313   8.327   6.431   2.076
15357WAT     H246314   8.264   6.388   1.932
15358WAT      O46315   0.888   6.878   3.126
15358WAT     H146316   0.842   6.917   3.205
15358WAT     H246317   0.905   6.949   3.058
15359WAT      O46318   3.755   8.582   5.610
15359WAT     H146319   3.808   8.598   5.527
15359WAT     H246320   3.814   8.543   5.681
15360WAT      O46321   0.123   0.164   1.883
15360WAT     H146322   0.031   0.191   1.853
15360WAT     H246323   0.122   0.068   1.911
15361WAT      O46324   3.016   9.204   5.110
15361WAT     H146325   2.975   9.154   5.033
15361WAT     H246326   2.946   9.222   5.179
15362WAT      O46327   2.638   3.865   4.918
15362WAT     H146328   2.735   3.840   4.928
15362WAT     H246329   2.631   3.964   4.903
15363WAT      O46330   3.651   1.728   8.826
15363WAT     H146331   3.740   1.684   8.814
15363WAT     H246332   3.665   1.826   8.840
15364WAT      O46333   2.377   5.468   2.872
15364WAT     H146334   2.453   5.421   2.826
15364WAT     H246335   2.316   5.400   2.913
15365WAT      O46336   1.443   5.824   1.789
15365WAT     H146337   1.347   5.803   1.773
15365WAT     H246338   1.494   5.739   1.805
15366WAT      O46339   5.395   8.902   9.370
15366WAT     H146340   5.296   8.896   9.363
15366WAT     H246341   5.436   8.813   9.350
15367WAT      O46342   0.077   8.703   2.816
15367WAT     H146343   0.058   8.605   2.813
15367WAT     H246344  -0.000   8.753   2.777
15368WAT      O46345   4.665   7.103   8.721
15368WAT     H146346   4.675   7.047   8.639
15368WAT     H246347   4.756   7.120   8.761
15369WAT      O46348   1.870   6.357   0.119
15369WAT     H146349   1.838   6.298   0.193
15369WAT     H246350   1.868   6.452   0.149
15370WAT      O46351   9.031   2.106   2.939
15370WAT     H146352   9.125   2.075   2.951
15370WAT     H246353   9.029   2.186   2.879
15371WAT      O46354   2.259   5.530   3.890
15371WAT     H146355   2.324   5.496   3.958
15371WAT     H246356   2.196   5.595   3.934
15372WAT      O46357   8.659   2.685   8.239
15372WAT     H146358   8.672   2.587   8.254
15372WAT     H246359   8.603   2.698   8.157
15373WAT      O46360   1.762   2.438   3.574
15373WAT     H146361   1.695   2.371   3.542
15373WAT     H246362   1.818   2.469   3.498
15374WAT      O46363   0.635   1.870   6.156
15374WAT     H146364   0.706   1.837   6.217
15374WAT     H246365   0.649   1.831   6.064
15375WAT      O46366   5.641   1.140   6.471
15375WAT     H146367   5.701   1.068   6.505
15375WAT     H246368   5.613   1.119   6.377
15376WAT      O46369   6.288   0.599   6.422
15376WAT     H146370   6.377   0.588   6.468
15376WAT     H246371   6.231   0.520   6.441
15377WAT      O46372   7.010   7.903   6.807
15377WAT     H146373   6.926   7.897   6.752
15377WAT     H246374   7.083   7.852   6.762
15378WAT      O46375   3.308   6.275   6.615
15378WAT     H146376   3.395   6.298   6.659
15378WAT     H246377   3.236   6.271   6.684
15379WAT      O46378   0.786   4.313   5.697
15379WAT     H146379   0.760   4.237   5.757
15379WAT     H246380   0.873   4.351   5.727
15380WAT      O46381   0.053   1.355   3.877
15380WAT     H146382  -0.030   1.329   3.928
15380WAT     H246383   0.027   1.406   3.795
15381WAT      O46384   9.238   6.339   9.708
15381WAT     H146385   9.284   6.336   9.797
15381WAT     H246386   9.167   6.269   9.705
15382WAT      O46387   2.293   9.471   4.984
15382WAT     H146388   2.374   9.475   5.042
15382WAT     H246389   2.311   9.413   4.905
15383WAT      O46390   1.816   5.455   2.060
15383WAT     H146391   1.894   5.394   2.044
15383WAT     H246392   1.732   5.401   2.063
15384WAT      O46393   6.211   6.424   1.538
15384WAT     H146394   6.196   6.515   1.578
15384WAT     H246395   6.172   6.355   1.598
15385WAT      O46396   5.462   9.134   2.686
15385WAT     H146397   5.547   9.106   2.731
15385WAT     H246398   5.455   9.234   2.687
15386WAT      O46399   7.597   3.785   5.557
15386WAT     H146400   7.577   3.881   5.540
15386WAT     H246401   7.539   3.728   5.498
15387WAT      O46402   1.029   9.174   9.821
15387WAT     H146403   0.970   9.165   9.741
15387WAT     H246404   1.056   9.084   9.853
15388WAT      O46405   4.007   8.029   9.106
15388WAT     H146406   3.979   7.952   9.163
15388WAT     H246407   3.996   8.006   9.009
15389WAT      O46408   7.341   0.787   0.509
15389WAT     H146409   7.324   0.692   0.481
15389WAT     H246410   7.274   0.847   0.464
15390WAT      O46411   1.012   0.503   8.959
15390WAT     H146412   0.939   0.437   8.978
15390WAT     H246413   0.984   0.564   8.886
15391WAT      O46414   5.298   9.145   4.037
15391WAT     H146415   5.331   9.208   3.967
15391WAT     H246416   5.350   9.157   4.121
15392WAT      O46417   2.275   0.749   4.230
15392WAT     H146418   2.184   0.769   4.194
15392WAT     H246419   2.325   0.834   4.244
15393WAT      O46420   6.029   7.852   3.449
15393WAT     H146421   6.119   7.823   3.481
15393WAT     H246422   5.972   7.771   3.433
15394WAT      O46423   5.983   5.206   1.000
15394WAT     H146424   6.002   5.225   1.096
15394WAT     H246425   6.047   5.256   0.942
15395WAT      O46426   9.727   8.413   1.247
15395WAT     H146427   9.761   8.506   1.256
15395WAT     H246428   9.760   8.373   1.162
15396WAT      O46429   1.524   5.092   2.388
15396WAT     H146430   1.536   5.071   2.485
15396WAT     H246431   1.582   5.170   2.363
15397WAT      O46432   9.712   4.043   8.706
15397WAT     H146433   9.695   4.118   8.770
15397WAT     H246434   9.666   4.062   8.619
15398WAT      O46435   7.443   6.706   5.240
15398WAT     H146436   7.504   6.782   5.264
15398WAT     H246437   7.412   6.718   5.145
15399WAT      O46438   8.046   4.276   8.766
15399WAT     H146439   8.096   4.293   8.681
15399WAT     H246440   8.100   4.310   8.843
15400WAT      O46441   2.145   9.503   3.707
15400WAT     H146442   2.090   9.439   3.654
15400WAT     H246443   2.095   9.588   3.720
15401WAT      O46444   1.535   0.993   3.392
15401WAT     H146445   1.466   0.937   3.347
15401WAT     H246446   1.620   0.991   3.339
15402WAT      O46447   8.268   4.262   0.069
15402WAT     H146448   8.224   4.346   0.038
15402WAT     H246449   8.239   4.186   0.012
15403WAT      O46450   8.433   1.120   4.848
15403WAT     H146451   8.341   1.088   4.872
15403WAT     H246452   8.429   1.173   4.764
15404WAT      O46453   9.699   4.501   0.097
15404WAT     H146454   9.729   4.412   0.062
15404WAT     H246455   9.664   4.556   0.021
15405WAT      O46456   3.201   7.362   3.337
15405WAT     H146457   3.280   7.402   3.384
15405WAT     H246458   3.123   7.360   3.399
15406WAT      O46459   5.464   0.770   0.170
15406WAT     H146460   5.540   0.739   0.226
15406WAT     H246461   5.416   0.844   0.216
15407WAT      O46462   2.441   9.507   7.654
15407WAT     H146463   2.432   9.410   7.635
15407WAT     H246464   2.350   9.548   7.664
15408WAT      O46465   7.088   3.581   6.647
15408WAT     H146466   7.181   3.602   6.620
15408WAT     H246467   7.026   3.653   6.615
15409WAT      O46468   4.578   1.630   9.675
15409WAT     H146469   4.592   1.709   9.734
15409WAT     H246470   4.496   1.581   9.704
15410WAT      O46471   2.497   8.662   4.753
15410WAT     H146472   2.428   8.589   4.750
15410WAT     H246473   2.525   8.686   4.660
15411WAT      O46474   5.508   1.367   8.577
15411WAT     H146475   5.500   1.346   8.479
15411WAT     H246476   5.418   1.395   8.612
15412WAT      O46477   5.537   8.834   2.778
15412WAT     H146478   5.562   8.921   2.819
15412WAT     H246479   5.441   8.837   2.750
15413WAT      O46480   8.851   3.890   2.844
15413WAT     H146481   8.886   3.925   2.931
15413WAT     H246482   8.884   3.947   2.769
15414WAT      O46483   9.200   7.967   6.492
15414WAT     H146484   9.235   8.047   6.540
15414WAT     H246485   9.277   7.911   6.460
15415WAT      O46486   6.850   0.750   8.711
15415WAT     H146487   6.911   0.675   8.738
15415WAT     H246488   6.760   0.713   8.689
15416WAT      O46489   1.987   1.266   9.350
15416WAT     H146490   2.066   1.205   9.350
15416WAT     H246491   1.982   1.315   9.437
15417WAT      O46492   4.311   2.492   4.098
15417WAT     H146493   4.296   2.582   4.058
15417WAT     H246494   4.362   2.501   4.184
15418WAT      O46495   9.381   0.798   8.469
15418WAT     H146496   9.396   0.866   8.397
15418WAT     H246497   9.320   0.836   8.538
15419WAT      O46498   7.802   8.868   3.357
15419WAT     H146499   7.782   8.963   3.379
15419WAT     H246500   7.901   8.856   3.346
15420WAT      O46501   9.568   8.124   7.481
15420WAT     H146502   9.535   8.034   7.508
15420WAT     H246503   9.582   8.180   7.562
15421WAT      O46504   8.349   9.300   7.765
15421WAT     H146505   8.408   9.353   7.704
15421WAT     H246506   8.337   9.350   7.851
15422WAT      O46507   4.281   3.848   0.534
15422WAT     H146508   4.242   3.762   0.566
15422WAT     H246509   4.234   3.925   0.577
15423WAT      O46510   5.103   5.490   9.693
15423WAT     H146511   5.087   5.550   9.771
15423WAT     H246512   5.033   5.419   9.690
15424WAT      O46513   9.276   0.225   9.505
15424WAT     H146514   9.260   0.254   9.600
15424WAT     H246515   9.339   0.290   9.461
15425WAT      O46516   9.303   1.347   9.883
15425WAT     H146517   9.251   1.419   9.929
15425WAT     H246518   9.316   1.270   9.945
15426WAT      O46519   4.882   6.124   7.457
15426WAT     H146520   4.825   6.065   7.514
15426WAT     H246521   4.892   6.084   7.367
15427WAT      O46522   3.803   6.209   0.680
15427WAT     H146523   3.767   6.173   0.766
15427WAT     H246524   3.807   6.135   0.612
15428WAT      O46525   1.398   3.359   9.449
15428WAT     H146526   1.395   3.295   9.372
15428WAT     H246527   1.445   3.315   9.526
15429WAT      O46528   3.182   5.047   6.416
15429WAT     H146529   3.221   5.102   6.490
15429WAT     H246530   3.118   4.981   6.455
15430WAT      O46531   4.350   2.359   6.320
15430WAT     H146532   4.390   2.341   6.410
15430WAT     H246533   4.266   2.305   6.310
15431WAT      O46534   9.431   7.685   7.844
15431WAT     H146535   9.422   7.707   7.941
15431WAT     H246536   9.528   7.674   7.821
15432WAT      O46537   6.882   3.484   2.896
15432WAT     H146538   6.828   3.401   2.883
15432WAT     H246539   6.946   3.494   2.821
15433WAT      O46540   6.474   2.792   2.010
15433WAT     H146541   6.389   2.837   1.981
15433WAT     H246542   6.499   2.824   2.101
15434WAT      O46543   6.999   2.632   0.471
15434WAT     H146544   6.987   2.599   0.565
15434WAT     H246545   7.063   2.710   0.472
15435WAT      O46546   5.995   6.456   2.037
15435WAT     H146547   5.974   6.436   2.133
15435WAT     H246548   6.094   6.455   2.024
15436WAT      O46549   3.843   2.579   5.225
15436WAT     H146550   3.862   2.543   5.316
15436WAT     H246551   3.928   2.597   5.177
15437WAT      O46552   1.024   2.547   3.587
15437WAT     H146553   0.929   2.558   3.556
15437WAT     H246554   1.045   2.450   3.599
15438WAT      O46555   5.939   8.540   2.302
15438WAT     H146556   6.007   8.612   2.315
15438WAT     H246557   5.961   8.463   2.362
15439WAT      O46558   0.383   0.084   8.280
15439WAT     H146559   0.321   0.160   8.298
15439WAT     H246560   0.344   0.026   8.209
15440WAT      O46561   2.009   9.075   1.724
15440WAT     H146562   2.065   9.047   1.646
15440WAT     H246563   1.923   9.024   1.723
15441WAT      O46564   8.448   6.976   8.294
15441WAT     H146565   8.406   6.889   8.270
15441WAT     H246566   8.442   7.039   8.216
15442WAT      O46567   8.719   2.085   6.755
15442WAT     H146568   8.797   2.095   6.693
15442WAT     H246569   8.701   1.988   6.771
15443WAT      O46570   0.307   9.122   4.522
15443WAT     H146571   0.244   9.051   4.553
15443WAT     H246572   0.269   9.166   4.440
15444WAT      O46573   5.080   3.751   7.018
15444WAT     H146574   5.030   3.686   6.961
15444WAT     H246575   5.053   3.739   7.114
15445WAT      O46576   1.619   5.852   0.945
15445WAT     H146577   1.537   5.824   0.895
15445WAT     H246578   1.593   5.891   1.033
15446WAT      O46579   3.043   8.936   3.768
15446WAT     H146580   3.086   8.939   3.678
15446WAT     H246581   3.042   9.027   3.809
15447WAT      O46582   4.365   2.629   6.489
15447WAT     H146583   4.431   2.653   6.418
15447WAT     H246584   4.371   2.530   6.507
15448WAT      O46585   7.279   5.445   4.636
15448WAT     H146586   7.308   5.517   4.699
15448WAT     H246587   7.184   5.462   4.608
15449WAT      O46588   3.831   9.037   4.285
15449WAT     H146589   3.752   9.067   4.338
15449WAT     H246590   3.834   8.937   4.282
15450WAT      O46591   0.825   3.870   4.310
15450WAT     H146592   0.741   3.923   4.319
15450WAT     H246593   0.830   3.801   4.383
15451WAT      O46594   1.521   3.525   1.416
15451WAT     H146595   1.463   3.507   1.336
15451WAT     H246596   1.613   3.552   1.385
15452WAT      O46597   7.224   8.094   6.306
15452WAT     H146598   7.290   8.019   6.311
15452WAT     H246599   7.270   8.178   6.276
15453WAT      O46600   8.906   1.061   3.753
15453WAT     H146601   8.948   1.094   3.838
15453WAT     H246602   8.808   1.049   3.767
15454WAT      O46603   0.944   4.345   5.341
15454WAT     H146604   0.936   4.247   5.323
15454WAT     H246605   0.870   4.393   5.294
15455WAT      O46606   2.018   8.064   6.924
15455WAT     H146607   2.073   8.105   6.996
15455WAT     H246608   2.075   8.046   6.844
15456WAT      O46609   4.520   0.454   2.343
15456WAT     H146610   4.452   0.505   2.290
15456WAT     H246611   4.598   0.433   2.284
15457WAT      O46612   5.207   3.091   2.294
15457WAT     H146613   5.252   3.127   2.375
15457WAT     H246614   5.275   3.062   2.228
15458WAT      O46615   5.717   7.023   7.263
15458WAT     H146616   5.651   7.097   7.270
15458WAT     H246617   5.669   6.935   7.264
15459WAT      O46618   1.341   8.387   3.543
15459WAT     H146619   1.423   8.352   3.589
15459WAT     H246620   1.366   8.461   3.480
15460WAT      O46621   5.050   7.302   5.392
15460WAT     H146622   5.117   7.243   5.348
15460WAT     H246623   5.068   7.305   5.491
15461WAT      O46624   5.013   3.751   2.284
15461WAT     H146625   5.006   3.745   2.185
15461WAT     H246626   4.940   3.697   2.327
15462WAT      O46627   2.521   7.987   0.540
15462WAT     H146628   2.524   7.929   0.459
15462WAT     H246629   2.457   8.063   0.525
15463WAT      O46630   2.529   6.596   2.697
15463WAT     H146631   2.513   6.671   2.633
15463WAT     H246632   2.617   6.610   2.743
15464WAT      O46633   4.274   6.440   8.396
15464WAT     H146634   4.313   6.479   8.313
15464WAT     H246635   4.177   6.421   8.382
15465WAT      O46636   4.974   3.915   0.592
15465WAT     H146637   5.053   3.868   0.554
15465WAT     H246638   4.911   3.940   0.519
15466WAT      O46639   2.609   6.560   3.270
15466WAT     H146640   2.580   6.500   3.195
15466WAT     H246641   2.556   6.644   3.267
15467WAT      O46642   0.314   2.583   8.549
15467WAT     H146643   0.218   2.572   8.525
15467WAT     H246644   0.355   2.654   8.491
15468WAT      O46645   4.291   9.434   2.283
15468WAT     H146646   4.270   9.530   2.302
15468WAT     H246647   4.244   9.406   2.199
15469WAT      O46648   5.071   3.236   6.142
15469WAT     H146649   4.992   3.247   6.082
15469WAT     H246650   5.151   3.278   6.101
15470WAT      O46651   2.497   6.715   1.280
15470WAT     H146652   2.578   6.775   1.281
15470WAT     H246653   2.441   6.737   1.200
15471WAT      O46654   0.980   5.610   9.095
15471WAT     H146655   1.027   5.683   9.144
15471WAT     H246656   0.951   5.643   9.005
15472WAT      O46657   0.540   3.571   8.182
15472WAT     H146658   0.559   3.524   8.269
15472WAT     H246659   0.476   3.646   8.198
15473WAT      O46660   6.699   6.764   2.152
15473WAT     H146661   6.765   6.707   2.104
15473WAT     H246662   6.703   6.745   2.250
15474WAT      O46663   6.970   7.690   8.058
15474WAT     H146664   6.971   7.746   8.140
15474WAT     H246665   7.057   7.639   8.051
15475WAT      O46666   2.257   8.495   1.978
15475WAT     H146667   2.324   8.494   1.904
15475WAT     H246668   2.284   8.430   2.049
15476WAT      O46669   4.161   8.489   3.410
15476WAT     H146670   4.177   8.571   3.355
15476WAT     H246671   4.200   8.410   3.363
15477WAT      O46672   3.531   5.933   1.348
15477WAT     H146673   3.465   5.888   1.408
15477WAT     H246674   3.484   6.000   1.291
15478WAT      O46675   9.279   7.040   8.003
15478WAT     H146676   9.223   6.994   8.073
15478WAT     H246677   9.280   6.985   7.920
15479WAT      O46678   3.823   5.798   5.737
15479WAT     H146679   3.776   5.717   5.700
15479WAT     H246680   3.884   5.769   5.811
15480WAT      O46681   4.582   0.982   0.237
15480WAT     H146682   4.668   0.988   0.186
15480WAT     H246683   4.509   0.954   0.175
15481WAT      O46684   6.842   5.578   5.597
15481WAT     H146685   6.809   5.592   5.503
15481WAT     H246686   6.765   5.554   5.656
15482WAT      O46687   7.615   8.414   6.298
15482WAT     H146688   7.611   8.508   6.264
15482WAT     H246689   7.693   8.367   6.255
15483WAT      O46690   4.805   9.097   8.783
15483WAT     H146691   4.780   9.085   8.688
15483WAT     H246692   4.871   9.172   8.791
15484WAT      O46693   1.833   5.174   3.993
15484WAT     H146694   1.889   5.197   4.073
15484WAT     H246695   1.855   5.236   3.918
15485WAT      O46696   7.502   7.682   2.912
15485WAT     H146697   7.463   7.749   2.975
15485WAT     H246698   7.563   7.728   2.847
15486WAT      O46699   7.451   0.913   7.132
15486WAT     H146700   7.438   0.837   7.197
15486WAT     H246701   7.415   0.997   7.172
15487WAT      O46702   4.875   8.810   3.808
15487WAT     H146703   4.971   8.787   3.824
15487WAT     H246704   4.870   8.890   3.748
15488WAT      O46705   0.919   0.990   7.667
15488WAT     H146706   0.983   0.927   7.623
15488WAT     H246707   0.826   0.970   7.636
15489WAT      O46708   7.957   6.732   6.907
15489WAT     H146709   8.007   6.800   6.960
15489WAT     H246710   8.021   6.681   6.850
15490WAT      O46711   2.544   0.744   5.825
15490WAT     H146712   2.562   0.804   5.903
15490WAT     H246713   2.473   0.784   5.768
15491WAT      O46714   1.442   7.416   6.749
15491WAT     H146715   1.484   7.326   6.736
15491WAT     H246716   1.510   7.488   6.732
15492WAT      O46717   5.700   5.715   7.528
15492WAT     H146718   5.661   5.624   7.543
15492WAT     H246719   5.650   5.782   7.583
15493WAT      O46720   2.422   5.990   5.636
15493WAT     H146721   2.490   5.917   5.643
15493WAT     H246722   2.435   6.039   5.549
15494WAT      O46723   8.865   7.565   0.380
15494WAT     H146724   8.790   7.499   0.386
15494WAT     H246725   8.912   7.554   0.292
15495WAT      O46726   9.464   3.085   0.320
15495WAT     H146727   9.412   3.096   0.404
15495WAT     H246728   9.534   3.156   0.313
15496WAT      O46729   6.250   5.975   5.274
15496WAT     H146730   6.185   6.002   5.203
15496WAT     H246731   6.262   6.051   5.338
15497WAT      O46732   5.156   2.310   2.734
15497WAT     H146733   5.119   2.258   2.657
15497WAT     H246734   5.214   2.251   2.790
15498WAT      O46735   6.008   8.657   3.199
15498WAT     H146736   5.992   8.643   3.297
15498WAT     H246737   5.937   8.610   3.147
15499WAT      O46738   5.903   8.124   8.093
15499WAT     H146739   5.996   8.144   8.126
15499WAT     H246740   5.836   8.169   8.153
15500WAT      O46741   2.725   6.650   9.893
15500WAT     H146742   2.731   6.736   9.842
15500WAT     H246743   2.756   6.575   9.835
15501WAT      O46744   5.152   5.327   2.677
15501WAT     H146745   5.188   5.334   2.584
15501WAT     H246746   5.081   5.257   2.680
15502WAT      O46747   0.694   6.052   5.601
15502WAT     H146748   0.695   6.152   5.601
15502WAT     H246749   0.788   6.017   5.594
15503WAT      O46750   0.874   0.986   5.437
15503WAT     H146751   0.811   0.927   5.385
15503WAT     H246752   0.954   1.006   5.380
15504WAT      O46753   9.250   4.711   3.724
15504WAT     H146754   9.328   4.659   3.760
15504WAT     H246755   9.165   4.663   3.747
15505WAT      O46756   9.432   0.663   4.982
15505WAT     H146757   9.381   0.745   4.956
15505WAT     H246758   9.409   0.589   4.919
15506WAT      O46759   1.931   8.735   2.559
15506WAT     H146760   1.950   8.812   2.619
15506WAT     H246761   1.913   8.653   2.614
15507WAT      O46762   5.725   3.848   9.482
15507WAT     H146763   5.809   3.882   9.439
15507WAT     H246764   5.741   3.757   9.518
15508WAT      O46765   4.849   0.232   7.928
15508WAT     H146766   4.897   0.303   7.979
15508WAT     H246767   4.858   0.145   7.977
15509WAT      O46768   2.851   2.576   9.472
15509WAT     H146769   2.814   2.506   9.411
15509WAT     H246770   2.871   2.659   9.421
15510WAT      O46771   5.567   8.699   3.993
15510WAT     H146772   5.487   8.758   3.984
15510WAT     H246773   5.598   8.671   3.902
15511WAT      O46774   2.724   1.861   3.188
15511WAT     H146775   2.792   1.927   3.220
15511WAT     H246776   2.635   1.905   3.182
15512WAT      O46777   6.349   1.724   2.590
15512WAT     H146778   6.369   1.669   2.509
15512WAT     H246779   6.251   1.743   2.594
15513WAT      O46780   2.940   7.956   5.935
15513WAT     H146781   2.960   7.866   5.974
15513WAT     H246782   2.852   7.954   5.888
15514WAT      O46783   4.400   1.007   6.217
15514WAT     H146784   4.327   0.938   6.217
15514WAT     H246785   4.362   1.096   6.190
15515WAT      O46786   5.046   4.727   1.199
15515WAT     H146787   5.116   4.662   1.230
15515WAT     H246788   4.969   4.726   1.264
15516WAT      O46789   9.073   3.340   8.052
15516WAT     H146790   9.029   3.292   7.976
15516WAT     H246791   9.128   3.415   8.017
15517WAT      O46792   9.330   7.351   2.776
15517WAT     H146793   9.370   7.398   2.697
15517WAT     H246794   9.399   7.295   2.820
15518WAT      O46795   3.265   8.034   0.584
15518WAT     H146796   3.319   7.954   0.556
15518WAT     H246797   3.173   8.027   0.545
15519WAT      O46798   0.055   3.958   5.760
15519WAT     H146799   0.044   4.004   5.672
15519WAT     H246800   0.059   3.859   5.746
15520WAT      O46801   4.584   7.311   2.059
15520WAT     H146802   4.610   7.329   1.964
15520WAT     H246803   4.526   7.230   2.063
15521WAT      O46804   7.480   3.205   3.893
15521WAT     H146805   7.488   3.175   3.798
15521WAT     H246806   7.417   3.144   3.941
15522WAT      O46807   4.495   6.566   2.478
15522WAT     H146808   4.483   6.548   2.380
15522WAT     H246809   4.438   6.643   2.505
15523WAT      O46810   8.333   0.547   5.565
15523WAT     H146811   8.327   0.646   5.558
15523WAT     H246812   8.381   0.521   5.649
15524WAT      O46813   1.456   5.999   8.178
15524WAT     H146814   1.428   6.075   8.236
15524WAT     H246815   1.481   5.921   8.235
15525WAT      O46816   2.087   7.017   6.452
15525WAT     H146817   2.024   7.076   6.401
15525WAT     H246818   2.181   7.052   6.443
15526WAT      O46819   3.179   4.942   9.303
15526WAT     H146820   3.205   5.038   9.292
15526WAT     H246821   3.221   4.888   9.229
15527WAT      O46822   6.963   2.123   1.911
15527WAT     H146823   6.932   2.179   1.835
15527WAT     H246824   7.000   2.037   1.876
15528WAT      O46825   6.508   8.974   1.281
15528WAT     H146826   6.486   8.960   1.185
15528WAT     H246827   6.569   8.901   1.312
15529WAT      O46828   6.210   8.117   3.233
15529WAT     H146829   6.226   8.068   3.318
15529WAT     H246830   6.241   8.062   3.156
15530WAT      O46831   0.916   3.833   2.588
15530WAT     H146832   0.898   3.774   2.666
15530WAT     H246833   0.983   3.790   2.527
15531WAT      O46834   1.032   2.494   5.582
15531WAT     H146835   0.945   2.543   5.586
15531WAT     H246836   1.019   2.409   5.531
15532WAT      O46837   7.903   6.873   7.869
15532WAT     H146838   7.868   6.958   7.909
15532WAT     H246839   7.893   6.876   7.770
15533WAT      O46840   3.002   4.554   8.767
15533WAT     H146841   2.921   4.497   8.786
15533WAT     H246842   2.995   4.591   8.674
15534WAT      O46843   5.537   7.809   4.279
15534WAT     H146844   5.546   7.713   4.304
15534WAT     H246845   5.536   7.819   4.180
15535WAT      O46846   9.609   1.104   5.826
15535WAT     H146847   9.616   1.145   5.735
15535WAT     H246848   9.519   1.062   5.836
15536WAT      O46849   6.867   9.536   9.667
15536WAT     H146850   6.808   9.617   9.669
15536WAT     H246851   6.824   9.465   9.612
15537WAT      O46852   6.507   6.913   1.738
15537WAT     H146853   6.409   6.921   1.720
15537WAT     H246854   6.526   6.938   1.833
15538WAT      O46855   3.320   2.179   6.463
15538WAT     H146856   3.270   2.194   6.548
15538WAT     H246857   3.408   2.135   6.482
15539WAT      O46858   9.380   2.356   1.993
15539WAT     H146859   9.359   2.444   2.035
15539WAT     H246860   9.348   2.356   1.899
15540WAT      O46861   8.118   0.062   7.285
15540WAT     H146862   8.039   0.073   7.224
15540WAT     H246863   8.201   0.053   7.230
15541WAT      O46864   0.483   9.384   4.035
15541WAT     H146865   0.433   9.327   4.101
15541WAT     H246866   0.580   9.364   4.040
15542WAT      O46867   2.258   2.874   6.553
15542WAT     H146868   2.352   2.901   6.532
15542WAT     H246869   2.230   2.799   6.492
15543WAT      O46870   3.797   3.255   9.587
15543WAT     H146871   3.699   3.269   9.595
15543WAT     H246872   3.831   3.209   9.670
15544WAT      O46873   5.847   7.672   5.770
15544WAT     H146874   5.829   7.726   5.852
15544WAT     H246875   5.891   7.586   5.795
15545WAT      O46876   8.886   9.533   6.212
15545WAT     H146877   8.964   9.474   6.233
15545WAT     H246878   8.824   9.537   6.290
15546WAT      O46879   2.652   1.724   5.026
15546WAT     H146880   2.604   1.725   5.113
15546WAT     H246881   2.698   1.812   5.012
15547WAT      O46882   0.185   1.470   5.885
15547WAT     H146883   0.173   1.538   5.813
15547WAT     H246884   0.096   1.430   5.908
15548WAT      O46885   7.391   1.023   2.836
15548WAT     H146886   7.363   1.116   2.857
15548WAT     H246887   7.402   0.971   2.921
15549WAT      O46888   4.378   9.597   5.244
15549WAT     H146889   4.461   9.638   5.283
15549WAT     H246890   4.365   9.632   5.151
15550WAT      O46891   7.756   9.326   4.149
15550WAT     H146892   7.706   9.400   4.106
15550WAT     H246893   7.742   9.241   4.097
15551WAT      O46894   5.759   8.521   6.673
15551WAT     H146895   5.782   8.462   6.750
15551WAT     H246896   5.828   8.511   6.601
15552WAT      O46897   8.019   0.854   1.634
15552WAT     H146898   8.019   0.768   1.685
15552WAT     H246899   7.965   0.922   1.684
15553WAT      O46900   7.243   6.296   9.187
15553WAT     H146901   7.266   6.349   9.106
15553WAT     H246902   7.150   6.317   9.215
15554WAT      O46903   6.303   2.901   5.768
15554WAT     H146904   6.291   2.989   5.813
15554WAT     H246905   6.252   2.899   5.682
15555WAT      O46906   7.914   0.156   7.097
15555WAT     H146907   7.892   0.088   7.027
15555WAT     H246908   7.851   0.148   7.174
15556WAT      O46909   6.475   9.637   3.100
15556WAT     H146910   6.409   9.578   3.148
15556WAT     H246911   6.566   9.624   3.140
15557WAT      O46912   7.616   5.861   5.414
15557WAT     H146913   7.620   5.777   5.467
15557WAT     H246914   7.703   5.910   5.422
15558WAT      O46915   5.586   2.486   5.556
15558WAT     H146916   5.561   2.397   5.518
15558WAT     H246917   5.524   2.555   5.522
15559WAT      O46918   3.832   9.278   4.642
15559WAT     H146919   3.783   9.362   4.618
15559WAT     H246920   3.815   9.255   4.738
15560WAT      O46921   9.371   8.783   1.439
15560WAT     H146922   9.405   8.733   1.519
15560WAT     H246923   9.305   8.727   1.390
15561WAT      O46924   9.741   8.656   2.324
15561WAT     H146925   9.839   8.642   2.305
15561WAT     H246926   9.724   8.754   2.337
15562WAT      O46927   8.908   6.898   4.080
15562WAT     H146928   9.007   6.902   4.068
15562WAT     H246929   8.873   6.989   4.101
15563WAT      O46930   7.113   8.426   1.679
15563WAT     H146931   7.078   8.511   1.720
15563WAT     H246932   7.141   8.364   1.752
15564WAT      O46933   7.580   0.255   0.277
15564WAT     H146934   7.582   0.163   0.240
15564WAT     H246935   7.632   0.258   0.363
15565WAT      O46936   5.823   5.754   0.936
15565WAT     H146937   5.751   5.794   0.879
15565WAT     H246938   5.877   5.827   0.977
15566WAT      O46939   5.403   5.360   3.238
15566WAT     H146940   5.411   5.432   3.169
15566WAT     H246941   5.479   5.295   3.227
15567WAT      O46942   7.324   9.038   5.895
15567WAT     H146943   7.301   8.941   5.905
15567WAT     H246944   7.421   9.051   5.915
15568WAT      O46945   4.065   5.962   1.915
15568WAT     H146946   3.982   6.009   1.945
15568WAT     H246947   4.106   6.012   1.839
15569WAT      O46948   2.540   4.664   7.946
15569WAT     H146949   2.577   4.755   7.960
15569WAT     H246950   2.498   4.632   8.031
15570WAT      O46951   2.286   2.122   8.463
15570WAT     H146952   2.350   2.193   8.494
15570WAT     H246953   2.337   2.045   8.427
15571WAT      O46954   4.800   8.806   8.919
15571WAT     H146955   4.730   8.819   8.849
15571WAT     H246956   4.889   8.836   8.882
15572WAT      O46957   2.521   1.877   0.829
15572WAT     H146958   2.505   1.957   0.887
15572WAT     H246959   2.472   1.888   0.743
15573WAT      O46960   5.642   8.022   5.757
15573WAT     H146961   5.692   8.043   5.673
15573WAT     H246962   5.663   8.092   5.826
15574WAT      O46963   8.664   1.708   8.614
15574WAT     H146964   8.747   1.658   8.588
15574WAT     H246965   8.615   1.657   8.684
15575WAT      O46966   4.099   0.786   3.548
15575WAT     H146967   4.111   0.881   3.576
15575WAT     H246968   4.188   0.741   3.544
15576WAT      O46969   7.852   5.666   1.303
15576WAT     H146970   7.880   5.739   1.241
15576WAT     H246971   7.894   5.681   1.393
15577WAT      O46972   1.710   0.665   7.958
15577WAT     H146973   1.738   0.742   8.015
15577WAT     H246974   1.669   0.594   8.015
15578WAT      O46975   7.757   2.882   7.185
15578WAT     H146976   7.784   2.828   7.106
15578WAT     H246977   7.669   2.850   7.220
15579WAT      O46978   7.403   5.946   5.605
15579WAT     H146979   7.488   5.998   5.593
15579WAT     H246980   7.365   5.924   5.515
15580WAT      O46981   8.888   5.731   0.978
15580WAT     H146982   8.837   5.670   0.917
15580WAT     H246983   8.963   5.679   1.021
15581WAT      O46984   5.163   4.319   9.493
15581WAT     H146985   5.095   4.287   9.558
15581WAT     H246986   5.235   4.251   9.484
15582WAT      O46987   0.173   2.738   7.430
15582WAT     H146988   0.123   2.685   7.362
15582WAT     H246989   0.257   2.775   7.389
15583WAT      O46990   4.679   3.604   6.179
15583WAT     H146991   4.696   3.682   6.119
15583WAT     H246992   4.767   3.565   6.208
15584WAT      O46993   8.607   2.142   1.313
15584WAT     H146994   8.696   2.182   1.294
15584WAT     H246995   8.591   2.063   1.253
15585WAT      O46996   2.269   2.815   4.617
15585WAT     H146997   2.227   2.742   4.670
15585WAT     H246998   2.221   2.825   4.529
15586WAT      O46999   3.081   7.839   1.090
15586WAT     H147000   3.004   7.792   1.132
15586WAT     H247001   3.048   7.914   1.032
15587WAT      O47002  -0.003   1.976   7.521
15587WAT     H147003  -0.016   2.069   7.485
15587WAT     H247004   0.084   1.940   7.489
15588WAT      O47005   6.873   4.718   3.407
15588WAT     H147006   6.903   4.766   3.490
15588WAT     H247007   6.924   4.633   3.398
15589WAT      O47008   3.277   2.081   5.188
15589WAT     H147009   3.292   2.046   5.096
15589WAT     H247010   3.320   2.171   5.198
15590WAT      O47011   0.472   7.192   8.507
15590WAT     H147012   0.459   7.203   8.605
15590WAT     H247013   0.418   7.114   8.474
15591WAT      O47014   1.976   8.409   4.228
15591WAT     H147015   1.876   8.407   4.228
15591WAT     H247016   2.009   8.411   4.133
15592WAT      O47017   7.652   0.497   1.665
15592WAT     H147018   7.580   0.553   1.707
15592WAT     H247019   7.620   0.403   1.657
15593WAT      O47020   0.399   4.180   3.012
15593WAT     H147021   0.375   4.140   3.101
15593WAT     H247022   0.492   4.218   3.016
15594WAT      O47023   4.000   4.855   8.228
15594WAT     H147024   3.936   4.882   8.157
15594WAT     H247025   4.065   4.929   8.245
15595WAT      O47026   5.430   4.543   5.510
15595WAT     H147027   5.366   4.619   5.517
15595WAT     H247028   5.440   4.517   5.414
15596WAT      O47029   6.647   3.044   7.654
15596WAT     H147030   6.713   3.117   7.639
15596WAT     H247031   6.696   2.957   7.664
15597WAT      O47032   9.031   3.469   1.759
15597WAT     H147033   9.118   3.420   1.774
15597WAT     H247034   8.975   3.464   1.841
15598WAT      O47035   7.495   5.581   0.003
15598WAT     H147036   7.403   5.582  -0.037
15598WAT     H247037   7.530   5.675   0.007
15599WAT      O47038   0.777   2.768   5.027
15599WAT     H147039   0.860   2.727   5.064
15599WAT     H247040   0.755   2.725   4.940
15600WAT      O47041   9.532   2.868   6.356
15600WAT     H147042   9.433   2.851   6.358
15600WAT     H247043   9.563   2.873   6.262
15601WAT      O47044   2.467   2.173   6.607
15601WAT     H147045   2.513   2.215   6.529
15601WAT     H247046   2.523   2.098   6.643
15602WAT      O47047   8.394   0.041   9.080
15602WAT     H147048   8.441  -0.043   9.107
15602WAT     H247049   8.342   0.024   8.996
15603WAT      O47050   1.207   4.930   6.026
15603WAT     H147051   1.141   4.855   6.034
15603WAT     H247052   1.293   4.895   5.990
15604WAT      O47053   4.718   7.861   3.238
15604WAT     H147054   4.741   7.895   3.329
15604WAT     H247055   4.622   7.879   3.219
15605WAT      O47056   0.618   2.106   4.373
15605WAT     H147057   0.604   2.176   4.303
15605WAT     H247058   0.715   2.103   4.398
15606WAT      O47059   0.512   8.026   6.036
15606WAT     H147060   0.525   8.043   6.134
15606WAT     H247061   0.424   7.982   6.022
15607WAT      O47062   4.604   3.823   3.665
15607WAT     H147063   4.536   3.759   3.701
15607WAT     H247064   4.611   3.902   3.726
15608WAT      O47065   4.383   7.809   6.386
15608WAT     H147066   4.394   7.903   6.352
15608WAT     H247067   4.297   7.803   6.437
15609WAT      O47068   1.818   4.216   2.489
15609WAT     H147069   1.751   4.252   2.425
15609WAT     H247070   1.902   4.192   2.441
15610WAT      O47071   7.750   9.186   2.627
15610WAT     H147072   7.786   9.155   2.714
15610WAT     H247073   7.650   9.191   2.632
15611WAT      O47074   4.263   1.836   7.355
15611WAT     H147075   4.321   1.765   7.395
15611WAT     H247076   4.266   1.918   7.412
15612WAT      O47077   8.175   4.432   9.205
15612WAT     H147078   8.170   4.520   9.157
15612WAT     H247079   8.226   4.443   9.290
15613WAT      O47080   8.446   9.137   4.337
15613WAT     H147081   8.469   9.046   4.302
15613WAT     H247082   8.530   9.188   4.355
15614WAT      O47083   1.341   5.800   7.784
15614WAT     H147084   1.266   5.852   7.825
15614WAT     H247085   1.421   5.859   7.773
15615WAT      O47086   6.236   5.843   7.540
15615WAT     H147087   6.184   5.764   7.572
15615WAT     H247088   6.176   5.924   7.539
15616WAT      O47089   1.174   4.822   5.481
15616WAT     H147090   1.259   4.804   5.530
15616WAT     H247091   1.122   4.737   5.472
15617WAT      O47092   4.284   0.166   6.190
15617WAT     H147093   4.365   0.225   6.192
15617WAT     H247094   4.272   0.129   6.098
15618WAT      O47095   2.977   6.417   7.660
15618WAT     H147096   2.951   6.422   7.756
15618WAT     H247097   2.956   6.504   7.615
15619WAT      O47098   9.603   0.562   1.409
15619WAT     H147099   9.649   0.542   1.495
15619WAT     H247100   9.604   0.481   1.351
15620WAT      O47101   5.301   6.126   4.725
15620WAT     H147102   5.227   6.133   4.659
15620WAT     H247103   5.265   6.143   4.817
15621WAT      O47104   0.828   9.533   1.612
15621WAT     H147105   0.842   9.518   1.514
15621WAT     H247106   0.879   9.614   1.641
15622WAT      O47107   7.485   6.232   9.641
15622WAT     H147108   7.465   6.322   9.680
15622WAT     H247109   7.463   6.233   9.543
15623WAT      O47110   8.882   1.342   6.328
15623WAT     H147111   8.907   1.355   6.232
15623WAT     H247112   8.843   1.251   6.340
15624WAT      O47113   3.809   6.694   0.694
15624WAT     H147114   3.724   6.746   0.706
15624WAT     H247115   3.848   6.673   0.784
15625WAT      O47116   9.111   8.889   1.274
15625WAT     H147117   9.158   8.815   1.321
15625WAT     H247118   9.153   8.903   1.184
15626WAT      O47119   0.057   3.653   7.500
15626WAT     H147120   0.019   3.737   7.462
15626WAT     H247121   0.150   3.669   7.533
15627WAT      O47122   5.513   0.633   5.573
15627WAT     H147123   5.453   0.653   5.495
15627WAT     H247124   5.461   0.586   5.644
15628WAT      O47125   6.799   5.273   9.390
15628WAT     H147126   6.889   5.316   9.378
15628WAT     H247127   6.728   5.336   9.358
15629WAT      O47128   0.989   2.367   8.754
15629WAT     H147129   0.979   2.351   8.852
15629WAT     H247130   0.912   2.422   8.721
15630WAT      O47131   1.945   9.333   1.795
15630WAT     H147132   1.980   9.240   1.799
15630WAT     H247133   2.014   9.396   1.832
15631WAT      O47134   1.662   7.606   6.736
15631WAT     H147135   1.623   7.661   6.809
15631WAT     H247136   1.728   7.541   6.775
15632WAT      O47137   8.348   8.549   0.227
15632WAT     H147138   8.341   8.486   0.304
15632WAT     H247139   8.368   8.498   0.144
15633WAT      O47140   2.609   1.581   8.094
15633WAT     H147141   2.522   1.599   8.047
15633WAT     H247142   2.666   1.664   8.091
15634WAT      O47143   8.619   9.504   5.397
15634WAT     H147144   8.561   9.428   5.368
15634WAT     H247145   8.599   9.527   5.493
15635WAT      O47146   9.303   3.437   0.815
15635WAT     H147147   9.320   3.343   0.786
15635WAT     H247148   9.390   3.484   0.830
15636WAT      O47149   2.653   1.489   8.753
15636WAT     H147150   2.733   1.441   8.788
15636WAT     H247151   2.652   1.583   8.788
15637WAT      O47152   3.841   1.856   8.314
15637WAT     H147153   3.927   1.907   8.305
15637WAT     H247154   3.854   1.763   8.280
15638WAT      O47155   0.704   7.594   2.913
15638WAT     H147156   0.758   7.511   2.927
15638WAT     H247157   0.643   7.609   2.991
15639WAT      O47158   7.607   9.254   6.518
15639WAT     H147159   7.552   9.173   6.538
15639WAT     H247160   7.669   9.234   6.442
15640WAT      O47161   6.202   6.913   3.592
15640WAT     H147162   6.111   6.954   3.587
15640WAT     H247163   6.194   6.815   3.609
15641WAT      O47164   1.542   2.701   5.572
15641WAT     H147165   1.480   2.632   5.535
15641WAT     H247166   1.619   2.656   5.616
15642WAT      O47167   6.279   2.388   2.602
15642WAT     H147168   6.260   2.425   2.512
15642WAT     H247169   6.286   2.462   2.668
15643WAT      O47170   7.523   4.548   3.700
15643WAT     H147171   7.616   4.585   3.702
15643WAT     H247172   7.462   4.614   3.655
15644WAT      O47173   2.442   1.334   4.785
15644WAT     H147174   2.462   1.398   4.711
15644WAT     H247175   2.344   1.335   4.804
15645WAT      O47176   5.592   7.332   9.135
15645WAT     H147177   5.640   7.268   9.196
15645WAT     H247178   5.649   7.351   9.055
15646WAT      O47179   1.873   9.169   5.159
15646WAT     H147180   1.958   9.157   5.211
15646WAT     H247181   1.877   9.255   5.108
15647WAT      O47182   1.419   2.702   6.085
15647WAT     H147183   1.338   2.729   6.137
15647WAT     H247184   1.391   2.640   6.011
15648WAT      O47185   9.163   8.248   1.286
15648WAT     H147186   9.213   8.163   1.306
15648WAT     H247187   9.108   8.235   1.204
15649WAT      O47188   1.338   6.151   3.262
15649WAT     H147189   1.423   6.105   3.286
15649WAT     H247190   1.306   6.120   3.172
15650WAT      O47191   8.809   4.211   4.990
15650WAT     H147192   8.796   4.184   5.085
15650WAT     H247193   8.901   4.183   4.960
15651WAT      O47194   0.371   7.207   6.150
15651WAT     H147195   0.294   7.206   6.214
15651WAT     H247196   0.344   7.254   6.066
15652WAT      O47197   7.405   5.011   5.537
15652WAT     H147198   7.354   4.988   5.455
15652WAT     H247199   7.480   4.946   5.550
15653WAT      O47200   5.504   4.936   3.542
15653WAT     H147201   5.503   4.861   3.477
15653WAT     H247202   5.432   5.001   3.518
15654WAT      O47203   5.241   9.396   9.099
15654WAT     H147204   5.297   9.377   9.019
15654WAT     H247205   5.250   9.493   9.124
15655WAT      O47206   0.439   0.353   0.436
15655WAT     H147207   0.443   0.453   0.446
15655WAT     H247208   0.443   0.330   0.339
15656WAT      O47209   1.365   5.376   2.888
15656WAT     H147210   1.286   5.315   2.891
15656WAT     H247211   1.449   5.323   2.896
15657WAT      O47212   7.545   1.103   1.029
15657WAT     H147213   7.485   1.084   0.951
15657WAT     H247214   7.637   1.067   1.010
15658WAT      O47215   1.055   2.377   1.952
15658WAT     H147216   0.971   2.325   1.961
15658WAT     H247217   1.101   2.351   1.867
15659WAT      O47218   2.878   5.093   7.039
15659WAT     H147219   2.871   5.046   6.951
15659WAT     H247220   2.835   5.038   7.110
15660WAT      O47221   3.874   4.426   0.086
15660WAT     H147222   3.857   4.510   0.138
15660WAT     H247223   3.972   4.417   0.069
15661WAT      O47224   1.962   7.425   3.531
15661WAT     H147225   1.911   7.436   3.445
15661WAT     H247226   1.923   7.349   3.583
15662WAT      O47227   9.164   4.499   4.953
15662WAT     H147228   9.064   4.509   4.947
15662WAT     H247229   9.203   4.584   4.988
15663WAT      O47230   5.142   1.000   4.215
15663WAT     H147231   5.227   0.985   4.266
15663WAT     H247232   5.083   1.061   4.266
15664WAT      O47233   9.478   3.672   2.600
15664WAT     H147234   9.573   3.642   2.585
15664WAT     H247235   9.451   3.735   2.528
15665WAT      O47236   9.325   4.565   1.244
15665WAT     H147237   9.386   4.608   1.178
15665WAT     H247238   9.319   4.623   1.326
15666WAT      O47239   4.837   7.740   6.421
15666WAT     H147240   4.837   7.821   6.481
15666WAT     H247241   4.930   7.722   6.390
15667WAT      O47242   7.323   9.496   0.245
15667WAT     H147243   7.295   9.440   0.323
15667WAT     H247244   7.371   9.577   0.279
15668WAT      O47245   8.833   8.512   5.449
15668WAT     H147246   8.859   8.437   5.389
15668WAT     H247247   8.738   8.501   5.477
15669WAT      O47248   2.336   4.780   0.271
15669WAT     H147249   2.407   4.800   0.339
15669WAT     H247250   2.375   4.787   0.179
15670WAT      O47251   9.431   5.867   1.952
15670WAT     H147252   9.486   5.823   1.880
15670WAT     H247253   9.372   5.799   1.995
15671WAT      O47254   1.254   5.677   1.996
15671WAT     H147255   1.333   5.713   2.045
15671WAT     H247256   1.226   5.743   1.925
15672WAT      O47257   4.890   2.829   3.280
15672WAT     H147258   4.987   2.804   3.271
15672WAT     H247259   4.874   2.866   3.371
15673WAT      O47260   4.794   3.817   9.257
15673WAT     H147261   4.709   3.783   9.216
15673WAT     H247262   4.779   3.909   9.294
15674WAT      O47263   6.448   6.278   5.649
15674WAT     H147264   6.459   6.200   5.712
15674WAT     H247265   6.410   6.245   5.563
15675WAT      O47266   0.896   7.955   9.794
15675WAT     H147267   0.970   7.929   9.855
15675WAT     H247268   0.831   7.880   9.786
15676WAT      O47269   6.083   0.849   8.840
15676WAT     H147270   5.986   0.831   8.856
15676WAT     H247271   6.137   0.807   8.913
15677WAT      O47272   4.700   7.755   5.875
15677WAT     H147273   4.646   7.795   5.949
15677WAT     H247274   4.788   7.724   5.911
15678WAT      O47275   8.685   4.962   6.113
15678WAT     H147276   8.707   4.969   6.210
15678WAT     H247277   8.716   5.044   6.065
15679WAT      O47278   2.401   7.172   2.099
15679WAT     H147279   2.481   7.156   2.157
15679WAT     H247280   2.327   7.210   2.155
15680WAT      O47281   0.407   9.509   6.782
15680WAT     H147282   0.371   9.426   6.823
15680WAT     H247283   0.352   9.588   6.810
15681WAT      O47284   3.313   1.493   2.332
15681WAT     H147285   3.375   1.498   2.253
15681WAT     H247286   3.230   1.546   2.313
15682WAT      O47287   7.404   3.963   9.692
15682WAT     H147288   7.462   4.044   9.682
15682WAT     H247289   7.424   3.898   9.619
15683WAT      O47290   8.872   1.330   7.920
15683WAT     H147291   8.834   1.320   7.828
15683WAT     H247292   8.972   1.338   7.914
15684WAT      O47293   4.771   6.938   6.107
15684WAT     H147294   4.819   6.877   6.170
15684WAT     H247295   4.832   7.013   6.080
15685WAT      O47296   5.715   6.055   6.623
15685WAT     H147297   5.615   6.049   6.619
15685WAT     H247298   5.754   5.964   6.633
15686WAT      O47299   9.753   6.067   3.272
15686WAT     H147300   9.775   6.115   3.187
15686WAT     H247301   9.694   5.989   3.252
15687WAT      O47302   4.342   2.372   0.044
15687WAT     H147303   4.248   2.362   0.011
15687WAT     H247304   4.346   2.347   0.140
15688WAT      O47305   2.396   6.513   1.461
15688WAT     H147306   2.324   6.546   1.523
15688WAT     H247307   2.417   6.584   1.394
15689WAT      O47308   9.127   6.451   5.704
15689WAT     H147309   9.033   6.474   5.681
15689WAT     H247310   9.169   6.399   5.630
15690WAT      O47311   0.709   7.798   8.249
15690WAT     H147312   0.743   7.889   8.273
15690WAT     H247313   0.701   7.743   8.332
15691WAT      O47314   2.541   1.932   6.467
15691WAT     H147315   2.527   1.891   6.557
15691WAT     H247316   2.638   1.954   6.455
15692WAT      O47317   2.147   4.584   7.352
15692WAT     H147318   2.048   4.601   7.352
15692WAT     H247319   2.188   4.623   7.434
15693WAT      O47320   5.360   5.144   9.466
15693WAT     H147321   5.403   5.169   9.552
15693WAT     H247322   5.280   5.086   9.483
15694WAT      O47323   3.437   0.831   3.866
15694WAT     H147324   3.494   0.871   3.938
15694WAT     H247325   3.479   0.748   3.832
15695WAT      O47326   5.625   4.114   2.016
15695WAT     H147327   5.579   4.031   1.985
15695WAT     H247328   5.669   4.098   2.104
15696WAT      O47329   0.506   8.491   3.407
15696WAT     H147330   0.497   8.590   3.410
15696WAT     H247331   0.424   8.451   3.367
15697WAT      O47332   1.851   2.196   6.931
15697WAT     H147333   1.753   2.215   6.931
15697WAT     H247334   1.878   2.163   7.022
15698WAT      O47335   5.021   5.126   8.873
15698WAT     H147336   5.115   5.143   8.905
15698WAT     H247337   4.995   5.199   8.810
15699WAT      O47338   3.904   6.583   4.847
15699WAT     H147339   3.940   6.666   4.889
15699WAT     H247340   3.920   6.505   4.908
15700WAT      O47341   2.655   0.038   0.498
15700WAT     H147342   2.744   0.079   0.518
15700WAT     H247343   2.629   0.058   0.404
15701WAT      O47344   8.489   3.202   4.611
15701WAT     H147345   8.483   3.280   4.673
15701WAT     H247346   8.461   3.119   4.658
15702WAT      O47347   4.825   5.959   3.411
15702WAT     H147348   4.880   5.956   3.328
15702WAT     H247349   4.728   5.956   3.388
15703WAT      O47350   0.893   3.004   5.633
15703WAT     H147351   0.888   2.973   5.538
15703WAT     H247352   0.931   3.097   5.635
15704WAT      O47353   3.762   7.538   1.492
15704WAT     H147354   3.810   7.608   1.440
15704WAT     H247355   3.828   7.487   1.548
15705WAT      O47356   9.756   3.954   5.230
15705WAT     H147357   9.670   3.974   5.277
15705WAT     H247358   9.762   3.855   5.213
15706WAT      O47359   4.292   2.412   0.791
15706WAT     H147360   4.327   2.486   0.734
15706WAT     H247361   4.253   2.340   0.734
15707WAT      O47362   9.216   1.012   7.850
15707WAT     H147363   9.273   1.013   7.932
15707WAT     H247364   9.129   0.968   7.870
15708WAT      O47365   8.646   0.202   8.060
15708WAT     H147366   8.673   0.177   7.967
15708WAT     H247367   8.591   0.129   8.099
15709WAT      O47368   4.680   6.728   7.378
15709WAT     H147369   4.631   6.815   7.385
15709WAT     H247370   4.730   6.712   7.463
15710WAT      O47371   2.078   7.884   3.790
15710WAT     H147372   2.062   7.808   3.727
15710WAT     H247373   2.152   7.860   3.853
15711WAT      O47374   7.286   0.682   2.608
15711WAT     H147375   7.375   0.723   2.592
15711WAT     H247376   7.297   0.592   2.651
15712WAT      O47377   0.497   7.619   7.377
15712WAT     H147378   0.407   7.583   7.398
15712WAT     H247379   0.567   7.567   7.427
15713WAT      O47380   9.514   5.349   4.320
15713WAT     H147381   9.433   5.403   4.298
15713WAT     H247382   9.568   5.335   4.236
15714WAT      O47383   5.297   4.599   2.789
15714WAT     H147384   5.322   4.690   2.757
15714WAT     H247385   5.369   4.534   2.766
15715WAT      O47386   2.535   6.099   8.472
15715WAT     H147387   2.453   6.133   8.517
15715WAT     H247388   2.536   5.999   8.476
15716WAT      O47389   0.766   5.887   1.394
15716WAT     H147390   0.806   5.837   1.317
15716WAT     H247391   0.775   5.985   1.377
15717WAT      O47392   5.205   9.456   0.046
15717WAT     H147393   5.291   9.416   0.077
15717WAT     H247394   5.129   9.408   0.090
15718WAT      O47395   5.822   8.335   5.492
15718WAT     H147396   5.762   8.372   5.563
15718WAT     H247397   5.918   8.355   5.516
15719WAT      O47398   6.565   8.116   5.811
15719WAT     H147399   6.588   8.174   5.889
15719WAT     H247400   6.552   8.022   5.842
15720WAT      O47401   5.127   0.947   5.661
15720WAT     H147402   5.079   1.019   5.711
15720WAT     H247403   5.221   0.939   5.696
15721WAT      O47404   2.182   7.338   7.490
15721WAT     H147405   2.136   7.258   7.452
15721WAT     H247406   2.269   7.310   7.531
15722WAT      O47407   9.165   8.505   4.749
15722WAT     H147408   9.208   8.443   4.683
15722WAT     H247409   9.218   8.589   4.755
15723WAT      O47410   0.525   7.579   3.514
15723WAT     H147411   0.534   7.577   3.613
15723WAT     H247412   0.567   7.662   3.478
15724WAT      O47413   2.282   3.937   5.247
15724WAT     H147414   2.375   3.901   5.241
15724WAT     H247415   2.280   4.031   5.214
15725WAT      O47416   0.112   7.823   3.709
15725WAT     H147417   0.020   7.802   3.677
15725WAT     H247418   0.112   7.912   3.755
15726WAT      O47419   2.297   4.287   0.221
15726WAT     H147420   2.392   4.261   0.203
15726WAT     H247421   2.294   4.359   0.290
15727WAT      O47422   9.194   4.020   5.899
15727WAT     H147423   9.252   4.102   5.902
15727WAT     H247424   9.219   3.966   5.818
15728WAT      O47425   9.858   5.995   0.054
15728WAT     H147426   9.866   6.094   0.042
15728WAT     H247427   9.761   5.970   0.052
15729WAT      O47428   3.113   2.479   4.375
15729WAT     H147429   3.077   2.391   4.405
15729WAT     H247430   3.148   2.470   4.282
15730WAT      O47431   6.009   0.811   0.155
15730WAT     H147432   5.995   0.721   0.196
15730WAT     H247433   5.921   0.855   0.139
15731WAT      O47434   0.831   6.361   8.228
15731WAT     H147435   0.899   6.411   8.174
15731WAT     H247436   0.861   6.267   8.239
15732WAT      O47437   2.517   9.233   5.981
15732WAT     H147438   2.555   9.258   6.071
15732WAT     H247439   2.486   9.138   5.984
15733WAT      O47440   4.081   7.062   2.030
15733WAT     H147441   4.059   6.966   2.050
15733WAT     H247442   4.113   7.107   2.113
15734WAT      O47443   8.514   6.576   8.145
15734WAT     H147444   8.535   6.479   8.161
15734WAT     H247445   8.595   6.631   8.166
15735WAT      O47446   8.713   1.266   1.377
15735WAT     H147447   8.801   1.307   1.401
15735WAT     H247448   8.716   1.168   1.394
15736WAT      O47449   4.427   9.153   5.193
15736WAT     H147450   4.493   9.213   5.239
15736WAT     H247451   4.464   9.060   5.189
15737WAT      O47452   5.741   4.124   6.613
15737WAT     H147453   5.691   4.196   6.567
15737WAT     H247454   5.749   4.145   6.710
15738WAT      O47455   1.646   6.292   5.592
15738WAT     H147456   1.686   6.255   5.508
15738WAT     H247457   1.717   6.296   5.663
15739WAT      O47458   1.980   7.620   5.190
15739WAT     H147459   1.961   7.523   5.176
15739WAT     H247460   1.951   7.647   5.282
15740WAT      O47461   9.722   7.232   4.404
15740WAT     H147462   9.631   7.273   4.405
15740WAT     H247463   9.773   7.266   4.325
15741WAT      O47464   3.417   4.226   4.606
15741WAT     H147465   3.416   4.326   4.606
15741WAT     H247466   3.498   4.194   4.655
15742WAT      O47467   5.919   3.207   1.599
15742WAT     H147468   5.989   3.139   1.623
15742WAT     H247469   5.851   3.212   1.672
15743WAT      O47470   5.936   2.177   9.155
15743WAT     H147471   5.965   2.272   9.151
15743WAT     H247472   5.858   2.163   9.093
15744WAT      O47473   6.552   9.183   6.146
15744WAT     H147474   6.481   9.235   6.192
15744WAT     H247475   6.551   9.089   6.181
15745WAT      O47476   0.132   7.775   2.432
15745WAT     H147477   0.108   7.863   2.392
15745WAT     H247478   0.209   7.735   2.382
15746WAT      O47479   3.140   5.232   7.088
15746WAT     H147480   3.147   5.314   7.030
15746WAT     H247481   3.046   5.197   7.084
15747WAT      O47482   5.400   7.736   4.639
15747WAT     H147483   5.401   7.693   4.730
15747WAT     H247484   5.355   7.825   4.645
15748WAT      O47485   1.989   2.352   3.037
15748WAT     H147486   2.062   2.415   3.012
15748WAT     H247487   2.028   2.261   3.056
15749WAT      O47488   7.074   5.957   4.091
15749WAT     H147489   7.124   6.003   4.164
15749WAT     H247490   7.002   5.900   4.131
15750WAT      O47491   2.921   8.071   2.094
15750WAT     H147492   2.983   8.029   2.161
15750WAT     H247493   2.861   8.136   2.140
15751WAT      O47494   0.599   1.567   4.685
15751WAT     H147495   0.548   1.481   4.678
15751WAT     H247496   0.619   1.585   4.782
15752WAT      O47497   1.548   8.573   0.680
15752WAT     H147498   1.531   8.631   0.759
15752WAT     H247499   1.641   8.590   0.646
15753WAT      O47500   0.928   2.830   0.634
15753WAT     H147501   0.998   2.801   0.569
15753WAT     H247502   0.840   2.789   0.610
15754WAT      O47503   9.793   3.055   3.845
15754WAT     H147504   9.737   3.044   3.927
15754WAT     H247505   9.734   3.070   3.766
15755WAT      O47506   1.576   0.184   8.234
15755WAT     H147507   1.525   0.120   8.292
15755WAT     H247508   1.674   0.177   8.256
15756WAT      O47509   7.610   7.680   3.896
15756WAT     H147510   7.678   7.734   3.847
15756WAT     H247511   7.655   7.609   3.949
15757WAT      O47512   1.674   8.646   5.970
15757WAT     H147513   1.595   8.669   5.913
15757WAT     H247514   1.697   8.550   5.959
15758WAT      O47515   0.443   6.719   7.941
15758WAT     H147516   0.514   6.743   7.875
15758WAT     H247517   0.478   6.734   8.034
15759WAT      O47518   0.498   9.288   7.808
15759WAT     H147519   0.513   9.367   7.749
15759WAT     H247520   0.400   9.273   7.819
15760WAT      O47521   1.378   9.245   6.133
15760WAT     H147522   1.359   9.281   6.224
15760WAT     H247523   1.466   9.280   6.101
15761WAT      O47524   8.750   6.787   3.883
15761WAT     H147525   8.803   6.827   3.958
15761WAT     H247526   8.713   6.699   3.912
15762WAT      O47527   7.440   0.683   1.698
15762WAT     H147528   7.352   0.726   1.719
15762WAT     H247529   7.501   0.750   1.656
15763WAT      O47530   5.225   3.712   3.298
15763WAT     H147531   5.226   3.621   3.257
15763WAT     H247532   5.135   3.729   3.338
15764WAT      O47533   3.037   1.478   7.955
15764WAT     H147534   3.115   1.454   7.897
15764WAT     H247535   3.070   1.502   8.046
15765WAT      O47536   7.027   0.208   2.605
15765WAT     H147537   6.966   0.161   2.541
15765WAT     H247538   7.063   0.142   2.671
15766WAT      O47539   6.563   2.140   1.533
15766WAT     H147540   6.605   2.192   1.459
15766WAT     H247541   6.525   2.204   1.601
15767WAT      O47542   0.124   6.374   5.506
15767WAT     H147543   0.093   6.468   5.520
15767WAT     H247544   0.223   6.370   5.514
15768WAT      O47545   2.873   1.412   3.781
15768WAT     H147546   2.837   1.485   3.724
15768WAT     H247547   2.798   1.354   3.814
15769WAT      O47548   8.719   6.202   3.764
15769WAT     H147549   8.734   6.103   3.760
15769WAT     H247550   8.636   6.225   3.713
15770WAT      O47551   6.603   3.718   3.044
15770WAT     H147552   6.537   3.663   2.993
15770WAT     H247553   6.559   3.800   3.078
15771WAT      O47554   6.493   8.976   2.750
15771WAT     H147555   6.581   8.962   2.795
15771WAT     H247556   6.423   8.923   2.798
15772WAT      O47557   6.533   9.735   8.844
15772WAT     H147558   6.537   9.804   8.917
15772WAT     H247559   6.591   9.764   8.768
15773WAT      O47560   1.783   6.766   9.844
15773WAT     H147561   1.724   6.742   9.766
15773WAT     H247562   1.822   6.857   9.829
15774WAT      O47563   4.767   3.614   7.402
15774WAT     H147564   4.830   3.562   7.459
15774WAT     H247565   4.675   3.608   7.441
15775WAT      O47566   0.722   1.448   6.205
15775WAT     H147567   0.646   1.470   6.266
15775WAT     H247568   0.803   1.426   6.259
15776WAT      O47569   6.639   9.740   4.903
15776WAT     H147570   6.547   9.739   4.943
15776WAT     H247571   6.699   9.681   4.956
15777WAT      O47572   7.126   7.365   7.536
15777WAT     H147573   7.129   7.405   7.445
15777WAT     H247574   7.066   7.419   7.595
15778WAT      O47575   9.097   9.283   8.978
15778WAT     H147576   9.150   9.311   9.058
15778WAT     H247577   9.065   9.189   8.990
15779WAT      O47578   0.478   0.097   7.663
15779WAT     H147579   0.429   0.170   7.616
15779WAT     H247580   0.531   0.136   7.738
15780WAT      O47581   5.565   3.160   2.321
15780WAT     H147582   5.493   3.224   2.350
15780WAT     H247583   5.589   3.101   2.398
15781WAT      O47584   7.009   4.857   7.883
15781WAT     H147585   7.019   4.794   7.959
15781WAT     H247586   6.995   4.950   7.918
15782WAT      O47587   5.445   2.433   1.447
15782WAT     H147588   5.494   2.466   1.528
15782WAT     H247589   5.410   2.511   1.396
15783WAT      O47590   4.966   8.512   4.054
15783WAT     H147591   4.888   8.562   4.091
15783WAT     H247592   4.978   8.427   4.104
15784WAT      O47593   4.955   7.134   8.707
15784WAT     H147594   4.944   7.104   8.613
15784WAT     H247595   5.052   7.133   8.731
15785WAT      O47596   2.135   4.530   2.997
15785WAT     H147597   2.041   4.540   2.965
15785WAT     H247598   2.181   4.619   2.995
15786WAT      O47599   2.303   3.748   8.891
15786WAT     H147600   2.322   3.763   8.794
15786WAT     H247601   2.388   3.753   8.943
15787WAT      O47602   7.300   1.875   6.273
15787WAT     H147603   7.248   1.956   6.298
15787WAT     H247604   7.249   1.822   6.205
15788WAT      O47605   2.669   7.645   0.270
15788WAT     H147606   2.628   7.556   0.253
15788WAT     H247607   2.718   7.644   0.357
15789WAT      O47608   8.192   0.654   3.969
15789WAT     H147609   8.217   0.636   4.064
15789WAT     H247610   8.211   0.750   3.948
15790WAT      O47611   6.178   5.361   0.882
15790WAT     H147612   6.254   5.335   0.942
15790WAT     H247613   6.158   5.458   0.894
15791WAT      O47614   7.501   3.285   7.340
15791WAT     H147615   7.595   3.316   7.354
15791WAT     H247616   7.438   3.345   7.391
15792WAT      O47617   5.453   2.633   4.881
15792WAT     H147618   5.411   2.546   4.855
15792WAT     H247619   5.432   2.654   4.976
15793WAT      O47620   3.259   3.332   4.487
15793WAT     H147621   3.215   3.413   4.525
15793WAT     H247622   3.254   3.335   4.387
15794WAT      O47623   8.106   4.269   0.280
15794WAT     H147624   8.118   4.174   0.308
15794WAT     H247625   8.151   4.283   0.192
15795WAT      O47626   8.359   5.699   8.486
15795WAT     H147627   8.291   5.652   8.430
15795WAT     H247628   8.378   5.645   8.568
15796WAT      O47629   5.992   9.059   6.468
15796WAT     H147630   6.013   9.014   6.555
15796WAT     H247631   6.059   9.131   6.451
15797WAT      O47632   4.007   1.324   5.513
15797WAT     H147633   3.918   1.363   5.488
15797WAT     H247634   3.994   1.231   5.548
15798WAT      O47635   4.343   6.633   8.669
15798WAT     H147636   4.310   6.623   8.575
15798WAT     H247637   4.266   6.654   8.729
15799WAT      O47638   3.759   5.663   8.400
15799WAT     H147639   3.661   5.650   8.408
15799WAT     H247640   3.807   5.591   8.451
15800WAT      O47641   7.250   2.316   6.935
15800WAT     H147642   7.155   2.343   6.949
15800WAT     H247643   7.297   2.387   6.881
15801WAT      O47644   5.554   1.644   2.900
15801WAT     H147645   5.603   1.730   2.884
15801WAT     H247646   5.615   1.567   2.883
15802WAT      O47647   4.830   3.670   5.052
15802WAT     H147648   4.760   3.627   5.109
15802WAT     H247649   4.919   3.656   5.094
15803WAT      O47650   2.421   5.030   4.655
15803WAT     H147651   2.486   5.100   4.627
15803WAT     H247652   2.330   5.053   4.620
15804WAT      O47653   0.637   4.959   9.450
15804WAT     H147654   0.654   4.870   9.491
15804WAT     H247655   0.549   4.958   9.403
15805WAT      O47656   8.482   7.579   0.194
15805WAT     H147657   8.567   7.588   0.143
15805WAT     H247658   8.490   7.504   0.260
15806WAT      O47659   8.989   5.763   8.728
15806WAT     H147660   9.045   5.760   8.645
15806WAT     H247661   8.916   5.830   8.717
15807WAT      O47662   2.089   7.940   6.457
15807WAT     H147663   1.997   7.922   6.491
15807WAT     H247664   2.084   7.990   6.371
15808WAT      O47665   0.533   1.505   2.648
15808WAT     H147666   0.443   1.469   2.672
15808WAT     H247667   0.555   1.582   2.708
15809WAT      O47668   6.486   4.596   8.268
15809WAT     H147669   6.501   4.501   8.241
15809WAT     H247670   6.490   4.655   8.188
15810WAT      O47671   8.899   4.151   1.910
15810WAT     H147672   8.970   4.148   1.981
15810WAT     H247673   8.871   4.245   1.894
15811WAT      O47674   5.749   0.391   3.538
15811WAT     H147675   5.718   0.296   3.547
15811WAT     H247676   5.833   0.404   3.591
15812WAT      O47677   1.876   4.470   5.229
15812WAT     H147678   1.915   4.407   5.296
15812WAT     H247679   1.782   4.443   5.209
15813WAT      O47680   4.689   1.531   8.048
15813WAT     H147681   4.648   1.620   8.030
15813WAT     H247682   4.623   1.459   8.028
15814WAT      O47683   0.679   0.628   7.276
15814WAT     H147684   0.674   0.677   7.363
15814WAT     H247685   0.611   0.666   7.213
15815WAT      O47686   6.213   8.925   0.607
15815WAT     H147687   6.130   8.875   0.581
15815WAT     H247688   6.278   8.863   0.651
15816WAT      O47689   8.848   6.715   0.655
15816WAT     H147690   8.832   6.725   0.557
15816WAT     H247691   8.841   6.619   0.680
15817WAT      O47692   0.170   4.566   7.770
15817WAT     H147693   0.251   4.533   7.818
15817WAT     H247694   0.156   4.511   7.688
15818WAT      O47695   7.615   9.455   2.696
15818WAT     H147696   7.567   9.403   2.625
15818WAT     H247697   7.667   9.392   2.754
15819WAT      O47698   2.586   7.509   7.314
15819WAT     H147699   2.530   7.436   7.275
15819WAT     H247700   2.613   7.484   7.407
15820WAT      O47701   0.349   5.497   1.969
15820WAT     H147702   0.352   5.399   1.953
15820WAT     H247703   0.283   5.539   1.906
15821WAT      O47704   4.962   6.781   2.284
15821WAT     H147705   4.988   6.698   2.333
15821WAT     H247706   4.944   6.855   2.348
15822WAT      O47707   5.304   7.123   5.356
15822WAT     H147708   5.281   7.171   5.271
15822WAT     H247709   5.304   7.024   5.340
15823WAT      O47710   7.502   3.981   7.827
15823WAT     H147711   7.463   4.052   7.885
15823WAT     H247712   7.561   4.022   7.758
15824WAT      O47713   2.580   5.518   9.253
15824WAT     H147714   2.624   5.564   9.329
15824WAT     H247715   2.649   5.485   9.188
15825WAT      O47716   6.518   6.433   3.056
15825WAT     H147717   6.555   6.466   3.143
15825WAT     H247718   6.534   6.503   2.985
15826WAT      O47719   4.539   9.735   1.142
15826WAT     H147720   4.531   9.784   1.229
15826WAT     H247721   4.516   9.639   1.155
15827WAT      O47722   5.313   0.198   4.737
15827WAT     H147723   5.367   0.117   4.714
15827WAT     H247724   5.372   0.265   4.782
15828WAT      O47725   7.907   4.522   9.696
15828WAT     H147726   7.952   4.469   9.624
15828WAT     H247727   7.816   4.484   9.714
15829WAT      O47728   7.895   2.701   4.236
15829WAT     H147729   7.987   2.675   4.267
15829WAT     H247730   7.830   2.686   4.310
15830WAT      O47731   7.525   7.426   1.688
15830WAT     H147732   7.567   7.514   1.711
15830WAT     H247733   7.587   7.352   1.711
15831WAT      O47734   5.007   8.458   1.744
15831WAT     H147735   5.096   8.483   1.783
15831WAT     H247736   5.003   8.490   1.649
15832WAT      O47737   4.454   9.264   4.725
15832WAT     H147738   4.451   9.316   4.810
15832WAT     H247739   4.389   9.188   4.730
15833WAT      O47740   7.142   8.655   7.817
15833WAT     H147741   7.203   8.723   7.855
15833WAT     H247742   7.072   8.632   7.884
15834WAT      O47743   6.525   7.290   2.595
15834WAT     H147744   6.613   7.325   2.563
15834WAT     H247745   6.519   7.192   2.575
15835WAT      O47746   8.269   8.225   8.470
15835WAT     H147747   8.301   8.171   8.548
15835WAT     H247748   8.215   8.303   8.504
15836WAT      O47749   0.560   7.723   8.771
15836WAT     H147750   0.536   7.668   8.691
15836WAT     H247751   0.640   7.779   8.750
15837WAT      O47752   1.392   4.377   1.754
15837WAT     H147753   1.386   4.373   1.854
15837WAT     H247754   1.323   4.440   1.719
15838WAT      O47755   2.976   8.838   2.739
15838WAT     H147756   2.916   8.825   2.660
15838WAT     H247757   3.067   8.863   2.707
15839WAT      O47758   6.852   4.130   2.199
15839WAT     H147759   6.900   4.111   2.113
15839WAT     H247760   6.853   4.229   2.217
15840WAT      O47761   6.572   0.480   7.123
15840WAT     H147762   6.663   0.522   7.114
15840WAT     H247763   6.512   0.515   7.052
15841WAT      O47764   3.041   2.643   5.990
15841WAT     H147765   3.073   2.718   5.932
15841WAT     H247766   3.108   2.625   6.062
15842WAT      O47767   8.212   1.211   4.346
15842WAT     H147768   8.229   1.294   4.292
15842WAT     H247769   8.298   1.178   4.385
15843WAT      O47770   3.413   1.746   0.082
15843WAT     H147771   3.479   1.674   0.059
15843WAT     H247772   3.353   1.762   0.003
15844WAT      O47773   0.147   3.232   2.681
15844WAT     H147774   0.081   3.283   2.736
15844WAT     H247775   0.099   3.176   2.614
15845WAT      O47776   4.460   1.409   1.560
15845WAT     H147777   4.552   1.382   1.591
15845WAT     H247778   4.394   1.387   1.631
15846WAT      O47779   6.818   5.969   1.324
15846WAT     H147780   6.828   5.926   1.414
15846WAT     H247781   6.781   5.903   1.259
15847WAT      O47782   1.735   2.050   4.769
15847WAT     H147783   1.780   2.037   4.681
15847WAT     H247784   1.757   1.973   4.829
15848WAT      O47785   5.619   5.344   1.254
15848WAT     H147786   5.657   5.339   1.161
15848WAT     H247787   5.545   5.412   1.256
15849WAT      O47788   3.353   0.860   6.506
15849WAT     H147789   3.374   0.913   6.423
15849WAT     H247790   3.375   0.764   6.490
15850WAT      O47791   0.396   1.053   4.717
15850WAT     H147792   0.486   1.020   4.745
15850WAT     H247793   0.368   1.006   4.634
15851WAT      O47794   2.636   5.963   9.802
15851WAT     H147795   2.538   5.951   9.819
15851WAT     H247796   2.682   5.982   9.889
15852WAT      O47797   1.044   0.271   3.760
15852WAT     H147798   1.134   0.243   3.794
15852WAT     H247799   0.973   0.243   3.825
15853WAT      O47800   0.537   2.174   2.356
15853WAT     H147801   0.535   2.160   2.455
15853WAT     H247802   0.509   2.089   2.310
15854WAT      O47803   3.127   2.417   0.846
15854WAT     H147804   3.147   2.378   0.936
15854WAT     H247805   3.103   2.345   0.782
15855WAT      O47806   5.398   9.356   3.874
15855WAT     H147807   5.332   9.406   3.817
15855WAT     H247808   5.486   9.353   3.828
15856WAT      O47809   4.072   8.698   1.717
15856WAT     H147810   4.064   8.748   1.803
15856WAT     H247811   3.991   8.642   1.703
15857WAT      O47812   4.715   8.746   7.910
15857WAT     H147813   4.642   8.688   7.874
15857WAT     H247814   4.802   8.699   7.903
15858WAT      O47815   9.890   3.133   1.338
15858WAT     H147816   9.903   3.158   1.434
15858WAT     H247817   9.831   3.052   1.332
15859WAT      O47818   7.224   3.253   1.598
15859WAT     H147819   7.266   3.169   1.562
15859WAT     H247820   7.215   3.247   1.697
15860WAT      O47821   0.101   5.972   9.553
15860WAT     H147822   0.152   5.980   9.639
15860WAT     H247823   0.023   6.034   9.555
15861WAT      O47824   8.152   1.251   3.543
15861WAT     H147825   8.152   1.250   3.443
15861WAT     H247826   8.153   1.345   3.576
15862WAT      O47827   2.228   6.175   1.219
15862WAT     H147828   2.292   6.244   1.186
15862WAT     H247829   2.206   6.193   1.315
15863WAT      O47830   0.749   3.491   5.326
15863WAT     H147831   0.681   3.515   5.395
15863WAT     H247832   0.840   3.490   5.367
15864WAT      O47833   1.952   9.654   0.905
15864WAT     H147834   1.925   9.733   0.850
15864WAT     H247835   1.973   9.684   0.998
15865WAT      O47836   3.091   8.052   0.885
15865WAT     H147837   3.176   8.033   0.836
15865WAT     H247838   3.027   8.097   0.822
15866WAT      O47839   7.655   3.119   1.220
15866WAT     H147840   7.650   3.171   1.306
15866WAT     H247841   7.630   3.024   1.238
15867WAT      O47842   2.080   9.150   7.230
15867WAT     H147843   2.031   9.173   7.146
15867WAT     H247844   2.022   9.094   7.289
15868WAT      O47845   7.389   9.446   4.455
15868WAT     H147846   7.315   9.391   4.416
15868WAT     H247847   7.477   9.409   4.426
15869WAT      O47848   9.517   3.436   7.430
15869WAT     H147849   9.420   3.412   7.436
15869WAT     H247850   9.532   3.493   7.349
15870WAT      O47851   3.904   7.562   8.484
15870WAT     H147852   3.931   7.572   8.580
15870WAT     H247853   3.895   7.653   8.443
15871WAT      O47854   9.028   7.174   0.308
15871WAT     H147855   8.948   7.231   0.293
15871WAT     H247856   9.105   7.210   0.254
15872WAT      O47857   0.746   0.673   3.346
15872WAT     H147858   0.810   0.671   3.269
15872WAT     H247859   0.796   0.660   3.432
15873WAT      O47860   7.973   4.833   3.223
15873WAT     H147861   8.025   4.899   3.168
15873WAT     H247862   7.884   4.871   3.246
15874WAT      O47863   3.635   1.240   3.120
15874WAT     H147864   3.649   1.261   3.217
15874WAT     H247865   3.569   1.304   3.081
15875WAT      O47866   1.255   8.370   5.583
15875WAT     H147867   1.333   8.378   5.521
15875WAT     H247868   1.288   8.371   5.678
15876WAT      O47869   1.524   9.080   4.752
15876WAT     H147870   1.439   9.112   4.711
15876WAT     H247871   1.602   9.116   4.700
15877WAT      O47872   7.458   9.714   2.372
15877WAT     H147873   7.438   9.811   2.355
15877WAT     H247874   7.411   9.685   2.455
15878WAT      O47875   2.070   0.958   0.356
15878WAT     H147876   2.029   0.989   0.270
15878WAT     H247877   2.054   0.859   0.366
15879WAT      O47878   5.448   0.040   5.832
15879WAT     H147879   5.509  -0.031   5.798
15879WAT     H247880   5.441   0.113   5.764
15880WAT      O47881   4.307   5.526   9.283
15880WAT     H147882   4.285   5.472   9.202
15880WAT     H247883   4.340   5.466   9.356
15881WAT      O47884   6.212   4.245   1.621
15881WAT     H147885   6.208   4.335   1.664
15881WAT     H247886   6.141   4.237   1.552
15882WAT      O47887   6.841   3.427   3.868
15882WAT     H147888   6.812   3.456   3.959
15882WAT     H247889   6.769   3.372   3.826
15883WAT      O47890   3.903   7.205   0.353
15883WAT     H147891   3.957   7.133   0.395
15883WAT     H247892   3.814   7.169   0.324
15884WAT      O47893   5.581   8.952   7.462
15884WAT     H147894   5.587   8.958   7.362
15884WAT     H247895   5.548   8.861   7.487
15885WAT      O47896   3.128   2.910   5.366
15885WAT     H147897   3.058   2.838   5.368
15885WAT     H247898   3.085   2.997   5.341
15886WAT      O47899   8.329   1.302   6.301
15886WAT     H147900   8.320   1.332   6.206
15886WAT     H247901   8.334   1.382   6.361
15887WAT      O47902   2.042   7.539   3.133
15887WAT     H147903   2.020   7.605   3.062
15887WAT     H247904   1.962   7.525   3.191
15888WAT      O47905   9.821   5.185   3.071
15888WAT     H147906   9.785   5.211   2.981
15888WAT     H247907   9.840   5.087   3.073
15889WAT      O47908   3.670   0.576   7.553
15889WAT     H147909   3.628   0.491   7.521
15889WAT     H247910   3.751   0.596   7.497
15890WAT      O47911   9.117   7.300   1.708
15890WAT     H147912   9.151   7.326   1.798
15890WAT     H247913   9.174   7.226   1.671
15891WAT      O47914   2.170   7.375   0.624
15891WAT     H147915   2.128   7.464   0.607
15891WAT     H247916   2.242   7.384   0.693
15892WAT      O47917   7.311   4.505   1.460
15892WAT     H147918   7.407   4.513   1.490
15892WAT     H247919   7.307   4.451   1.376
15893WAT      O47920   1.343   2.593   4.584
15893WAT     H147921   1.427   2.562   4.629
15893WAT     H247922   1.367   2.655   4.509
15894WAT      O47923   8.473   9.327   8.310
15894WAT     H147924   8.549   9.283   8.262
15894WAT     H247925   8.387   9.301   8.267
15895WAT      O47926   2.490   3.630   4.418
15895WAT     H147927   2.556   3.637   4.344
15895WAT     H247928   2.420   3.701   4.408
15896WAT      O47929   4.993   2.904   0.605
15896WAT     H147930   4.903   2.930   0.567
15896WAT     H247931   4.997   2.930   0.701
15897WAT      O47932   8.293   1.437   9.401
15897WAT     H147933   8.383   1.397   9.387
15897WAT     H247934   8.291   1.529   9.362
15898WAT      O47935   8.494   3.710   9.295
15898WAT     H147936   8.435   3.773   9.345
15898WAT     H247937   8.487   3.729   9.197
15899WAT      O47938   1.359   1.099   9.285
15899WAT     H147939   1.370   1.106   9.186
15899WAT     H247940   1.379   1.005   9.314
15900WAT      O47941   1.209   1.729   9.897
15900WAT     H147942   1.226   1.820   9.860
15900WAT     H247943   1.184   1.667   9.823
15901WAT      O47944   2.102   6.507   5.343
15901WAT     H147945   2.132   6.432   5.283
15901WAT     H247946   2.174   6.575   5.351
15902WAT      O47947   1.514   5.252   5.722
15902WAT     H147948   1.415   5.262   5.711
15902WAT     H247949   1.560   5.287   5.640
15903WAT      O47950   6.351   1.274   1.120
15903WAT     H147951   6.264   1.309   1.155
15903WAT     H247952   6.391   1.341   1.057
15904WAT      O47953   1.664   8.743   2.509
15904WAT     H147954   1.640   8.840   2.515
15904WAT     H247955   1.758   8.734   2.476
15905WAT      O47956   8.993   1.616   1.855
15905WAT     H147957   8.951   1.699   1.889
15905WAT     H247958   9.082   1.637   1.813
15906WAT      O47959   6.700   5.101   7.157
15906WAT     H147960   6.729   5.161   7.232
15906WAT     H247961   6.752   5.124   7.075
15907WAT      O47962   1.628   8.683   8.928
15907WAT     H147963   1.555   8.616   8.936
15907WAT     H247964   1.671   8.676   8.838
15908WAT      O47965   1.172   5.902   7.344
15908WAT     H147966   1.186   5.996   7.375
15908WAT     H247967   1.074   5.882   7.341
15909WAT      O47968   1.729   6.798   4.718
15909WAT     H147969   1.788   6.827   4.642
15909WAT     H247970   1.771   6.722   4.766
15910WAT      O47971   6.359   4.109   6.888
15910WAT     H147972   6.392   4.166   6.963
15910WAT     H247973   6.287   4.048   6.921
15911WAT      O47974   9.440   8.604   3.868
15911WAT     H147975   9.489   8.519   3.886
15911WAT     H247976   9.356   8.584   3.817
15912WAT      O47977   5.477   0.400   2.819
15912WAT     H147978   5.414   0.459   2.871
15912WAT     H247979   5.473   0.423   2.722
15913WAT      O47980   9.157   9.562   8.995
15913WAT     H147981   9.086   9.615   9.041
15913WAT     H247982   9.190   9.490   9.057
15914WAT      O47983   7.586   7.276   8.181
15914WAT     H147984   7.527   7.356   8.171
15914WAT     H247985   7.677   7.298   8.146
15915WAT      O47986   7.767   9.817   6.966
15915WAT     H147987   7.690   9.880   6.960
15915WAT     H247988   7.734   9.725   6.989
15916WAT      O47989   0.788   0.825   4.431
15916WAT     H147990   0.727   0.746   4.440
15916WAT     H247991   0.763   0.894   4.498
15917WAT      O47992   6.584   9.712   5.940
15917WAT     H147993   6.488   9.684   5.926
15917WAT     H247994   6.594   9.752   6.031
15918WAT      O47995   1.173   7.316   3.887
15918WAT     H147996   1.229   7.244   3.928
15918WAT     H247997   1.098   7.339   3.950
15919WAT      O47998   2.304   2.211   0.791
15919WAT     H147999   2.297   2.311   0.787
15919WAT     H248000   2.306   2.182   0.887
15920WAT      O48001   1.812   3.600   2.187
15920WAT     H148002   1.732   3.640   2.232
15920WAT     H248003   1.785   3.563   2.099
15921WAT      O48004   8.568   5.139   5.238
15921WAT     H148005   8.470   5.119   5.231
15921WAT     H248006   8.611   5.078   5.304
15922WAT      O48007   5.523   6.117   8.293
15922WAT     H148008   5.499   6.049   8.224
15922WAT     H248009   5.440   6.157   8.331
15923WAT      O48010   3.809   2.235   7.554
15923WAT     H148011   3.882   2.221   7.621
15923WAT     H248012   3.748   2.156   7.554
15924WAT      O48013   9.886   8.541   1.975
15924WAT     H148014   9.866   8.493   2.060
15924WAT     H248015   9.803   8.547   1.920
15925WAT      O48016   5.375   1.369   8.328
15925WAT     H148017   5.390   1.296   8.263
15925WAT     H248018   5.279   1.396   8.328
15926WAT      O48019   8.523   2.315   9.709
15926WAT     H148020   8.546   2.388   9.644
15926WAT     H248021   8.429   2.284   9.693
15927WAT      O48022   1.948   6.545   5.557
15927WAT     H148023   1.933   6.643   5.541
15927WAT     H248024   2.012   6.510   5.489
15928WAT      O48025   7.644   2.180   8.395
15928WAT     H148026   7.641   2.273   8.359
15928WAT     H248027   7.606   2.179   8.488
15929WAT      O48028   6.934   3.968   3.084
15929WAT     H148029   6.896   3.900   3.022
15929WAT     H248030   7.012   4.013   3.041
15930WAT      O48031   3.269   0.895   5.353
15930WAT     H148032   3.248   0.911   5.257
15930WAT     H248033   3.188   0.918   5.408
15931WAT      O48034   3.564   1.191   0.902
15931WAT     H148035   3.536   1.096   0.895
15931WAT     H248036   3.663   1.197   0.917
15932WAT      O48037   5.662   5.825   9.726
15932WAT     H148038   5.701   5.825   9.818
15932WAT     H248039   5.615   5.739   9.709
15933WAT      O48040   1.961   1.040   3.977
15933WAT     H148041   1.928   1.134   3.979
15933WAT     H248042   1.937   0.998   3.889
15934WAT      O48043   4.503   5.646   6.490
15934WAT     H148044   4.549   5.557   6.495
15934WAT     H248045   4.545   5.709   6.555
15935WAT      O48046   6.983   3.881   8.897
15935WAT     H148047   6.993   3.978   8.919
15935WAT     H248048   7.031   3.862   8.811
15936WAT      O48049   3.787   3.021   0.396
15936WAT     H148050   3.759   3.068   0.312
15936WAT     H248051   3.862   3.071   0.439
15937WAT      O48052   0.872   5.071   6.975
15937WAT     H148053   0.916   5.129   7.044
15937WAT     H248054   0.825   5.128   6.908
15938WAT      O48055   8.457   0.573   0.790
15938WAT     H148056   8.370   0.594   0.745
15938WAT     H248057   8.448   0.587   0.889
15939WAT      O48058   5.320   0.230   9.427
15939WAT     H148059   5.389   0.223   9.498
15939WAT     H248060   5.324   0.321   9.384
15940WAT      O48061   6.701   2.797   2.641
15940WAT     H148062   6.703   2.827   2.546
15940WAT     H248063   6.638   2.854   2.693
15941WAT      O48064   1.504   1.095   7.918
15941WAT     H148065   1.516   1.127   7.824
15941WAT     H248066   1.590   1.108   7.968
15942WAT      O48067   3.474   8.435   7.772
15942WAT     H148068   3.381   8.463   7.793
15942WAT     H248069   3.507   8.485   7.691
15943WAT      O48070   6.360   9.586   5.316
15943WAT     H148071   6.401   9.494   5.319
15943WAT     H248072   6.295   9.591   5.240
15944WAT      O48073   9.193   1.203   0.551
15944WAT     H148074   9.147   1.115   0.564
15944WAT     H248075   9.202   1.223   0.454
15945WAT      O48076   4.086   2.368   9.808
15945WAT     H148077   4.042   2.448   9.765
15945WAT     H248078   4.033   2.341   9.889
15946WAT      O48079   3.728   3.976   4.332
15946WAT     H148080   3.813   4.026   4.314
15946WAT     H248081   3.740   3.880   4.306
15947WAT      O48082   7.041   7.218   4.723
15947WAT     H148083   6.975   7.192   4.793
15947WAT     H248084   7.046   7.318   4.717
15948WAT      O48085   9.784   3.969   6.799
15948WAT     H148086   9.788   3.980   6.899
15948WAT     H248087   9.717   3.898   6.776
15949WAT      O48088   0.750   9.513   5.537
15949WAT     H148089   0.707   9.429   5.504
15949WAT     H248090   0.688   9.560   5.599
15950WAT      O48091   2.878   3.451   9.430
15950WAT     H148092   2.900   3.483   9.338
15950WAT     H248093   2.908   3.356   9.440
15951WAT      O48094   4.869   5.702   2.253
15951WAT     H148095   4.883   5.651   2.338
15951WAT     H248096   4.924   5.786   2.255
15952WAT      O48097   7.507   7.790   9.243
15952WAT     H148098   7.594   7.839   9.233
15952WAT     H248099   7.479   7.753   9.154
15953WAT      O48100   4.509   7.396   4.665
15953WAT     H148101   4.579   7.461   4.692
15953WAT     H248102   4.436   7.443   4.615
15954WAT      O48103   5.085   6.624   2.059
15954WAT     H148104   5.050   6.676   2.137
15954WAT     H248105   5.167   6.574   2.087
15955WAT      O48106   5.152   6.248   7.856
15955WAT     H148107   5.191   6.194   7.930
15955WAT     H248108   5.224   6.269   7.789
15956WAT      O48109   9.233   7.012   4.356
15956WAT     H148110   9.258   7.109   4.351
15956WAT     H248111   9.143   7.003   4.400
15957WAT      O48112   4.679   0.459   4.831
15957WAT     H148113   4.684   0.482   4.734
15957WAT     H248114   4.771   0.456   4.870
15958WAT      O48115   1.484   4.710   8.932
15958WAT     H148116   1.416   4.773   8.968
15958WAT     H248117   1.573   4.729   8.974
15959WAT      O48118   9.217   7.580   3.592
15959WAT     H148119   9.215   7.482   3.571
15959WAT     H248120   9.291   7.623   3.541
15960WAT      O48121   5.841   0.572   2.018
15960WAT     H148122   5.910   0.510   1.983
15960WAT     H248123   5.841   0.656   1.964
15961WAT      O48124   5.751   8.693   7.023
15961WAT     H148125   5.741   8.605   6.975
15961WAT     H248126   5.665   8.715   7.069
15962WAT      O48127   2.509   0.820   7.887
15962WAT     H148128   2.532   0.811   7.790
15962WAT     H248129   2.590   0.847   7.938
15963WAT      O48130   3.471   0.369   9.606
15963WAT     H148131   3.464   0.271   9.624
15963WAT     H248132   3.484   0.418   9.693
15964WAT      O48133   6.684   2.593   7.930
15964WAT     H148134   6.681   2.616   7.833
15964WAT     H248135   6.780   2.594   7.961
15965WAT      O48136   1.047   7.481   8.891
15965WAT     H148137   1.118   7.411   8.881
15965WAT     H248138   1.079   7.568   8.854
15966WAT      O48139   2.322   7.419   8.869
15966WAT     H148140   2.278   7.349   8.813
15966WAT     H248141   2.361   7.490   8.810
15967WAT      O48142   9.183   0.636   1.956
15967WAT     H148143   9.201   0.679   2.045
15967WAT     H248144   9.202   0.538   1.961
15968WAT      O48145   2.047   3.610   8.238
15968WAT     H148146   2.041   3.564   8.149
15968WAT     H248147   2.007   3.551   8.308
15969WAT      O48148   3.240   1.761   6.630
15969WAT     H148149   3.201   1.800   6.713
15969WAT     H248150   3.173   1.765   6.556
15970WAT      O48151   4.550   3.621   8.255
15970WAT     H148152   4.567   3.651   8.161
15970WAT     H248153   4.507   3.695   8.306
15971WAT      O48154   8.294   9.293   0.874
15971WAT     H148155   8.260   9.200   0.863
15971WAT     H248156   8.265   9.329   0.963
15972WAT      O48157   2.468   5.065   9.328
15972WAT     H148158   2.403   5.141   9.338
15972WAT     H248159   2.459   5.025   9.236
15973WAT      O48160   8.536   0.393   7.312
15973WAT     H148161   8.482   0.317   7.349
15973WAT     H248162   8.608   0.357   7.253
15974WAT      O48163   1.249   8.672   5.567
15974WAT     H148164   1.343   8.683   5.535
15974WAT     H248165   1.219   8.577   5.553
15975WAT      O48166   2.236   4.747   5.859
15975WAT     H148167   2.238   4.767   5.957
15975WAT     H248168   2.320   4.699   5.834
15976WAT      O48169   0.276   2.293   4.178
15976WAT     H148170   0.211   2.369   4.169
15976WAT     H248171   0.250   2.236   4.255
15977WAT      O48172   7.231   8.561   8.154
15977WAT     H148173   7.330   8.573   8.156
15977WAT     H248174   7.187   8.649   8.137
15978WAT      O48175   6.365   8.734   2.895
15978WAT     H148176   6.456   8.694   2.886
15978WAT     H248177   6.315   8.688   2.969
15979WAT      O48178   7.622   6.289   7.144
15979WAT     H148179   7.666   6.240   7.068
15979WAT     H248180   7.691   6.314   7.212
15980WAT      O48181   9.839   5.516   5.431
15980WAT     H148182   9.934   5.532   5.455
15980WAT     H248183   9.807   5.587   5.368
15981WAT      O48184   5.257   1.884   6.429
15981WAT     H148185   5.159   1.883   6.452
15981WAT     H248186   5.299   1.968   6.465
15982WAT      O48187   6.052   1.617   4.248
15982WAT     H148188   5.986   1.602   4.174
15982WAT     H248189   6.101   1.532   4.265
15983WAT      O48190   6.028   4.020   3.459
15983WAT     H148191   6.065   4.104   3.497
15983WAT     H248192   5.933   4.009   3.488
15984WAT      O48193   4.327   8.039   2.956
15984WAT     H148194   4.270   8.119   2.935
15984WAT     H248195   4.405   8.036   2.895
15985WAT      O48196   8.189   9.416   5.396
15985WAT     H148197   8.109   9.367   5.359
15985WAT     H248198   8.221   9.483   5.329
15986WAT      O48199   3.109   3.997   0.008
15986WAT     H148200   3.050   4.078   0.010
15986WAT     H248201   3.097   3.950  -0.079
15987WAT      O48202   3.411   6.156   4.989
15987WAT     H148203   3.341   6.096   4.952
15987WAT     H248204   3.493   6.103   5.010
15988WAT      O48205   0.504   2.006   8.614
15988WAT     H148206   0.521   1.950   8.695
15988WAT     H248207   0.579   2.070   8.601
15989WAT      O48208   6.785   2.176   0.553
15989WAT     H148209   6.857   2.241   0.529
15989WAT     H248210   6.791   2.096   0.493
15990WAT      O48211   0.765   1.165   5.606
15990WAT     H148212   0.831   1.093   5.583
15990WAT     H248213   0.673   1.135   5.580
15991WAT      O48214   2.159   3.237   9.688
15991WAT     H148215   2.199   3.204   9.774
15991WAT     H248216   2.062   3.257   9.702
15992WAT      O48217   7.681   3.040   2.501
15992WAT     H148218   7.781   3.037   2.503
15992WAT     H248219   7.649   3.118   2.554
15993WAT      O48220   9.447   6.217   6.334
15993WAT     H148221   9.411   6.307   6.359
15993WAT     H248222   9.372   6.160   6.301
15994WAT      O48223   5.511   5.679   9.455
15994WAT     H148224   5.600   5.716   9.428
15994WAT     H248225   5.514   5.579   9.452
15995WAT      O48226   8.764   4.830   3.014
15995WAT     H148227   8.827   4.846   2.938
15995WAT     H248228   8.675   4.873   2.994
15996WAT      O48229   3.538   9.412   7.158
15996WAT     H148230   3.483   9.479   7.208
15996WAT     H248231   3.631   9.410   7.196
15997WAT      O48232   1.097   2.242   2.329
15997WAT     H148233   1.146   2.310   2.383
15997WAT     H248234   1.002   2.270   2.319
15998WAT      O48235   2.308   7.176   5.146
15998WAT     H148236   2.400   7.212   5.159
15998WAT     H248237   2.245   7.220   5.210
15999WAT      O48238   1.825   8.830   8.631
15999WAT     H148239   1.798   8.746   8.584
15999WAT     H248240   1.853   8.899   8.564
16000WAT      O48241   8.636   0.840   1.997
16000WAT     H148242   8.692   0.798   2.068
16000WAT     H248243   8.635   0.781   1.916
16001WAT      O48244   5.951   6.357   5.714
16001WAT     H148245   6.050   6.353   5.724
16001WAT     H248246   5.915   6.265   5.700
16002WAT      O48247   3.526   5.305   1.908
16002WAT     H148248   3.602   5.279   1.848
16002WAT     H248249   3.444   5.252   1.883
16003WAT      O48250   8.463   0.791   9.120
16003WAT     H148251   8.554   0.775   9.159
16003WAT     H248252   8.397   0.731   9.166
16004WAT      O48253   3.429   7.834   8.272
16004WAT     H148254   3.356   7.787   8.321
16004WAT     H248255   3.501   7.769   8.250
16005WAT      O48256   6.890   1.452   1.390
16005WAT     H148257   6.821   1.380   1.381
16005WAT     H248258   6.912   1.488   1.299
16006WAT      O48259   5.079   1.340   9.247
16006WAT     H148260   5.175   1.334   9.222
16006WAT     H248261   5.024   1.348   9.163
16007WAT      O48262   3.128   4.495   3.731
16007WAT     H148263   3.208   4.552   3.711
16007WAT     H248264   3.045   4.549   3.719
16008WAT      O48265   7.788   7.806   3.743
16008WAT     H148266   7.840   7.769   3.666
16008WAT     H248267   7.842   7.798   3.827
16009WAT      O48268   8.746   4.674   6.717
16009WAT     H148269   8.747   4.676   6.817
16009WAT     H248270   8.807   4.745   6.681
16010WAT      O48271   5.135   1.473   4.681
16010WAT     H148272   5.192   1.434   4.753
16010WAT     H248273   5.176   1.455   4.592
16011WAT      O48274   3.052   6.743   9.829
16011WAT     H148275   2.987   6.809   9.791
16011WAT     H248276   3.074   6.769   9.923
16012WAT      O48277   7.144   2.340   9.827
16012WAT     H148278   7.119   2.380   9.739
16012WAT     H248279   7.226   2.283   9.816
16013WAT      O48280   1.354   4.794   4.670
16013WAT     H148281   1.347   4.702   4.631
16013WAT     H248282   1.450   4.822   4.671
16014WAT      O48283   3.326   4.044   4.421
16014WAT     H148284   3.329   4.099   4.504
16014WAT     H248285   3.381   4.088   4.349
16015WAT      O48286   2.163   8.717   9.566
16015WAT     H148287   2.199   8.807   9.594
16015WAT     H248288   2.157   8.657   9.646
16016WAT      O48289   5.748   4.197   1.710
16016WAT     H148290   5.785   4.285   1.682
16016WAT     H248291   5.823   4.134   1.731
16017WAT      O48292   2.806   7.655   1.440
16017WAT     H148293   2.761   7.732   1.487
16017WAT     H248294   2.751   7.573   1.451
16018WAT      O48295   6.059   6.272   6.354
16018WAT     H148296   6.122   6.306   6.284
16018WAT     H248297   5.980   6.230   6.311
16019WAT      O48298   9.828   5.205   9.169
16019WAT     H148299   9.746   5.227   9.116
16019WAT     H248300   9.908   5.246   9.125
16020WAT      O48301   0.073   0.439   4.011
16020WAT     H148302  -0.015   0.397   4.034
16020WAT     H248303   0.096   0.507   4.081
16021WAT      O48304   9.588   0.808   6.502
16021WAT     H148305   9.529   0.824   6.582
16021WAT     H248306   9.627   0.717   6.508
16022WAT      O48307   4.704   8.513   8.533
16022WAT     H148308   4.644   8.496   8.611
16022WAT     H248309   4.757   8.596   8.548
16023WAT      O48310   7.536   6.979   4.766
16023WAT     H148311   7.475   6.992   4.844
16023WAT     H248312   7.607   6.912   4.790
16024WAT      O48313   1.246   0.252   0.259
16024WAT     H148314   1.320   0.320   0.261
16024WAT     H248315   1.171   0.286   0.202
16025WAT      O48316   3.143   8.482   5.241
16025WAT     H148317   3.087   8.549   5.289
16025WAT     H248318   3.086   8.406   5.211
16026WAT      O48319   0.105   4.003   7.893
16026WAT     H148320   0.202   4.018   7.910
16026WAT     H248321   0.054   4.010   7.979
16027WAT      O48322   3.498   5.559   5.735
16027WAT     H148323   3.463   5.648   5.705
16027WAT     H248324   3.513   5.561   5.834
16028WAT      O48325   6.032   5.309   5.370
16028WAT     H148326   6.099   5.257   5.424
16028WAT     H248327   5.940   5.273   5.389
16029WAT      O48328   9.146   9.695   3.770
16029WAT     H148329   9.186   9.607   3.795
16029WAT     H248330   9.046   9.688   3.771
16030WAT      O48331   6.974   7.866   8.275
16030WAT     H148332   6.920   7.937   8.230
16030WAT     H248333   7.066   7.901   8.295
16031WAT      O48334   8.747   4.474   5.800
16031WAT     H148335   8.695   4.523   5.730
16031WAT     H248336   8.684   4.439   5.870
16032WAT      O48337   9.887   1.645   4.977
16032WAT     H148338   9.868   1.547   4.982
16032WAT     H248339   9.814   1.691   4.926
16033WAT      O48340   3.062   0.792   6.289
16033WAT     H148341   3.116   0.855   6.234
16033WAT     H248342   2.964   0.809   6.274
16034WAT      O48343   4.783   0.646   7.540
16034WAT     H148344   4.730   0.606   7.615
16034WAT     H248345   4.863   0.589   7.522
16035WAT      O48346   4.494   5.732   2.020
16035WAT     H148347   4.468   5.827   2.034
16035WAT     H248348   4.413   5.677   2.000
16036WAT      O48349   9.398   6.962   2.087
16036WAT     H148350   9.415   7.017   2.005
16036WAT     H248351   9.479   6.906   2.107
16037WAT      O48352   4.609   2.533   9.554
16037WAT     H148353   4.598   2.449   9.501
16037WAT     H248354   4.570   2.610   9.503
16038WAT      O48355   0.078   0.445   0.218
16038WAT     H148356   0.159   0.441   0.159
16038WAT     H248357   0.097   0.504   0.297
16039WAT      O48358   8.657   4.076   1.911
16039WAT     H148359   8.608   4.163   1.904
16039WAT     H248360   8.754   4.090   1.891
16040WAT      O48361   0.335   8.652   7.102
16040WAT     H148362   0.235   8.658   7.108
16040WAT     H248363   0.376   8.721   7.161
16041WAT      O48364   5.866   2.394   8.898
16041WAT     H148365   5.871   2.301   8.861
16041WAT     H248366   5.953   2.417   8.942
16042WAT      O48367   8.115   2.516   2.339
16042WAT     H148368   8.048   2.497   2.412
16042WAT     H248369   8.080   2.481   2.253
16043WAT      O48370   4.721   6.239   4.067
16043WAT     H148371   4.629   6.227   4.106
16043WAT     H248372   4.784   6.269   4.138
16044WAT      O48373   5.398   4.698   2.256
16044WAT     H148374   5.313   4.751   2.258
16044WAT     H248375   5.425   4.675   2.349
16045WAT      O48376   5.831   9.336   5.604
16045WAT     H148377   5.884   9.253   5.623
16045WAT     H248378   5.734   9.315   5.609
16046WAT      O48379   4.959   3.628   4.232
16046WAT     H148380   4.875   3.612   4.285
16046WAT     H248381   5.037   3.589   4.280
16047WAT      O48382   1.505   3.862   7.869
16047WAT     H148383   1.454   3.878   7.785
16047WAT     H248384   1.567   3.938   7.886
16048WAT      O48385   2.220   8.054   8.627
16048WAT     H148386   2.248   8.114   8.552
16048WAT     H248387   2.164   7.979   8.591
16049WAT      O48388   1.939   5.987   7.891
16049WAT     H148389   1.968   6.015   7.982
16049WAT     H248390   1.912   6.067   7.837
16050WAT      O48391   1.553   9.221   4.991
16050WAT     H148392   1.538   9.290   5.062
16050WAT     H248393   1.615   9.258   4.922
16051WAT      O48394   0.439   5.314   4.080
16051WAT     H148395   0.363   5.378   4.072
16051WAT     H248396   0.439   5.253   4.000
16052WAT      O48397   7.137   2.643   0.868
16052WAT     H148398   7.218   2.690   0.833
16052WAT     H248399   7.069   2.635   0.795
16053WAT      O48400   1.770   5.406   7.864
16053WAT     H148401   1.845   5.413   7.929
16053WAT     H248402   1.683   5.397   7.913
16054WAT      O48403   1.950   7.034   9.871
16054WAT     H148404   2.039   7.021   9.827
16054WAT     H248405   1.955   7.007   9.967
16055WAT      O48406   4.560   0.329   0.061
16055WAT     H148407   4.468   0.365   0.043
16055WAT     H248408   4.554   0.254   0.127
16056WAT      O48409   6.835   4.708   7.496
16056WAT     H148410   6.920   4.714   7.548
16056WAT     H248411   6.794   4.618   7.510
16057WAT      O48412   4.940   0.461   0.681
16057WAT     H148413   4.929   0.427   0.588
16057WAT     H248414   4.932   0.385   0.746
16058WAT      O48415   4.280   1.874   5.239
16058WAT     H148416   4.282   1.908   5.333
16058WAT     H248417   4.198   1.908   5.192
16059WAT      O48418   2.702   3.897   3.964
16059WAT     H148419   2.621   3.903   3.906
16059WAT     H248420   2.781   3.935   3.915
16060WAT      O48421   4.942   0.434   1.131
16060WAT     H148422   5.033   0.441   1.173
16060WAT     H248423   4.946   0.372   1.053
16061WAT      O48424   0.809   9.619   4.176
16061WAT     H148425   0.741   9.670   4.228
16061WAT     H248426   0.821   9.528   4.216
16062WAT      O48427   7.226   3.095   2.488
16062WAT     H148428   7.231   3.012   2.543
16062WAT     H248429   7.267   3.078   2.398
16063WAT      O48430   5.165   1.980   3.866
16063WAT     H148431   5.143   2.076   3.882
16063WAT     H248432   5.083   1.932   3.833
16064WAT      O48433   6.229   2.122   1.992
16064WAT     H148434   6.277   2.060   1.929
16064WAT     H248435   6.159   2.172   1.942
16065WAT      O48436   8.571   5.285   9.456
16065WAT     H148437   8.606   5.298   9.549
16065WAT     H248438   8.603   5.197   9.421
16066WAT      O48439   2.977   7.442   3.143
16066WAT     H148440   3.036   7.361   3.141
16066WAT     H248441   2.939   7.453   3.235
16067WAT      O48442   0.379   1.747   4.599
16067WAT     H148443   0.427   1.776   4.516
16067WAT     H248444   0.440   1.689   4.653
16068WAT      O48445   4.895   0.870   7.646
16068WAT     H148446   4.881   0.911   7.737
16068WAT     H248447   4.837   0.790   7.636
16069WAT      O48448   9.106   7.771   7.978
16069WAT     H148449   9.182   7.829   8.006
16069WAT     H248450   9.023   7.796   8.028
16070WAT      O48451   0.206   3.089   1.042
16070WAT     H148452   0.180   3.179   1.076
16070WAT     H248453   0.239   3.033   1.119
16071WAT      O48454   1.527   1.659   7.863
16071WAT     H148455   1.618   1.640   7.826
16071WAT     H248456   1.458   1.614   7.806
16072WAT      O48457   3.038   7.690   9.521
16072WAT     H148458   3.055   7.769   9.461
16072WAT     H248459   3.101   7.617   9.498
16073WAT      O48460   0.411   0.730   4.992
16073WAT     H148461   0.375   0.746   4.900
16073WAT     H248462   0.447   0.816   5.029
16074WAT      O48463   5.151   1.657   8.102
16074WAT     H148464   5.164   1.683   8.197
16074WAT     H248465   5.059   1.618   8.091
16075WAT      O48466   5.147   5.992   8.813
16075WAT     H148467   5.192   6.069   8.767
16075WAT     H248468   5.139   5.916   8.749
16076WAT      O48469   8.564   1.277   7.048
16076WAT     H148470   8.643   1.298   6.990
16076WAT     H248471   8.529   1.362   7.088
16077WAT      O48472   0.990   2.733   1.844
16077WAT     H148473   0.982   2.713   1.941
16077WAT     H248474   1.051   2.667   1.801
16078WAT      O48475   2.545   6.373   9.392
16078WAT     H148476   2.643   6.365   9.376
16078WAT     H248477   2.514   6.295   9.447
16079WAT      O48478   8.020   8.678   1.427
16079WAT     H148479   8.072   8.601   1.389
16079WAT     H248480   8.077   8.761   1.425
16080WAT      O48481   6.518   8.710   7.932
16080WAT     H148482   6.460   8.678   8.007
16080WAT     H248483   6.584   8.777   7.968
16081WAT      O48484   6.842   1.090   6.389
16081WAT     H148485   6.761   1.138   6.424
16081WAT     H248486   6.876   1.137   6.308
16082WAT      O48487   0.398   4.347   4.554
16082WAT     H148488   0.430   4.391   4.638
16082WAT     H248489   0.438   4.393   4.475
16083WAT      O48490   7.220   0.224   7.523
16083WAT     H148491   7.156   0.221   7.600
16083WAT     H248492   7.311   0.198   7.555
16084WAT      O48493   1.898   9.350   8.793
16084WAT     H148494   1.945   9.263   8.780
16084WAT     H248495   1.900   9.374   8.890
16085WAT      O48496   4.582   5.630   9.405
16085WAT     H148497   4.510   5.677   9.355
16085WAT     H248498   4.555   5.535   9.420
16086WAT      O48499   7.224   9.142   5.101
16086WAT     H148500   7.315   9.125   5.137
16086WAT     H248501   7.183   9.220   5.149
16087WAT      O48502   9.748   6.691   5.764
16087WAT     H148503   9.774   6.746   5.844
16087WAT     H248504   9.683   6.621   5.792
16088WAT      O48505   5.123   1.599   1.798
16088WAT     H148506   5.118   1.656   1.716
16088WAT     H248507   5.216   1.602   1.835
16089WAT      O48508   8.825   0.170   6.017
16089WAT     H148509   8.866   0.180   6.108
16089WAT     H248510   8.864   0.239   5.956
16090WAT      O48511   7.534   7.645   4.716
16090WAT     H148512   7.625   7.676   4.744
16090WAT     H248513   7.523   7.658   4.618
16091WAT      O48514   2.162   0.820   1.163
16091WAT     H148515   2.162   0.847   1.259
16091WAT     H248516   2.162   0.901   1.105
16092WAT      O48517   5.345   5.643   4.626
16092WAT     H148518   5.256   5.681   4.649
16092WAT     H248519   5.367   5.664   4.531
16093WAT      O48520   3.295   8.587   3.925
16093WAT     H148521   3.297   8.687   3.922
16093WAT     H248522   3.203   8.555   3.904
16094WAT      O48523   7.942   6.999   8.198
16094WAT     H148524   7.963   7.023   8.293
16094WAT     H248525   7.921   6.901   8.193
16095WAT      O48526   3.661   6.069   3.071
16095WAT     H148527   3.626   6.066   2.978
16095WAT     H248528   3.728   6.143   3.079
16096WAT      O48529   5.748   6.832   3.523
16096WAT     H148530   5.773   6.763   3.591
16096WAT     H248531   5.653   6.859   3.537
16097WAT      O48532   1.550   7.387   3.900
16097WAT     H148533   1.567   7.292   3.874
16097WAT     H248534   1.624   7.420   3.959
16098WAT      O48535   5.950   9.816   8.871
16098WAT     H148536   5.978   9.883   8.940
16098WAT     H248537   5.921   9.864   8.788
16099WAT      O48538   3.234   3.926   4.186
16099WAT     H148539   3.247   3.990   4.263
16099WAT     H248540   3.142   3.888   4.190
16100WAT      O48541   0.321   2.082   4.969
16100WAT     H148542   0.305   1.984   4.959
16100WAT     H248543   0.237   2.126   5.003
16101WAT      O48544   9.084   6.556   6.891
16101WAT     H148545   9.107   6.634   6.950
16101WAT     H248546   9.015   6.585   6.824
16102WAT      O48547   3.115   0.322   4.007
16102WAT     H148548   3.096   0.224   4.013
16102WAT     H248549   3.043   0.373   4.054
16103WAT      O48550   2.956   1.269   0.063
16103WAT     H148551   3.027   1.328   0.025
16103WAT     H248552   2.992   1.176   0.075
16104WAT      O48553   3.858   9.290   3.469
16104WAT     H148554   3.902   9.219   3.525
16104WAT     H248555   3.903   9.377   3.484
16105WAT      O48556   3.515   7.656   7.967
16105WAT     H148557   3.530   7.754   7.972
16105WAT     H248558   3.597   7.610   7.933
16106WAT      O48559   3.725   0.146   6.195
16106WAT     H148560   3.743   0.213   6.266
16106WAT     H248561   3.695   0.060   6.236
16107WAT      O48562   6.649   9.739   1.512
16107WAT     H148563   6.625   9.730   1.415
16107WAT     H248564   6.603   9.819   1.551
16108WAT      O48565   1.497   2.917   6.993
16108WAT     H148566   1.531   2.825   6.974
16108WAT     H248567   1.553   2.961   7.063
16109WAT      O48568   7.279   2.212   3.065
16109WAT     H148569   7.262   2.239   2.971
16109WAT     H248570   7.357   2.149   3.069
16110WAT      O48571   2.712   2.278   3.328
16110WAT     H148572   2.796   2.230   3.304
16110WAT     H248573   2.734   2.369   3.364
16111WAT      O48574   7.348   3.025   4.045
16111WAT     H148575   7.268   3.019   4.105
16111WAT     H248576   7.430   2.999   4.096
16112WAT      O48577   1.550   2.348   6.348
16112WAT     H148578   1.467   2.312   6.305
16112WAT     H248579   1.597   2.409   6.284
16113WAT      O48580   5.580   8.746   3.485
16113WAT     H148581   5.499   8.799   3.459
16113WAT     H248582   5.660   8.805   3.482
16114WAT      O48583   0.991   7.152   7.321
16114WAT     H148584   1.022   7.172   7.228
16114WAT     H248585   1.046   7.078   7.360
16115WAT      O48586   3.037   5.116   2.963
16115WAT     H148587   2.958   5.138   3.020
16115WAT     H248588   3.013   5.042   2.900
16116WAT      O48589   1.557   9.527   4.370
16116WAT     H148590   1.466   9.545   4.333
16116WAT     H248591   1.612   9.610   4.365
16117WAT      O48592   5.125   1.728   9.459
16117WAT     H148593   5.039   1.738   9.508
16117WAT     H248594   5.115   1.761   9.365
16118WAT      O48595   9.074   8.800   6.671
16118WAT     H148596   9.089   8.706   6.701
16118WAT     H248597   9.047   8.801   6.575
16119WAT      O48598   3.310   5.171   2.626
16119WAT     H148599   3.370   5.103   2.668
16119WAT     H248600   3.364   5.249   2.594
16120WAT      O48601   5.218   1.369   1.465
16120WAT     H148602   5.312   1.334   1.469
16120WAT     H248603   5.215   1.460   1.506
16121WAT      O48604   2.354   3.211   7.370
16121WAT     H148605   2.447   3.234   7.343
16121WAT     H248606   2.289   3.261   7.311
16122WAT      O48607   7.278   9.490   7.329
16122WAT     H148608   7.201   9.478   7.266
16122WAT     H248609   7.319   9.401   7.349
16123WAT      O48610   7.366   4.374   2.651
16123WAT     H148611   7.288   4.347   2.709
16123WAT     H248612   7.441   4.406   2.709
16124WAT      O48613   7.836   6.374   0.581
16124WAT     H148614   7.764   6.392   0.648
16124WAT     H248615   7.835   6.277   0.556
16125WAT      O48616   7.443   9.373   9.454
16125WAT     H148617   7.386   9.355   9.374
16125WAT     H248618   7.539   9.382   9.425
16126WAT      O48619   2.641   8.694   2.087
16126WAT     H148620   2.599   8.784   2.078
16126WAT     H248621   2.698   8.675   2.007
16127WAT      O48622   9.121   2.299   7.756
16127WAT     H148623   9.034   2.251   7.767
16127WAT     H248624   9.193   2.233   7.732
16128WAT      O48625   2.702   2.275   0.784
16128WAT     H148626   2.639   2.199   0.796
16128WAT     H248627   2.707   2.299   0.687
16129WAT      O48628   0.508   1.754   8.428
16129WAT     H148629   0.462   1.666   8.424
16129WAT     H248630   0.479   1.804   8.510
16130WAT      O48631   5.462   6.845   7.581
16130WAT     H148632   5.528   6.844   7.507
16130WAT     H248633   5.375   6.884   7.549
16131WAT      O48634   2.754   2.764   6.820
16131WAT     H148635   2.820   2.721   6.881
16131WAT     H248636   2.730   2.855   6.855
16132WAT      O48637   9.865   2.076   5.872
16132WAT     H148638   9.837   2.172   5.879
16132WAT     H248639   9.863   2.034   5.962
16133WAT      O48640   5.359   1.207   6.285
16133WAT     H148641   5.272   1.215   6.236
16133WAT     H248642   5.416   1.286   6.265
16134WAT      O48643   0.488   8.240   9.232
16134WAT     H148644   0.588   8.242   9.230
16134WAT     H248645   0.455   8.147   9.216
16135WAT      O48646   0.592   7.354   7.160
16135WAT     H148647   0.618   7.378   7.254
16135WAT     H248648   0.622   7.426   7.098
16136WAT      O48649   8.698   7.176   6.816
16136WAT     H148650   8.788   7.216   6.834
16136WAT     H248651   8.691   7.151   6.720
16137WAT      O48652   3.965   2.611   1.508
16137WAT     H148653   3.915   2.692   1.539
16137WAT     H248654   4.062   2.634   1.499
16138WAT      O48655   1.256   2.591   0.612
16138WAT     H148656   1.318   2.660   0.650
16138WAT     H248657   1.198   2.634   0.542
16139WAT      O48658   5.600   5.636   6.617
16139WAT     H148659   5.529   5.696   6.652
16139WAT     H248660   5.634   5.671   6.530
16140WAT      O48661   8.597   9.020   2.563
16140WAT     H148662   8.556   9.101   2.606
16140WAT     H248663   8.530   8.976   2.504
16141WAT      O48664   0.108   0.168   4.671
16141WAT     H148665   0.097   0.069   4.671
16141WAT     H248666   0.063   0.206   4.590
16142WAT      O48667   1.504   7.166   4.257
16142WAT     H148668   1.593   7.205   4.236
16142WAT     H248669   1.478   7.189   4.351
16143WAT      O48670   8.648   3.287   3.999
16143WAT     H148671   8.560   3.262   4.040
16143WAT     H248672   8.681   3.211   3.943
16144WAT      O48673   3.721   4.888   9.294
16144WAT     H148674   3.695   4.905   9.389
16144WAT     H248675   3.639   4.890   9.236
16145WAT      O48676   5.558   3.332   2.789
16145WAT     H148677   5.532   3.380   2.705
16145WAT     H248678   5.488   3.345   2.858
16146WAT      O48679   5.804   8.030   3.515
16146WAT     H148680   5.884   7.981   3.483
16146WAT     H248681   5.742   7.967   3.563
16147WAT      O48682   5.866   1.065   2.076
16147WAT     H148683   5.912   1.075   1.987
16147WAT     H248684   5.803   0.988   2.071
16148WAT      O48685   8.698   2.754   1.659
16148WAT     H148686   8.620   2.705   1.699
16148WAT     H248687   8.667   2.811   1.583
16149WAT      O48688   3.012   0.132   4.982
16149WAT     H148689   3.076   0.071   5.029
16149WAT     H248690   2.950   0.173   5.048
16150WAT      O48691   0.107   4.080   6.943
16150WAT     H148692   0.058   4.061   6.858
16150WAT     H248693   0.205   4.087   6.924
16151WAT      O48694   0.797   9.329   9.873
16151WAT     H148695   0.892   9.309   9.849
16151WAT     H248696   0.744   9.244   9.871
16152WAT      O48697   7.047   5.159   1.902
16152WAT     H148698   7.083   5.072   1.867
16152WAT     H248699   7.042   5.226   1.828
16153WAT      O48700   5.988   2.438   7.575
16153WAT     H148701   5.924   2.388   7.634
16153WAT     H248702   6.031   2.375   7.511
16154WAT      O48703   4.255   1.929   5.490
16154WAT     H148704   4.283   2.008   5.545
16154WAT     H248705   4.224   1.856   5.551
16155WAT      O48706   8.629   6.320   6.871
16155WAT     H148707   8.557   6.345   6.806
16155WAT     H248708   8.668   6.403   6.911
16156WAT      O48709   1.310   4.563   7.651
16156WAT     H148710   1.320   4.536   7.555
16156WAT     H248711   1.381   4.519   7.705
16157WAT      O48712   7.384   4.092   6.641
16157WAT     H148713   7.390   4.060   6.546
16157WAT     H248714   7.349   4.019   6.699
16158WAT      O48715   7.319   7.171   1.891
16158WAT     H148716   7.413   7.171   1.926
16158WAT     H248717   7.262   7.231   1.947
16159WAT      O48718   0.890   7.055   9.664
16159WAT     H148719   0.966   7.050   9.600
16159WAT     H248720   0.923   7.034   9.757
16160WAT      O48721   6.948   2.940   1.995
16160WAT     H148722   6.868   2.889   1.964
16160WAT     H248723   6.926   3.037   1.999
16161WAT      O48724   2.618   5.629   2.170
16161WAT     H148725   2.595   5.531   2.175
16161WAT     H248726   2.639   5.662   2.262
16162WAT      O48727   6.624   4.260   4.554
16162WAT     H148728   6.566   4.289   4.630
16162WAT     H248729   6.584   4.179   4.510
16163WAT      O48730   4.124   9.717   2.602
16163WAT     H148731   4.112   9.627   2.643
16163WAT     H248732   4.111   9.788   2.671
16164WAT      O48733   3.393   9.680   8.977
16164WAT     H148734   3.296   9.656   8.980
16164WAT     H248735   3.419   9.721   9.065
16165WAT      O48736   5.329   2.888   2.075
16165WAT     H148737   5.267   2.921   2.004
16165WAT     H248738   5.401   2.956   2.091
16166WAT      O48739   0.495   9.795   3.948
16166WAT     H148740   0.549   9.858   4.004
16166WAT     H248741   0.555   9.732   3.899
16167WAT      O48742   9.144   4.561   1.512
16167WAT     H148743   9.216   4.558   1.582
16167WAT     H248744   9.147   4.649   1.466
16168WAT      O48745   6.016   8.333   4.411
16168WAT     H148746   5.966   8.304   4.492
16168WAT     H248747   5.965   8.305   4.329
16169WAT      O48748   6.671   6.205   7.389
16169WAT     H148749   6.617   6.206   7.473
16169WAT     H248750   6.667   6.114   7.348
16170WAT      O48751   7.950   2.450   5.876
16170WAT     H148752   7.948   2.460   5.777
16170WAT     H248753   7.926   2.537   5.919
16171WAT      O48754   2.148   7.315   9.812
16171WAT     H148755   2.169   7.224   9.777
16171WAT     H248756   2.058   7.343   9.777
16172WAT      O48757   8.097   3.771   3.738
16172WAT     H148758   8.159   3.761   3.660
16172WAT     H248759   8.018   3.711   3.726
16173WAT      O48760   4.704   0.838   3.601
16173WAT     H148761   4.786   0.894   3.597
16173WAT     H248762   4.726   0.748   3.638
16174WAT      O48763   0.003   6.733   0.689
16174WAT     H148764   0.084   6.738   0.748
16174WAT     H248765  -0.077   6.767   0.739
16175WAT      O48766   5.334   4.102   9.437
16175WAT     H148767   5.384   4.030   9.485
16175WAT     H248768   5.287   4.062   9.358
16176WAT      O48769   9.045   8.591   2.447
16176WAT     H148770   8.962   8.616   2.497
16176WAT     H248771   9.057   8.655   2.370
16177WAT      O48772   3.856   4.426   6.367
16177WAT     H148773   3.786   4.456   6.432
16177WAT     H248774   3.849   4.328   6.353
16178WAT      O48775   9.560   5.953   4.689
16178WAT     H148776   9.568   6.004   4.774
16178WAT     H248777   9.529   6.015   4.616
16179WAT      O48778   7.047   2.351   7.362
16179WAT     H148779   7.022   2.265   7.406
16179WAT     H248780   7.119   2.334   7.295
16180WAT      O48781   4.752   0.945   4.141
16180WAT     H148782   4.791   0.891   4.066
16180WAT     H248783   4.685   0.890   4.191
16181WAT      O48784   8.872   4.598   1.522
16181WAT     H148785   8.968   4.573   1.531
16181WAT     H248786   8.848   4.603   1.425
16182WAT      O48787   7.033   1.387   0.419
16182WAT     H148788   6.958   1.438   0.460
16182WAT     H248789   7.085   1.447   0.358
16183WAT      O48790   2.945   4.213   0.085
16183WAT     H148791   2.926   4.250  -0.006
16183WAT     H248792   2.983   4.285   0.144
16184WAT      O48793   0.464   4.368   9.575
16184WAT     H148794   0.466   4.310   9.493
16184WAT     H248795   0.386   4.430   9.570
16185WAT      O48796   6.337   6.610   2.353
16185WAT     H148797   6.294   6.634   2.440
16185WAT     H248798   6.303   6.671   2.281
16186WAT      O48799   5.593   2.940   7.517
16186WAT     H148800   5.690   2.958   7.538
16186WAT     H248801   5.573   2.972   7.425
16187WAT      O48802   6.057   3.835   2.484
16187WAT     H148803   6.087   3.799   2.573
16187WAT     H248804   6.038   3.758   2.423
16188WAT      O48805   9.192   9.385   8.733
16188WAT     H148806   9.162   9.335   8.815
16188WAT     H248807   9.199   9.482   8.755
16189WAT      O48808   4.768   1.291   5.656
16189WAT     H148809   4.690   1.324   5.710
16189WAT     H248810   4.823   1.369   5.627
16190WAT      O48811   1.031   0.192   7.308
16190WAT     H148812   0.952   0.131   7.319
16190WAT     H248813   1.115   0.137   7.310
16191WAT      O48814   2.329   0.418   9.313
16191WAT     H148815   2.367   0.360   9.241
16191WAT     H248816   2.262   0.365   9.367
16192WAT      O48817   7.270   8.166   0.177
16192WAT     H148818   7.281   8.259   0.141
16192WAT     H248819   7.174   8.150   0.199
16193WAT      O48820   7.576   8.527   2.596
16193WAT     H148821   7.600   8.614   2.640
16193WAT     H248822   7.658   8.473   2.581
16194WAT      O48823   4.194   9.833   0.610
16194WAT     H148824   4.277   9.823   0.664
16194WAT     H248825   4.115   9.805   0.665
16195WAT      O48826   6.626   0.742   6.919
16195WAT     H148827   6.563   0.667   6.896
16195WAT     H248828   6.634   0.803   6.840
16196WAT      O48829   5.447   8.664   9.274
16196WAT     H148830   5.362   8.623   9.242
16196WAT     H248831   5.499   8.596   9.326
16197WAT      O48832   3.052   3.402   5.696
16197WAT     H148833   3.093   3.326   5.747
16197WAT     H248834   3.074   3.489   5.742
16198WAT      O48835  -0.001   6.219   4.857
16198WAT     H148836  -0.050   6.238   4.772
16198WAT     H248837   0.094   6.198   4.837
16199WAT      O48838   5.520   0.497   1.463
16199WAT     H148839   5.514   0.399   1.445
16199WAT     H248840   5.551   0.544   1.380
16200WAT      O48841   1.703   1.163   3.567
16200WAT     H148842   1.729   1.249   3.522
16200WAT     H248843   1.640   1.113   3.508
16201WAT      O48844   9.742   7.775   3.286
16201WAT     H148845   9.767   7.859   3.239
16201WAT     H248846   9.791   7.769   3.373
16202WAT      O48847   1.426   1.108   4.562
16202WAT     H148848   1.356   1.082   4.494
16202WAT     H248849   1.480   1.027   4.585
16203WAT      O48850   0.171   6.426   2.415
16203WAT     H148851   0.118   6.464   2.339
16203WAT     H248852   0.218   6.500   2.463
16204WAT      O48853   4.009   6.568   1.992
16204WAT     H148854   3.987   6.491   1.932
16204WAT     H248855   4.068   6.537   2.066
16205WAT      O48856   1.165   2.555   2.289
16205WAT     H148857   1.247   2.508   2.320
16205WAT     H248858   1.097   2.557   2.362
16206WAT      O48859   2.178   8.956   8.870
16206WAT     H148860   2.241   8.879   8.855
16206WAT     H248861   2.110   8.930   8.938
16207WAT      O48862   3.888   4.022   8.251
16207WAT     H148863   3.968   3.997   8.306
16207WAT     H248864   3.834   4.090   8.302
16208WAT      O48865   5.385   1.500   2.723
16208WAT     H148866   5.334   1.555   2.656
16208WAT     H248867   5.435   1.561   2.784
16209WAT      O48868   4.515   0.100   1.594
16209WAT     H148869   4.517   0.023   1.530
16209WAT     H248870   4.589   0.089   1.660
16210WAT      O48871   8.934   1.751   0.075
16210WAT     H148872   8.840   1.716   0.080
16210WAT     H248873   8.936   1.831   0.015
16211WAT      O48874   3.627   3.622   1.256
16211WAT     H148875   3.694   3.659   1.321
16211WAT     H248876   3.551   3.580   1.307
16212WAT      O48877   4.667   5.888   7.973
16212WAT     H148878   4.584   5.846   7.936
16212WAT     H248879   4.695   5.964   7.915
16213WAT      O48880   1.099   1.740   4.480
16213WAT     H148881   1.034   1.804   4.522
16213WAT     H248882   1.135   1.779   4.396
16214WAT      O48883   7.230   1.201   2.469
16214WAT     H148884   7.319   1.218   2.511
16214WAT     H248885   7.179   1.287   2.461
16215WAT      O48886   4.577   0.929   8.395
16215WAT     H148887   4.606   1.020   8.423
16215WAT     H248888   4.656   0.868   8.392
16216WAT      O48889   7.208   7.128   2.695
16216WAT     H148890   7.277   7.151   2.625
16216WAT     H248891   7.211   7.029   2.712
16217WAT      O48892   2.567   0.588   1.468
16217WAT     H148893   2.484   0.626   1.427
16217WAT     H248894   2.549   0.494   1.498
16218WAT      O48895   9.184   8.882   8.677
16218WAT     H148896   9.261   8.886   8.741
16218WAT     H248897   9.162   8.974   8.645
16219WAT      O48898   1.999   0.411   7.020
16219WAT     H148899   1.952   0.498   7.008
16219WAT     H248900   1.932   0.338   7.034
16220WAT      O48901   4.983   0.157   4.255
16220WAT     H148902   4.939   0.245   4.239
16220WAT     H248903   5.079   0.163   4.229
16221WAT      O48904   3.670   5.266   2.784
16221WAT     H148905   3.719   5.188   2.744
16221WAT     H248906   3.736   5.334   2.815
16222WAT      O48907   3.954   2.471   4.628
16222WAT     H148908   3.955   2.550   4.690
16222WAT     H248909   3.868   2.470   4.577
16223WAT      O48910   8.933   9.462   2.335
16223WAT     H148911   8.855   9.524   2.331
16223WAT     H248912   9.017   9.512   2.315
16224WAT      O48913   0.446   3.792   1.023
16224WAT     H148914   0.527   3.850   1.012
16224WAT     H248915   0.451   3.716   0.958
16225WAT      O48916   2.653   6.344   1.666
16225WAT     H148917   2.686   6.438   1.678
16225WAT     H248918   2.569   6.344   1.613
16226WAT      O48919   7.239   0.637   7.030
16226WAT     H148920   7.328   0.658   7.071
16226WAT     H248921   7.168   0.690   7.077
16227WAT      O48922   1.513   3.186   2.044
16227WAT     H148923   1.525   3.105   1.987
16227WAT     H248924   1.434   3.239   2.011
16228WAT      O48925   9.028   7.253   6.833
16228WAT     H148926   9.128   7.242   6.841
16228WAT     H248927   9.006   7.348   6.813
16229WAT      O48928   0.833   7.761   6.095
16229WAT     H148929   0.881   7.832   6.146
16229WAT     H248930   0.874   7.751   6.004
16230WAT      O48931   2.282   7.428   5.473
16230WAT     H148932   2.360   7.367   5.483
16230WAT     H248933   2.220   7.393   5.403
16231WAT      O48934   8.219   1.460   8.093
16231WAT     H148935   8.249   1.434   8.185
16231WAT     H248936   8.275   1.414   8.025
16232WAT      O48937   3.312   8.209   1.028
16232WAT     H148938   3.319   8.222   0.929
16232WAT     H248939   3.315   8.111   1.050
16233WAT      O48940   2.959   5.685   3.430
16233WAT     H148941   3.052   5.650   3.436
16233WAT     H248942   2.903   5.644   3.502
16234WAT      O48943   7.401   2.513   0.396
16234WAT     H148944   7.325   2.529   0.334
16234WAT     H248945   7.418   2.415   0.404
16235WAT      O48946   1.259   1.720   6.186
16235WAT     H148947   1.327   1.774   6.135
16235WAT     H248948   1.276   1.731   6.284
16236WAT      O48949   9.391   0.238   7.111
16236WAT     H148950   9.292   0.249   7.120
16236WAT     H248951   9.411   0.144   7.083
16237WAT      O48952   5.025   8.697   9.876
16237WAT     H148953   5.009   8.612   9.826
16237WAT     H248954   4.939   8.731   9.913
16238WAT      O48955   8.577   7.876   3.066
16238WAT     H148956   8.524   7.960   3.056
16238WAT     H248957   8.583   7.852   3.163
16239WAT      O48958   9.215   3.589   9.211
16239WAT     H148959   9.226   3.671   9.154
16239WAT     H248960   9.173   3.516   9.158
16240WAT      O48961   4.927   1.064   7.127
16240WAT     H148962   5.023   1.057   7.099
16240WAT     H248963   4.912   1.005   7.206
16241WAT      O48964   0.676   4.307   7.083
16241WAT     H148965   0.750   4.375   7.083
16241WAT     H248966   0.650   4.287   6.988
16242WAT      O48967   1.674   7.085   1.048
16242WAT     H148968   1.710   7.168   1.088
16242WAT     H248969   1.594   7.054   1.100
16243WAT      O48970   9.180   6.899   7.352
16243WAT     H148971   9.195   6.995   7.378
16243WAT     H248972   9.118   6.856   7.417
16244WAT      O48973   7.125   8.141   8.801
16244WAT     H148974   7.090   8.220   8.852
16244WAT     H248975   7.058   8.114   8.731
16245WAT      O48976   7.562   1.371   8.066
16245WAT     H148977   7.511   1.321   7.996
16245WAT     H248978   7.655   1.388   8.034
16246WAT      O48979   6.194   4.982   6.228
16246WAT     H148980   6.138   5.051   6.273
16246WAT     H248981   6.288   5.015   6.219
16247WAT      O48982   0.896   4.590   9.636
16247WAT     H148983   0.877   4.684   9.664
16247WAT     H248984   0.979   4.558   9.683
16248WAT      O48985   7.682   4.300   2.333
16248WAT     H148986   7.672   4.295   2.432
16248WAT     H248987   7.662   4.393   2.302
16249WAT      O48988   8.153   7.758   8.389
16249WAT     H148989   8.115   7.671   8.355
16249WAT     H248990   8.178   7.816   8.311
16250WAT      O48991   3.711   9.645   8.581
16250WAT     H148992   3.640   9.710   8.554
16250WAT     H248993   3.776   9.691   8.642
16251WAT      O48994   6.302   8.626   1.292
16251WAT     H148995   6.252   8.565   1.353
16251WAT     H248996   6.399   8.626   1.317
16252WAT      O48997   9.081   5.446   6.983
16252WAT     H148998   9.032   5.501   6.915
16252WAT     H248999   9.016   5.408   7.049
16253WAT      O49000   8.286   6.439   9.308
16253WAT     H149001   8.271   6.532   9.342
16253WAT     H249002   8.234   6.425   9.224
16254WAT      O49003   1.966   4.132   8.687
16254WAT     H149004   2.066   4.130   8.691
16254WAT     H249005   1.931   4.205   8.746
16255WAT      O49006   1.621   0.831   0.787
16255WAT     H149007   1.687   0.811   0.859
16255WAT     H249008   1.583   0.922   0.802
16256WAT      O49009   0.952   1.161   1.781
16256WAT     H149010   0.905   1.249   1.784
16256WAT     H249011   0.905   1.100   1.717
16257WAT      O49012   6.284   8.284   9.457
16257WAT     H149013   6.305   8.224   9.380
16257WAT     H249014   6.277   8.230   9.541
16258WAT      O49015   3.834   3.077   6.636
16258WAT     H149016   3.925   3.117   6.630
16258WAT     H249017   3.825   3.028   6.723
16259WAT      O49018   4.744   4.212   7.409
16259WAT     H149019   4.743   4.116   7.381
16259WAT     H249020   4.697   4.267   7.340
16260WAT      O49021   9.086   8.173   6.301
16260WAT     H149022   9.116   8.110   6.373
16260WAT     H249023   9.117   8.265   6.322
16261WAT      O49024   4.134   1.523   4.588
16261WAT     H149025   4.133   1.509   4.687
16261WAT     H249026   4.049   1.490   4.549
16262WAT      O49027   8.135   7.105   1.923
16262WAT     H149028   8.098   7.030   1.869
16262WAT     H249029   8.234   7.094   1.934
16263WAT      O49030   8.821   5.938   5.482
16263WAT     H149031   8.891   5.988   5.534
16263WAT     H249032   8.785   5.863   5.538
16264WAT      O49033   4.553   0.415   3.440
16264WAT     H149034   4.588   0.498   3.397
16264WAT     H249035   4.454   0.421   3.450
16265WAT      O49036   2.074   9.134   8.697
16265WAT     H149037   2.007   9.114   8.625
16265WAT     H249038   2.095   9.050   8.747
16266WAT      O49039   1.436   4.819   5.929
16266WAT     H149040   1.533   4.801   5.945
16266WAT     H249041   1.427   4.889   5.858
16267WAT      O49042   5.971   1.304   2.433
16267WAT     H149043   5.873   1.317   2.446
16267WAT     H249044   5.994   1.207   2.442
16268WAT      O49045   5.299   4.042   2.131
16268WAT     H149046   5.372   3.974   2.143
16268WAT     H249047   5.229   4.005   2.070
16269WAT      O49048   0.909   3.694   3.775
16269WAT     H149049   0.972   3.672   3.850
16269WAT     H249050   0.824   3.730   3.813
16270WAT      O49051   5.968   8.071   9.190
16270WAT     H149052   5.952   8.049   9.094
16270WAT     H249053   5.889   8.120   9.226
16271WAT      O49054   3.346   7.499   0.758
16271WAT     H149055   3.414   7.443   0.806
16271WAT     H249056   3.340   7.589   0.803
16272WAT      O49057   7.739   3.446   4.100
16272WAT     H149058   7.741   3.347   4.089
16272WAT     H249059   7.674   3.485   4.035
16273WAT      O49060   2.615   0.105   7.580
16273WAT     H149061   2.556   0.077   7.504
16273WAT     H249062   2.690   0.161   7.546
16274WAT      O49063   3.487   1.084   0.073
16274WAT     H149064   3.436   1.050  -0.007
16274WAT     H249065   3.585   1.073   0.057
16275WAT      O49066   8.479   5.365   3.701
16275WAT     H149067   8.385   5.366   3.669
16275WAT     H249068   8.525   5.450   3.675
16276WAT      O49069   3.876   7.296   8.698
16276WAT     H149070   3.798   7.234   8.710
16276WAT     H249071   3.918   7.279   8.609
16277WAT      O49072   7.457   9.368   5.000
16277WAT     H149073   7.450   9.275   5.036
16277WAT     H249074   7.406   9.430   5.059
16278WAT      O49075   8.184   5.685   1.993
16278WAT     H149076   8.243   5.622   2.043
16278WAT     H249077   8.126   5.734   2.059
16279WAT      O49078   4.265   4.047   1.554
16279WAT     H149079   4.195   4.018   1.489
16279WAT     H249080   4.292   4.141   1.534
16280WAT      O49081   4.141   1.322   7.455
16280WAT     H149082   4.231   1.327   7.498
16280WAT     H249083   4.151   1.335   7.356
16281WAT      O49084   2.665   2.230   8.162
16281WAT     H149085   2.576   2.186   8.161
16281WAT     H249086   2.658   2.322   8.125
16282WAT      O49087   1.307   4.950   3.217
16282WAT     H149088   1.257   4.871   3.183
16282WAT     H249089   1.365   4.923   3.294
16283WAT      O49090   6.591   5.826   3.222
16283WAT     H149091   6.502   5.832   3.267
16283WAT     H249092   6.580   5.779   3.134
16284WAT      O49093   6.957   2.751   7.206
16284WAT     H149094   6.967   2.732   7.108
16284WAT     H249095   7.045   2.783   7.243
16285WAT      O49096   1.341   0.097   2.563
16285WAT     H149097   1.339   0.194   2.542
16285WAT     H249098   1.410   0.052   2.506
16286WAT      O49099   5.015   3.605   3.111
16286WAT     H149100   4.986   3.522   3.158
16286WAT     H249101   4.936   3.649   3.068
16287WAT      O49102   0.162   6.534   3.266
16287WAT     H149103   0.161   6.615   3.325
16287WAT     H249104   0.074   6.487   3.274
16288WAT      O49105   8.187   7.720   4.592
16288WAT     H149106   8.256   7.653   4.619
16288WAT     H249107   8.233   7.803   4.558
16289WAT      O49108   0.701   3.491   6.050
16289WAT     H149109   0.718   3.510   6.146
16289WAT     H249110   0.719   3.573   5.995
16290WAT      O49111   0.111   1.511   8.907
16290WAT     H149112   0.106   1.606   8.939
16290WAT     H249113   0.021   1.468   8.917
16291WAT      O49114   7.446   4.205   8.535
16291WAT     H149115   7.438   4.124   8.593
16291WAT     H249116   7.489   4.279   8.588
16292WAT      O49117   2.347   6.711   3.066
16292WAT     H149118   2.333   6.729   3.163
16292WAT     H249119   2.430   6.757   3.035
16293WAT      O49120   1.716   5.589   5.668
16293WAT     H149121   1.660   5.510   5.642
16293WAT     H249122   1.677   5.672   5.628
16294WAT      O49123   0.173   3.690   8.908
16294WAT     H149124   0.200   3.696   9.004
16294WAT     H249125   0.145   3.780   8.876
16295WAT      O49126   5.255   8.893   6.471
16295WAT     H149127   5.211   8.880   6.382
16295WAT     H249128   5.299   8.807   6.499
16296WAT      O49129   8.707   8.913   5.211
16296WAT     H149130   8.770   8.952   5.143
16296WAT     H249131   8.760   8.862   5.279
16297WAT      O49132   2.878   3.102   6.745
16297WAT     H149133   2.814   3.071   6.815
16297WAT     H249134   2.878   3.038   6.668
16298WAT      O49135   7.522   7.772   0.546
16298WAT     H149136   7.464   7.797   0.623
16298WAT     H249137   7.495   7.826   0.466
16299WAT      O49138   8.433   2.967   0.977
16299WAT     H149139   8.485   2.894   0.932
16299WAT     H249140   8.335   2.949   0.968
16300WAT      O49141   8.327   0.897   7.071
16300WAT     H149142   8.391   0.963   7.031
16300WAT     H249143   8.312   0.821   7.008
16301WAT      O49144   2.835   3.968   0.578
16301WAT     H149145   2.912   4.008   0.528
16301WAT     H249146   2.850   3.980   0.677
16302WAT      O49147   8.434   2.273   1.822
16302WAT     H149148   8.372   2.258   1.746
16302WAT     H249149   8.385   2.314   1.898
16303WAT      O49150   7.233   8.595   8.934
16303WAT     H149151   7.174   8.575   9.012
16303WAT     H249152   7.196   8.551   8.852
16304WAT      O49153   5.295   5.203   7.791
16304WAT     H149154   5.351   5.159   7.720
16304WAT     H249155   5.288   5.143   7.870
16305WAT      O49156   5.522   9.270   1.006
16305WAT     H149157   5.517   9.174   1.033
16305WAT     H249158   5.550   9.277   0.910
16306WAT      O49159   6.315   0.377   3.819
16306WAT     H149160   6.329   0.288   3.862
16306WAT     H249161   6.287   0.364   3.724
16307WAT      O49162   8.484   3.410   2.202
16307WAT     H149163   8.555   3.456   2.150
16307WAT     H249164   8.404   3.470   2.208
16308WAT      O49165   1.364   0.607   3.885
16308WAT     H149166   1.449   0.559   3.865
16308WAT     H249167   1.306   0.550   3.943
16309WAT      O49168   2.210   0.923   8.307
16309WAT     H149169   2.114   0.896   8.293
16309WAT     H249170   2.214   1.009   8.358
16310WAT      O49171   1.132   9.120   6.909
16310WAT     H149172   1.068   9.191   6.938
16310WAT     H249173   1.127   9.043   6.973
16311WAT      O49174   6.422   0.247   8.304
16311WAT     H149175   6.324   0.264   8.312
16311WAT     H249176   6.473   0.331   8.322
16312WAT      O49177   0.320   3.294   1.328
16312WAT     H149178   0.377   3.374   1.306
16312WAT     H249179   0.238   3.295   1.270
16313WAT      O49180   9.007   4.420   8.298
16313WAT     H149181   9.070   4.473   8.242
16313WAT     H249182   8.914   4.455   8.286
16314WAT      O49183   7.266   0.135   6.010
16314WAT     H149184   7.304   0.065   5.950
16314WAT     H249185   7.340   0.184   6.056
16315WAT      O49186   6.417   0.870   2.828
16315WAT     H149187   6.500   0.926   2.826
16315WAT     H249188   6.413   0.820   2.914
16316WAT      O49189   1.559   2.510   4.751
16316WAT     H149190   1.563   2.544   4.845
16316WAT     H249191   1.562   2.410   4.752
16317WAT      O49192   2.834   6.618   5.302
16317WAT     H149193   2.816   6.606   5.400
16317WAT     H249194   2.931   6.637   5.288
16318WAT      O49195   7.791   3.054   0.187
16318WAT     H149196   7.714   3.065   0.124
16318WAT     H249197   7.757   3.015   0.273
16319WAT      O49198   6.729   3.835   8.805
16319WAT     H149199   6.707   3.918   8.754
16319WAT     H249200   6.828   3.828   8.816
16320WAT      O49201   5.299   9.030   8.646
16320WAT     H149202   5.280   9.004   8.740
16320WAT     H249203   5.247   8.971   8.584
16321WAT      O49204   5.588   4.618   0.352
16321WAT     H149205   5.663   4.602   0.288
16321WAT     H249206   5.623   4.615   0.446
16322WAT      O49207   9.823   3.505   8.849
16322WAT     H149208   9.895   3.574   8.843
16322WAT     H249209   9.745   3.542   8.900
16323WAT      O49210   9.054   2.444   3.403
16323WAT     H149211   9.117   2.416   3.331
16323WAT     H249212   8.989   2.510   3.367
16324WAT      O49213   3.484   8.892   7.654
16324WAT     H149214   3.452   8.856   7.741
16324WAT     H249215   3.530   8.980   7.670
16325WAT      O49216   5.608   8.343   8.603
16325WAT     H149217   5.545   8.393   8.663
16325WAT     H249218   5.559   8.268   8.558
16326WAT      O49219   5.892   8.569   0.375
16326WAT     H149220   5.802   8.606   0.352
16326WAT     H249221   5.920   8.505   0.304
16327WAT      O49222   8.567   4.484   5.404
16327WAT     H149223   8.579   4.560   5.469
16327WAT     H249224   8.502   4.418   5.442
16328WAT      O49225   8.315   3.336   3.690
16328WAT     H149226   8.231   3.358   3.639
16328WAT     H249227   8.301   3.254   3.744
16329WAT      O49228   9.442   5.849   1.165
16329WAT     H149229   9.508   5.778   1.191
16329WAT     H249230   9.358   5.836   1.217
16330WAT      O49231   6.100   9.105   1.073
16330WAT     H149232   6.091   9.203   1.059
16330WAT     H249233   6.095   9.058   0.985
16331WAT      O49234   7.046   0.239   8.626
16331WAT     H149235   6.947   0.239   8.636
16331WAT     H249236   7.088   0.281   8.706
16332WAT      O49237   9.502   3.327   9.226
16332WAT     H149238   9.582   3.279   9.190
16332WAT     H249239   9.520   3.425   9.226
16333WAT      O49240   2.653   7.637   4.322
16333WAT     H149241   2.554   7.625   4.326
16333WAT     H249242   2.687   7.657   4.414
16334WAT      O49243   1.891   5.508   4.931
16334WAT     H149244   1.907   5.570   5.008
16334WAT     H249245   1.962   5.438   4.929
16335WAT      O49246   1.016   3.539   6.442
16335WAT     H149247   1.109   3.576   6.442
16335WAT     H249248   1.019   3.440   6.460
16336WAT      O49249   0.324   4.822   9.750
16336WAT     H149250   0.225   4.806   9.753
16336WAT     H249251   0.372   4.743   9.789
16337WAT      O49252   7.906   1.344   4.052
16337WAT     H149253   7.894   1.260   3.997
16337WAT     H249254   7.941   1.417   3.993
16338WAT      O49255   0.259   4.046   9.600
16338WAT     H149256   0.178   4.091   9.561
16338WAT     H249257   0.309   4.112   9.657
16339WAT      O49258   0.073   1.951   4.568
16339WAT     H149259   0.106   1.857   4.565
16339WAT     H249260  -0.019   1.953   4.609
16340WAT      O49261   1.748   3.852   5.474
16340WAT     H149262   1.718   3.780   5.537
16340WAT     H249263   1.727   3.824   5.380
16341WAT      O49264   3.077   2.153   5.356
16341WAT     H149265   3.162   2.147   5.303
16341WAT     H249266   3.097   2.190   5.447
16342WAT      O49267   1.124   1.069   5.356
16342WAT     H149268   1.157   1.050   5.264
16342WAT     H249269   1.156   1.160   5.384
16343WAT      O49270   5.304   7.855   8.866
16343WAT     H149271   5.365   7.849   8.945
16343WAT     H249272   5.353   7.896   8.789
16344WAT      O49273   1.399   0.256   4.984
16344WAT     H149274   1.345   0.246   5.068
16344WAT     H249275   1.488   0.212   4.997
16345WAT      O49276   7.590   3.836   7.175
16345WAT     H149277   7.664   3.901   7.158
16345WAT     H249278   7.609   3.750   7.126
16346WAT      O49279   6.976   7.947   0.685
16346WAT     H149280   7.004   7.925   0.591
16346WAT     H249281   7.033   7.896   0.749
16347WAT      O49282   9.603   2.707   4.264
16347WAT     H149283   9.563   2.729   4.175
16347WAT     H249284   9.677   2.771   4.284
16348WAT      O49285   3.783   8.297   3.714
16348WAT     H149286   3.778   8.237   3.794
16348WAT     H249287   3.747   8.249   3.634
16349WAT      O49288   2.091   0.944   3.426
16349WAT     H149289   2.005   0.893   3.425
16349WAT     H249290   2.167   0.880   3.418
16350WAT      O49291   9.378   4.812   0.235
16350WAT     H149292   9.314   4.870   0.284
16350WAT     H249293   9.379   4.721   0.277
16351WAT      O49294   4.394   9.123   0.088
16351WAT     H149295   4.398   9.102   0.186
16351WAT     H249296   4.299   9.128   0.059
16352WAT      O49297   9.778   0.154   0.397
16352WAT     H149298   9.721   0.169   0.317
16352WAT     H249299   9.869   0.123   0.369
16353WAT      O49300   4.705   4.430   2.227
16353WAT     H149301   4.799   4.454   2.204
16353WAT     H249302   4.668   4.367   2.159
16354WAT      O49303   9.664   6.864   4.993
16354WAT     H149304   9.616   6.881   5.079
16354WAT     H249305   9.753   6.823   5.013
16355WAT      O49306   6.589   0.753   6.329
16355WAT     H149307   6.570   0.842   6.369
16355WAT     H249308   6.581   0.682   6.400
16356WAT      O49309   3.260   3.549   6.240
16356WAT     H149310   3.352   3.556   6.201
16356WAT     H249311   3.197   3.605   6.186
16357WAT      O49312   6.031   6.061   7.526
16357WAT     H149313   5.980   6.013   7.455
16357WAT     H249314   5.967   6.108   7.588
16358WAT      O49315   9.275   1.451   5.720
16358WAT     H149316   9.256   1.355   5.742
16358WAT     H249317   9.372   1.470   5.732
16359WAT      O49318   7.965   4.780   0.478
16359WAT     H149319   7.949   4.878   0.478
16359WAT     H249320   7.935   4.741   0.391
16360WAT      O49321   8.282   0.994   8.216
16360WAT     H149322   8.320   0.904   8.240
16360WAT     H249323   8.298   1.057   8.292
16361WAT      O49324   6.721   1.814   8.904
16361WAT     H149325   6.738   1.813   9.002
16361WAT     H249326   6.791   1.870   8.859
16362WAT      O49327   2.849   4.322   8.155
16362WAT     H149328   2.823   4.243   8.210
16362WAT     H249329   2.945   4.315   8.130
16363WAT      O49330   3.440   4.863   3.102
16363WAT     H149331   3.530   4.819   3.104
16363WAT     H249332   3.369   4.795   3.121
16364WAT      O49333   8.412   1.910   6.951
16364WAT     H149334   8.460   1.867   6.874
16364WAT     H249335   8.476   1.963   7.005
16365WAT      O49336   0.133   2.870   4.073
16365WAT     H149337   0.225   2.838   4.094
16365WAT     H249338   0.133   2.970   4.066
16366WAT      O49339   7.423   0.801   5.986
16366WAT     H149340   7.429   0.821   6.084
16366WAT     H249341   7.510   0.822   5.942
16367WAT      O49342   7.778   5.642   3.731
16367WAT     H149343   7.764   5.738   3.709
16367WAT     H249344   7.728   5.619   3.815
16368WAT      O49345   9.049   4.014   0.198
16368WAT     H149346   9.093   4.103   0.208
16368WAT     H249347   8.966   4.023   0.142
16369WAT      O49348   4.239   2.352   3.560
16369WAT     H149349   4.250   2.440   3.607
16369WAT     H249350   4.188   2.366   3.476
16370WAT      O49351   5.543   7.042   2.584
16370WAT     H149352   5.600   6.992   2.518
16370WAT     H249353   5.465   6.986   2.610
16371WAT      O49354   0.920   0.011   1.974
16371WAT     H149355   0.840  -0.043   1.950
16371WAT     H249356   0.927   0.018   2.074
16372WAT      O49357   2.840   3.636   3.026
16372WAT     H149358   2.767   3.704   3.027
16372WAT     H249359   2.803   3.547   2.999
16373WAT      O49360   5.910   6.445   6.984
16373WAT     H149361   5.890   6.529   6.933
16373WAT     H249362   5.956   6.380   6.924
16374WAT      O49363   3.166   4.739   4.177
16374WAT     H149364   3.083   4.684   4.186
16374WAT     H249365   3.175   4.798   4.257
16375WAT      O49366   5.464   6.606   0.861
16375WAT     H149367   5.406   6.680   0.893
16375WAT     H249368   5.548   6.603   0.915
16376WAT      O49369   6.050   4.069   6.666
16376WAT     H149370   6.050   4.029   6.758
16376WAT     H249371   5.957   4.096   6.641
16377WAT      O49372   6.205   0.489   4.901
16377WAT     H149373   6.233   0.565   4.960
16377WAT     H249374   6.147   0.525   4.827
16378WAT      O49375   8.508   5.382   1.911
16378WAT     H149376   8.446   5.386   1.832
16378WAT     H249377   8.543   5.289   1.921
16379WAT      O49378   6.515   2.335   9.338
16379WAT     H149379   6.465   2.249   9.328
16379WAT     H249380   6.452   2.412   9.328
16380WAT      O49381   1.736   2.533   0.903
16380WAT     H149382   1.676   2.467   0.857
16380WAT     H249383   1.785   2.587   0.835
16381WAT      O49384   4.640   3.238   0.811
16381WAT     H149385   4.626   3.140   0.803
16381WAT     H249386   4.724   3.264   0.762
16382WAT      O49387   3.338   1.347   8.649
16382WAT     H149388   3.305   1.331   8.743
16382WAT     H249389   3.437   1.358   8.651
16383WAT      O49390   1.862   3.677   1.126
16383WAT     H149391   1.801   3.744   1.169
16383WAT     H249392   1.889   3.709   1.036
16384WAT      O49393   0.815   6.497   2.872
16384WAT     H149394   0.719   6.497   2.847
16384WAT     H249395   0.856   6.409   2.850
16385WAT      O49396   2.514   7.438   6.555
16385WAT     H149397   2.470   7.373   6.492
16385WAT     H249398   2.506   7.404   6.648
16386WAT      O49399   3.910   1.299   9.364
16386WAT     H149400   3.914   1.381   9.421
16386WAT     H249401   3.926   1.218   9.421
16387WAT      O49402   4.138   5.007   4.880
16387WAT     H149403   4.170   4.989   4.787
16387WAT     H249404   4.038   5.011   4.881
16388WAT      O49405   1.997   7.468   0.256
16388WAT     H149406   2.008   7.517   0.169
16388WAT     H249407   2.026   7.526   0.331
16389WAT      O49408   2.769   8.336   6.963
16389WAT     H149409   2.863   8.372   6.969
16389WAT     H249410   2.713   8.401   6.911
16390WAT      O49411   7.567   7.277   8.886
16390WAT     H149412   7.593   7.210   8.955
16390WAT     H249413   7.512   7.349   8.928
16391WAT      O49414   0.868   2.091   3.684
16391WAT     H149415   0.879   2.179   3.638
16391WAT     H249416   0.780   2.050   3.658
16392WAT      O49417   0.325   2.895   8.792
16392WAT     H149418   0.350   2.825   8.859
16392WAT     H249419   0.266   2.963   8.835
16393WAT      O49420   8.577   3.561   2.677
16393WAT     H149421   8.567   3.630   2.749
16393WAT     H249422   8.671   3.528   2.675
16394WAT      O49423   0.843   4.402   7.493
16394WAT     H149424   0.893   4.371   7.411
16394WAT     H249425   0.901   4.391   7.573
16395WAT      O49426   8.488   9.078   1.238
16395WAT     H149427   8.457   9.172   1.251
16395WAT     H249428   8.587   9.073   1.256
16396WAT      O49429   1.202   2.293   3.333
16396WAT     H149430   1.135   2.355   3.293
16396WAT     H249431   1.176   2.271   3.427
16397WAT      O49432   9.068   0.226   4.903
16397WAT     H149433   9.125   0.157   4.858
16397WAT     H249434   8.991   0.181   4.948
16398WAT      O49435   8.242   0.932   8.976
16398WAT     H149436   8.268   0.904   8.884
16398WAT     H249437   8.321   0.922   9.037
16399WAT      O49438   2.160   3.643   1.426
16399WAT     H149439   2.208   3.634   1.338
16399WAT     H249440   2.133   3.738   1.440
16400WAT      O49441   3.486   6.229   6.974
16400WAT     H149442   3.556   6.181   7.027
16400WAT     H249443   3.530   6.299   6.918
16401WAT      O49444   9.514   6.839   0.011
16401WAT     H149445   9.486   6.918   0.065
16401WAT     H249446   9.606   6.810   0.038
16402WAT      O49447   7.919   2.481   7.358
16402WAT     H149448   7.965   2.540   7.292
16402WAT     H249449   7.952   2.387   7.347
16403WAT      O49450   4.178   2.785   5.616
16403WAT     H149451   4.269   2.755   5.588
16403WAT     H249452   4.132   2.828   5.539
16404WAT      O49453   2.908   0.590   0.270
16404WAT     H149454   2.909   0.683   0.307
16404WAT     H249455   2.957   0.588   0.183
16405WAT      O49456   1.870   5.733   3.291
16405WAT     H149457   1.875   5.829   3.319
16405WAT     H249458   1.917   5.720   3.204
16406WAT      O49459   8.971   1.082   3.497
16406WAT     H149460   8.936   1.079   3.590
16406WAT     H249461   9.071   1.083   3.499
16407WAT      O49462   2.274   1.806   0.633
16407WAT     H149463   2.296   1.709   0.646
16407WAT     H249464   2.334   1.844   0.563
16408WAT      O49465   6.054   2.192   6.438
16408WAT     H149466   6.130   2.155   6.386
16408WAT     H249467   6.064   2.291   6.446
16409WAT      O49468   6.278   5.602   3.351
16409WAT     H149469   6.205   5.545   3.314
16409WAT     H249470   6.246   5.647   3.435
16410WAT      O49471   9.085   1.511   4.193
16410WAT     H149472   9.062   1.418   4.223
16410WAT     H249473   9.077   1.518   4.094
16411WAT      O49474   9.202   8.114   5.171
16411WAT     H149475   9.270   8.066   5.116
16411WAT     H249476   9.248   8.177   5.234
16412WAT      O49477   5.120   3.903   3.808
16412WAT     H149478   5.079   3.974   3.750
16412WAT     H249479   5.049   3.839   3.836
16413WAT      O49480   1.219   8.056   6.312
16413WAT     H149481   1.130   8.065   6.267
16413WAT     H249482   1.244   7.960   6.317
16414WAT      O49483   0.115   3.458   4.576
16414WAT     H149484   0.200   3.426   4.534
16414WAT     H249485   0.123   3.455   4.675
16415WAT      O49486   5.378   1.901   9.120
16415WAT     H149487   5.305   1.969   9.118
16415WAT     H249488   5.436   1.915   9.201
16416WAT      O49489   9.768   5.669   3.150
16416WAT     H149490   9.738   5.593   3.092
16416WAT     H249491   9.737   5.755   3.110
16417WAT      O49492   4.000   9.398   3.206
16417WAT     H149493   4.094   9.389   3.175
16417WAT     H249494   3.998   9.429   3.301
16418WAT      O49495   3.267   9.202   2.224
16418WAT     H149496   3.315   9.189   2.136
16418WAT     H249497   3.255   9.113   2.268
16419WAT      O49498   7.956   9.814   6.771
16419WAT     H149499   7.870   9.827   6.820
16419WAT     H249500   7.969   9.717   6.751
16420WAT      O49501   3.130   6.957   5.221
16420WAT     H149502   3.063   6.984   5.289
16420WAT     H249503   3.096   6.980   5.129
16421WAT      O49504   8.779   1.346   4.895
16421WAT     H149505   8.761   1.444   4.881
16421WAT     H249506   8.773   1.299   4.806
16422WAT      O49507   0.555   0.093   0.851
16422WAT     H149508   0.524   0.002   0.879
16422WAT     H249509   0.547   0.102   0.752
16423WAT      O49510   5.206   6.162   9.456
16423WAT     H149511   5.187   6.145   9.553
16423WAT     H249512   5.137   6.223   9.419
16424WAT      O49513   7.849   2.119   6.282
16424WAT     H149514   7.884   2.153   6.195
16424WAT     H249515   7.807   2.030   6.269
16425WAT      O49516   8.564   3.745   2.891
16425WAT     H149517   8.580   3.737   2.990
16425WAT     H249518   8.556   3.842   2.867
16426WAT      O49519   4.489   6.337   7.423
16426WAT     H149520   4.482   6.378   7.514
16426WAT     H249521   4.525   6.405   7.359
16427WAT      O49522   0.874   4.575   6.534
16427WAT     H149523   0.827   4.487   6.525
16427WAT     H249524   0.971   4.563   6.512
16428WAT      O49525   2.770   4.959   7.868
16428WAT     H149526   2.823   5.031   7.824
16428WAT     H249527   2.789   4.872   7.822
16429WAT      O49528   1.518   6.352   8.103
16429WAT     H149529   1.428   6.352   8.147
16429WAT     H249530   1.507   6.361   8.004
16430WAT      O49531   5.321   1.310   9.680
16430WAT     H149532   5.262   1.346   9.608
16430WAT     H249533   5.398   1.373   9.695
16431WAT      O49534   2.640   0.548   0.062
16431WAT     H149535   2.588   0.586  -0.015
16431WAT     H249536   2.577   0.510   0.130
16432WAT      O49537   1.511   4.077   8.466
16432WAT     H149538   1.449   4.091   8.390
16432WAT     H249539   1.473   4.008   8.528
16433WAT      O49540   4.692   3.972   4.134
16433WAT     H149541   4.620   4.011   4.190
16433WAT     H249542   4.781   4.009   4.163
16434WAT      O49543   1.433   3.282   7.183
16434WAT     H149544   1.393   3.224   7.255
16434WAT     H249545   1.390   3.259   7.095
16435WAT      O49546   9.645   0.746   7.994
16435WAT     H149547   9.645   0.824   7.931
16435WAT     H249548   9.644   0.779   8.088
16436WAT      O49549   5.444   5.426   9.383
16436WAT     H149550   5.402   5.462   9.300
16436WAT     H249551   5.514   5.359   9.358
16437WAT      O49552   9.185   5.470   8.065
16437WAT     H149553   9.118   5.455   7.993
16437WAT     H249554   9.270   5.506   8.025
16438WAT      O49555   6.691   2.498   8.874
16438WAT     H149556   6.601   2.500   8.917
16438WAT     H249557   6.747   2.427   8.917
16439WAT      O49558   3.372   4.295   5.538
16439WAT     H149559   3.420   4.306   5.451
16439WAT     H249560   3.362   4.198   5.559
16440WAT      O49561   3.670   7.384   4.953
16440WAT     H149562   3.640   7.476   4.928
16440WAT     H249563   3.677   7.327   4.871
16441WAT      O49564   5.410   9.065   6.608
16441WAT     H149565   5.357   9.012   6.542
16441WAT     H249566   5.506   9.038   6.603
16442WAT      O49567   4.513   1.100   2.740
16442WAT     H149568   4.535   1.050   2.657
16442WAT     H249569   4.596   1.108   2.797
16443WAT      O49570   7.967   0.448   7.452
16443WAT     H149571   7.974   0.483   7.358
16443WAT     H249572   7.959   0.525   7.515
16444WAT      O49573   2.020   6.996   1.115
16444WAT     H149574   1.982   6.909   1.147
16444WAT     H249575   1.966   7.072   1.151
16445WAT      O49576   4.676   8.954   2.087
16445WAT     H149577   4.633   8.935   1.998
16445WAT     H249578   4.766   8.994   2.072
16446WAT      O49579   1.454   8.680   5.801
16446WAT     H149580   1.375   8.734   5.831
16446WAT     H249581   1.493   8.721   5.719
16447WAT      O49582   1.303   2.801   0.242
16447WAT     H149583   1.367   2.802   0.319
16447WAT     H249584   1.289   2.895   0.210
16448WAT      O49585   5.485   6.635   7.958
16448WAT     H149586   5.464   6.661   8.053
16448WAT     H249587   5.507   6.538   7.954
16449WAT      O49588   3.120   0.139   5.699
16449WAT     H149589   3.193   0.118   5.634
16449WAT     H249590   3.032   0.142   5.651
16450WAT      O49591   7.325   4.781   9.330
16450WAT     H149592   7.411   4.825   9.357
16450WAT     H249593   7.259   4.851   9.302
16451WAT      O49594   1.327   7.554   2.609
16451WAT     H149595   1.392   7.616   2.564
16451WAT     H249596   1.250   7.538   2.548
16452WAT      O49597   6.331   1.630   6.922
16452WAT     H149598   6.268   1.555   6.943
16452WAT     H249599   6.375   1.614   6.834
16453WAT      O49600   0.804   8.775   4.781
16453WAT     H149601   0.805   8.678   4.807
16453WAT     H249602   0.757   8.828   4.851
16454WAT      O49603   6.878   6.202   5.594
16454WAT     H149604   6.816   6.199   5.672
16454WAT     H249605   6.931   6.287   5.597
16455WAT      O49606   9.589   8.530   8.532
16455WAT     H149607   9.559   8.574   8.447
16455WAT     H249608   9.612   8.599   8.600
16456WAT      O49609   5.013   2.010   1.840
16456WAT     H149610   5.068   1.944   1.892
16456WAT     H249611   4.972   1.964   1.762
16457WAT      O49612   8.219   2.241   5.004
16457WAT     H149613   8.155   2.167   5.024
16457WAT     H249614   8.301   2.203   4.960
16458WAT      O49615   0.946   1.818   9.400
16458WAT     H149616   1.020   1.847   9.338
16458WAT     H249617   0.858   1.839   9.358
16459WAT      O49618   0.407   7.818   3.784
16459WAT     H149619   0.390   7.868   3.699
16459WAT     H249620   0.372   7.871   3.861
16460WAT      O49621   5.622   4.934   6.201
16460WAT     H149622   5.541   4.899   6.155
16460WAT     H249623   5.699   4.873   6.183
16461WAT      O49624   9.667   7.605   0.209
16461WAT     H149625   9.653   7.524   0.152
16461WAT     H249626   9.579   7.635   0.246
16462WAT      O49627   8.659   8.909   6.789
16462WAT     H149628   8.615   8.999   6.783
16462WAT     H249629   8.726   8.910   6.863
16463WAT      O49630   3.135   5.514   9.200
16463WAT     H149631   3.212   5.484   9.255
16463WAT     H249632   3.054   5.523   9.258
16464WAT      O49633   0.934   4.177   4.918
16464WAT     H149634   0.869   4.199   4.990
16464WAT     H249635   0.907   4.224   4.834
16465WAT      O49636   3.833   8.863   9.250
16465WAT     H149637   3.753   8.907   9.292
16465WAT     H249638   3.879   8.929   9.190
16466WAT      O49639   7.732   8.286   0.110
16466WAT     H149640   7.819   8.302   0.157
16466WAT     H249641   7.662   8.347   0.146
16467WAT      O49642   3.290   4.694   2.319
16467WAT     H149643   3.296   4.708   2.220
16467WAT     H249644   3.217   4.753   2.355
16468WAT      O49645   3.134   0.396   5.244
16468WAT     H149646   3.208   0.345   5.200
16468WAT     H249647   3.161   0.493   5.251
16469WAT      O49648   7.993   9.702   2.810
16469WAT     H149649   8.005   9.729   2.714
16469WAT     H249650   8.017   9.606   2.821
16470WAT      O49651   8.612   3.156   9.476
16470WAT     H149652   8.555   3.115   9.547
16470WAT     H249653   8.559   3.165   9.392
16471WAT      O49654   6.512   6.997   6.300
16471WAT     H149655   6.604   6.959   6.306
16471WAT     H249656   6.494   7.055   6.380
16472WAT      O49657   0.302   3.857   2.500
16472WAT     H149658   0.315   3.881   2.404
16472WAT     H249659   0.354   3.774   2.521
16473WAT      O49660   0.979   4.089   0.779
16473WAT     H149661   1.076   4.086   0.756
16473WAT     H249662   0.940   3.997   0.770
16474WAT      O49663   5.044   7.770   2.154
16474WAT     H149664   5.014   7.798   2.063
16474WAT     H249665   5.001   7.828   2.223
16475WAT      O49666   6.790   7.429   4.225
16475WAT     H149667   6.867   7.364   4.221
16475WAT     H249668   6.706   7.379   4.248
16476WAT      O49669   2.363   8.402   6.373
16476WAT     H149670   2.462   8.390   6.385
16476WAT     H249671   2.316   8.370   6.456
16477WAT      O49672   8.421   4.886   6.784
16477WAT     H149673   8.440   4.929   6.696
16477WAT     H249674   8.448   4.948   6.858
16478WAT      O49675   0.390   7.040   5.045
16478WAT     H149676   0.386   6.947   5.083
16478WAT     H249677   0.397   7.106   5.119
16479WAT      O49678   1.118   6.966   9.455
16479WAT     H149679   1.174   6.944   9.535
16479WAT     H249680   1.108   7.066   9.447
16480WAT      O49681   0.478   4.957   7.471
16480WAT     H149682   0.430   4.870   7.482
16480WAT     H249683   0.415   5.033   7.490
16481WAT      O49684   7.975   6.113   4.365
16481WAT     H149685   7.964   6.143   4.270
16481WAT     H249686   8.010   6.189   4.420
16482WAT      O49687   0.937   2.392   9.050
16482WAT     H149688   0.983   2.320   9.102
16482WAT     H249689   0.954   2.480   9.094
16483WAT      O49690   6.397   9.790   9.365
16483WAT     H149691   6.353   9.878   9.349
16483WAT     H249692   6.343   9.737   9.431
16484WAT      O49693   8.745   8.459   1.517
16484WAT     H149694   8.797   8.404   1.451
16484WAT     H249695   8.719   8.402   1.595
16485WAT      O49696   8.662   4.381   4.535
16485WAT     H149697   8.639   4.362   4.630
16485WAT     H249698   8.631   4.473   4.511
16486WAT      O49699   2.566   0.685   3.040
16486WAT     H149700   2.609   0.646   2.959
16486WAT     H249701   2.632   0.688   3.115
16487WAT      O49702   3.798   7.310   6.339
16487WAT     H149703   3.867   7.272   6.277
16487WAT     H249704   3.744   7.235   6.379
16488WAT      O49705   5.397   3.951   8.939
16488WAT     H149706   5.385   4.030   8.879
16488WAT     H249707   5.315   3.895   8.938
16489WAT      O49708   6.917   2.750   1.571
16489WAT     H149709   6.824   2.787   1.573
16489WAT     H249710   6.979   2.813   1.618
16490WAT      O49711   0.780   6.115   9.629
16490WAT     H149712   0.700   6.064   9.661
16490WAT     H249713   0.754   6.210   9.611
16491WAT      O49714   7.854   2.721   2.061
16491WAT     H149715   7.777   2.664   2.034
16491WAT     H249716   7.933   2.700   2.004
16492WAT      O49717   0.421   3.318   0.894
16492WAT     H149718   0.384   3.260   0.821
16492WAT     H249719   0.499   3.272   0.936
16493WAT      O49720   8.338   1.848   8.629
16493WAT     H149721   8.371   1.900   8.707
16493WAT     H249722   8.275   1.904   8.575
16494WAT      O49723   3.240   3.470   5.263
16494WAT     H149724   3.309   3.518   5.316
16494WAT     H249725   3.247   3.372   5.281
16495WAT      O49726   8.587   7.189   6.316
16495WAT     H149727   8.568   7.279   6.356
16495WAT     H249728   8.534   7.177   6.232
16496WAT      O49729   6.336   3.715   2.800
16496WAT     H149730   6.392   3.798   2.804
16496WAT     H249731   6.372   3.648   2.865
16497WAT      O49732   1.069   9.118   7.347
16497WAT     H149733   1.013   9.201   7.339
16497WAT     H249734   1.143   9.121   7.280
16498WAT      O49735   9.800   9.404   4.412
16498WAT     H149736   9.882   9.456   4.438
16498WAT     H249737   9.751   9.455   4.342
16499WAT      O49738   1.988   5.742   8.993
16499WAT     H149739   1.889   5.732   8.986
16499WAT     H249740   2.031   5.651   8.997
16500WAT      O49741   3.914   8.606   7.269
16500WAT     H149742   3.845   8.651   7.213
16500WAT     H249743   3.870   8.551   7.340
16501WAT      O49744   9.057   5.520   2.258
16501WAT     H149745   9.140   5.472   2.284
16501WAT     H249746   9.014   5.558   2.340
16502WAT      O49747   7.414   2.911   6.383
16502WAT     H149748   7.378   2.906   6.289
16502WAT     H249749   7.416   3.006   6.413
16503WAT      O49750   9.191   4.193   5.498
16503WAT     H149751   9.125   4.267   5.488
16503WAT     H249752   9.143   4.106   5.505
16504WAT      O49753   4.473   0.058   9.643
16504WAT     H149754   4.408   0.075   9.717
16504WAT     H249755   4.565   0.084   9.673
16505WAT      O49756   7.218   8.789   3.411
16505WAT     H149757   7.155   8.759   3.482
16505WAT     H249758   7.178   8.772   3.321
16506WAT      O49759   4.282   1.703   4.888
16506WAT     H149760   4.295   1.799   4.864
16506WAT     H249761   4.346   1.678   4.960
16507WAT      O49762   4.918   2.630   7.981
16507WAT     H149763   4.821   2.626   7.957
16507WAT     H249764   4.967   2.683   7.912
16508WAT      O49765   1.498   1.526   0.793
16508WAT     H149766   1.543   1.556   0.709
16508WAT     H249767   1.566   1.504   0.863
16509WAT      O49768   8.036   8.323   6.459
16509WAT     H149769   8.107   8.301   6.527
16509WAT     H249770   7.989   8.407   6.485
16510WAT      O49771   7.250   3.192   1.873
16510WAT     H149772   7.223   3.254   1.946
16510WAT     H249773   7.254   3.099   1.907
16511WAT      O49774   0.596   3.296   6.437
16511WAT     H149775   0.643   3.249   6.512
16511WAT     H249776   0.507   3.329   6.468
16512WAT      O49777   7.897   5.703   7.532
16512WAT     H149778   7.800   5.689   7.551
16512WAT     H249779   7.909   5.719   7.434
16513WAT      O49780   4.264   8.515   1.164
16513WAT     H149781   4.189   8.552   1.218
16513WAT     H249782   4.269   8.562   1.076
16514WAT      O49783   2.897   6.567   6.425
16514WAT     H149784   2.923   6.478   6.388
16514WAT     H249785   2.798   6.568   6.444
16515WAT      O49786   4.836   2.429   6.233
16515WAT     H149787   4.868   2.335   6.248
16515WAT     H249788   4.800   2.466   6.319
16516WAT      O49789   6.085   8.819   5.620
16516WAT     H149790   5.986   8.807   5.611
16516WAT     H249791   6.105   8.872   5.703
16517WAT      O49792   5.645   4.790   2.085
16517WAT     H149793   5.585   4.820   2.011
16517WAT     H249794   5.592   4.735   2.150
16518WAT      O49795   5.369   2.509   9.683
16518WAT     H149796   5.283   2.510   9.632
16518WAT     H249797   5.377   2.422   9.732
16519WAT      O49798   0.767   6.892   8.260
16519WAT     H149799   0.671   6.907   8.238
16519WAT     H249800   0.823   6.963   8.216
16520WAT      O49801   2.782   6.647   1.734
16520WAT     H149802   2.814   6.671   1.643
16520WAT     H249803   2.860   6.641   1.796
16521WAT      O49804   2.787   3.530   0.470
16521WAT     H149805   2.806   3.450   0.413
16521WAT     H249806   2.821   3.612   0.425
16522WAT      O49807   8.513   6.831   1.852
16522WAT     H149808   8.435   6.780   1.816
16522WAT     H249809   8.528   6.913   1.796
16523WAT      O49810   6.344   8.636   8.126
16523WAT     H149811   6.286   8.554   8.124
16523WAT     H249812   6.287   8.717   8.133
16524WAT      O49813   6.102   3.636   2.303
16524WAT     H149814   6.162   3.567   2.344
16524WAT     H249815   6.124   3.646   2.206
16525WAT      O49816   0.315   6.996   2.662
16525WAT     H149817   0.305   6.917   2.722
16525WAT     H249818   0.387   6.980   2.596
16526WAT      O49819   4.006   7.598   2.479
16526WAT     H149820   3.931   7.586   2.414
16526WAT     H249821   3.977   7.565   2.569
16527WAT      O49822   9.013   4.553   2.780
16527WAT     H149823   9.068   4.627   2.819
16527WAT     H249824   8.971   4.585   2.694
16528WAT      O49825   9.762   9.081   4.279
16528WAT     H149826   9.717   9.063   4.191
16528WAT     H249827   9.713   9.154   4.327
16529WAT      O49828   0.592   6.610   8.544
16529WAT     H149829   0.565   6.557   8.624
16529WAT     H249830   0.670   6.669   8.567
16530WAT      O49831   3.027   3.611   5.348
16530WAT     H149832   3.096   3.554   5.304
16530WAT     H249833   2.957   3.552   5.389
16531WAT      O49834   7.578   2.465   6.260
16531WAT     H149835   7.542   2.528   6.329
16531WAT     H249836   7.641   2.514   6.199
16532WAT      O49837   3.909   5.030   8.037
16532WAT     H149838   3.867   5.121   8.034
16532WAT     H249839   3.996   5.031   7.987
16533WAT      O49840   8.998   4.438   1.892
16533WAT     H149841   9.050   4.406   1.971
16533WAT     H249842   8.968   4.532   1.906
16534WAT      O49843   7.213   0.886   9.579
16534WAT     H149844   7.239   0.802   9.626
16534WAT     H249845   7.130   0.923   9.620
16535WAT      O49846   3.765   3.348   7.826
16535WAT     H149847   3.787   3.436   7.784
16535WAT     H249848   3.778   3.354   7.925
16536WAT      O49849   2.473   9.401   2.029
16536WAT     H149850   2.440   9.330   2.091
16536WAT     H249851   2.406   9.475   2.024
16537WAT      O49852   3.698   4.956   1.746
16537WAT     H149853   3.679   4.945   1.844
16537WAT     H249854   3.747   4.875   1.713
16538WAT      O49855   7.736   8.585   2.176
16538WAT     H149856   7.826   8.627   2.191
16538WAT     H249857   7.737   8.538   2.088
16539WAT      O49858   1.822   8.731   7.122
16539WAT     H149859   1.728   8.706   7.142
16539WAT     H249860   1.868   8.655   7.075
16540WAT      O49861   7.198   9.654   2.876
16540WAT     H149862   7.128   9.615   2.936
16540WAT     H249863   7.277   9.593   2.873
16541WAT      O49864   7.134   7.269   8.411
16541WAT     H149865   7.104   7.173   8.410
16541WAT     H249866   7.104   7.313   8.326
16542WAT      O49867   2.804   5.886   3.518
16542WAT     H149868   2.874   5.823   3.484
16542WAT     H249869   2.786   5.867   3.614
16543WAT      O49870   7.792   8.737   7.254
16543WAT     H149871   7.838   8.708   7.338
16543WAT     H249872   7.840   8.699   7.175
16544WAT      O49873   5.991   5.512   8.360
16544WAT     H149874   6.084   5.485   8.385
16544WAT     H249875   5.994   5.602   8.316
16545WAT      O49876   7.611   3.042   8.896
16545WAT     H149877   7.666   3.104   8.840
16545WAT     H249878   7.657   3.026   8.983
16546WAT      O49879   5.090   7.352   5.655
16546WAT     H149880   5.077   7.440   5.701
16546WAT     H249881   5.016   7.290   5.680
16547WAT      O49882   5.939   3.534   6.029
16547WAT     H149883   5.882   3.525   6.111
16547WAT     H249884   5.896   3.600   5.966
16548WAT      O49885   1.282   7.058   3.463
16548WAT     H149886   1.183   7.072   3.469
16548WAT     H249887   1.305   7.018   3.375
16549WAT      O49888   4.285   3.461   4.364
16549WAT     H149889   4.197   3.414   4.358
16549WAT     H249890   4.358   3.397   4.342
16550WAT      O49891   5.054   8.903   0.286
16550WAT     H149892   5.138   8.914   0.233
16550WAT     H249893   5.055   8.965   0.364
16551WAT      O49894   9.443   5.758   6.353
16551WAT     H149895   9.491   5.674   6.328
16551WAT     H249896   9.373   5.738   6.421
16552WAT      O49897   4.374   3.590   6.906
16552WAT     H149898   4.414   3.585   6.997
16552WAT     H249899   4.402   3.511   6.852
16553WAT      O49900   8.140   8.637   7.276
16553WAT     H149901   8.108   8.543   7.265
16553WAT     H249902   8.177   8.650   7.368
16554WAT      O49903   2.653   0.987   4.303
16554WAT     H149904   2.704   0.929   4.238
16554WAT     H249905   2.668   0.953   4.396
16555WAT      O49906   0.929   8.897   7.384
16555WAT     H149907   0.963   8.856   7.469
16555WAT     H249908   0.961   8.992   7.379
16556WAT      O49909   3.859   4.193   1.400
16556WAT     H149910   3.950   4.234   1.398
16556WAT     H249911   3.813   4.209   1.313
16557WAT      O49912   2.417   1.510   7.731
16557WAT     H149913   2.397   1.556   7.818
16557WAT     H249914   2.485   1.439   7.747
16558WAT      O49915   2.377   5.258   9.843
16558WAT     H149916   2.389   5.357   9.840
16558WAT     H249917   2.423   5.221   9.924
16559WAT      O49918   0.057   0.401   2.788
16559WAT     H149919  -0.016   0.348   2.744
16559WAT     H249920   0.047   0.393   2.888
16560WAT      O49921   5.404   5.189   8.694
16560WAT     H149922   5.498   5.210   8.670
16560WAT     H249923   5.379   5.237   8.778
16561WAT      O49924   3.194   0.857   2.883
16561WAT     H149925   3.161   0.944   2.917
16561WAT     H249926   3.185   0.853   2.783
16562WAT      O49927   5.184   2.745   7.122
16562WAT     H149928   5.160   2.785   7.211
16562WAT     H249929   5.152   2.805   7.049
16563WAT      O49930   1.891   7.430   5.609
16563WAT     H149931   1.979   7.386   5.592
16563WAT     H249932   1.826   7.407   5.536
16564WAT      O49933   9.284   8.245   3.989
16564WAT     H149934   9.345   8.309   4.037
16564WAT     H249935   9.190   8.258   4.021
16565WAT      O49936   1.134   0.608   1.828
16565WAT     H149937   1.138   0.681   1.896
16565WAT     H249938   1.088   0.641   1.746
16566WAT      O49939   4.539   6.544   7.240
16566WAT     H149940   4.599   6.485   7.187
16566WAT     H249941   4.594   6.606   7.297
16567WAT      O49942   2.277   9.531   3.059
16567WAT     H149943   2.221   9.491   2.987
16567WAT     H249944   2.367   9.487   3.058
16568WAT      O49945   8.956   2.884   1.461
16568WAT     H149946   8.860   2.913   1.468
16568WAT     H249947   8.976   2.857   1.367
16569WAT      O49948   0.342   6.143   3.737
16569WAT     H149949   0.346   6.050   3.773
16569WAT     H249950   0.298   6.142   3.647
16570WAT      O49951   8.733   8.739   6.589
16570WAT     H149952   8.736   8.644   6.619
16570WAT     H249953   8.697   8.796   6.663
16571WAT      O49954   1.306   4.005   1.091
16571WAT     H149955   1.232   4.072   1.079
16571WAT     H249956   1.394   4.051   1.078
16572WAT      O49957   3.745   6.463   6.139
16572WAT     H149958   3.743   6.512   6.052
16572WAT     H249959   3.819   6.500   6.196
16573WAT      O49960   1.058   8.636   6.908
16573WAT     H149961   1.102   8.690   6.979
16573WAT     H249962   1.120   8.566   6.875
16574WAT      O49963   3.808   6.967   1.503
16574WAT     H149964   3.820   6.881   1.455
16574WAT     H249965   3.792   6.950   1.600
16575WAT      O49966   3.606   9.643   1.079
16575WAT     H149967   3.547   9.636   1.159
16575WAT     H249968   3.598   9.561   1.023
16576WAT      O49969   0.719   8.355   5.665
16576WAT     H149970   0.709   8.433   5.727
16576WAT     H249971   0.806   8.363   5.616
16577WAT      O49972   1.900   5.476   3.968
16577WAT     H149973   1.945   5.421   3.897
16577WAT     H249974   1.940   5.567   3.969
16578WAT      O49975   1.082   8.575   9.234
16578WAT     H149976   1.018   8.636   9.279
16578WAT     H249977   1.165   8.567   9.290
16579WAT      O49978   2.788   7.869   7.570
16579WAT     H149979   2.746   7.960   7.562
16579WAT     H249980   2.761   7.813   7.492
16580WAT      O49981   2.768   4.440   7.912
16580WAT     H149982   2.808   4.416   8.001
16580WAT     H249983   2.684   4.388   7.899
16581WAT      O49984   6.124   9.257   7.592
16581WAT     H149985   6.031   9.257   7.557
16581WAT     H249986   6.187   9.233   7.518
16582WAT      O49987   2.660   9.172   1.198
16582WAT     H149988   2.623   9.169   1.105
16582WAT     H249989   2.752   9.135   1.198
16583WAT      O49990   5.720   1.056   4.272
16583WAT     H149991   5.799   0.999   4.249
16583WAT     H249992   5.655   1.054   4.196
16584WAT      O49993   4.214   6.793   8.223
16584WAT     H149994   4.149   6.768   8.295
16584WAT     H249995   4.261   6.711   8.192
16585WAT      O49996   4.955   9.129   7.101
16585WAT     H149997   4.892   9.203   7.079
16585WAT     H249998   4.908   9.041   7.095
16586WAT      O49999   3.229   2.857   2.198
16586WAT     H150000   3.232   2.841   2.296
16586WAT     H250001   3.314   2.825   2.156
16587WAT      O50002   3.678   3.622   9.657
16587WAT     H150003   3.618   3.547   9.687
16587WAT     H250004   3.714   3.601   9.566
16588WAT      O50005   1.623   1.017   1.579
16588WAT     H150006   1.598   0.994   1.673
16588WAT     H250007   1.583   1.106   1.555
16589WAT      O50008   0.407   6.336   5.536
16589WAT     H150009   0.494   6.340   5.585
16589WAT     H250010   0.405   6.407   5.466
16590WAT      O50011   1.340   9.288   1.830
16590WAT     H150012   1.252   9.307   1.872
16590WAT     H250013   1.405   9.361   1.853
16591WAT      O50014   0.842   7.640   8.700
16591WAT     H150015   0.920   7.662   8.758
16591WAT     H250016   0.775   7.587   8.753
16592WAT      O50017   3.149   0.290   2.885
16592WAT     H150018   3.129   0.280   2.983
16592WAT     H250019   3.248   0.298   2.872
16593WAT      O50020   2.655   3.697   4.215
16593WAT     H150021   2.581   3.752   4.176
16593WAT     H250022   2.742   3.743   4.199
16594WAT      O50023   0.362   7.271   0.711
16594WAT     H150024   0.330   7.179   0.687
16594WAT     H250025   0.290   7.320   0.760
16595WAT      O50026   0.578   5.476   2.116
16595WAT     H150027   0.521   5.481   2.035
16595WAT     H250028   0.532   5.420   2.186
16596WAT      O50029   8.069   8.407   4.434
16596WAT     H150030   8.021   8.324   4.405
16596WAT     H250031   8.013   8.487   4.412
16597WAT      O50032   3.945   0.743   8.459
16597WAT     H150033   3.905   0.729   8.550
16597WAT     H250034   3.877   0.787   8.400
16598WAT      O50035   2.581   2.202   2.340
16598WAT     H150036   2.640   2.261   2.284
16598WAT     H250037   2.490   2.199   2.300
16599WAT      O50038   8.182   6.362   8.057
16599WAT     H150039   8.089   6.340   8.085
16599WAT     H250040   8.242   6.360   8.137
16600WAT      O50041   2.709   6.843   6.812
16600WAT     H150042   2.625   6.789   6.820
16600WAT     H250043   2.701   6.925   6.869
16601WAT      O50044   4.506   1.961   9.500
16601WAT     H150045   4.408   1.958   9.521
16601WAT     H250046   4.528   1.887   9.435
16602WAT      O50047   0.560   7.975   8.095
16602WAT     H150048   0.589   7.897   8.151
16602WAT     H250049   0.573   7.954   7.998
16603WAT      O50050   8.177   2.629   4.312
16603WAT     H150051   8.147   2.549   4.259
16603WAT     H250052   8.277   2.628   4.319
16604WAT      O50053   0.138   5.371   8.365
16604WAT     H150054   0.177   5.463   8.360
16604WAT     H250055   0.154   5.334   8.457
16605WAT      O50056   8.136   4.860   9.521
16605WAT     H150057   8.086   4.942   9.550
16605WAT     H250058   8.220   4.851   9.574
16606WAT      O50059   4.464   9.603   7.746
16606WAT     H150060   4.538   9.635   7.804
16606WAT     H250061   4.417   9.681   7.705
16607WAT      O50062   7.863   1.976   2.080
16607WAT     H150063   7.850   2.071   2.054
16607WAT     H250064   7.956   1.947   2.058
16608WAT      O50065   6.040   4.126   1.429
16608WAT     H150066   5.999   4.165   1.347
16608WAT     H250067   6.086   4.040   1.407
16609WAT      O50068   3.566   4.605   9.478
16609WAT     H150069   3.539   4.513   9.448
16609WAT     H250070   3.523   4.624   9.566
16610WAT      O50071   4.933   5.550   3.493
16610WAT     H150072   4.981   5.593   3.416
16610WAT     H250073   4.940   5.607   3.574
16611WAT      O50074   0.469   4.492   4.764
16611WAT     H150075   0.405   4.480   4.840
16611WAT     H250076   0.458   4.583   4.725
16612WAT      O50077   5.391   9.655   7.298
16612WAT     H150078   5.453   9.581   7.270
16612WAT     H250079   5.300   9.617   7.314
16613WAT      O50080   5.923   4.216   0.336
16613WAT     H150081   5.845   4.250   0.389
16613WAT     H250082   5.954   4.286   0.273
16614WAT      O50083   7.918   2.957   6.849
16614WAT     H150084   7.829   3.000   6.838
16614WAT     H250085   7.916   2.865   6.809
16615WAT      O50086   0.874   1.753   1.840
16615WAT     H150087   0.858   1.681   1.907
16615WAT     H250088   0.972   1.761   1.822
16616WAT      O50089   6.514   9.317   3.665
16616WAT     H150090   6.593   9.291   3.609
16616WAT     H250091   6.543   9.384   3.734
16617WAT      O50092   0.798   9.657   7.937
16617WAT     H150093   0.719   9.670   7.877
16617WAT     H250094   0.865   9.597   7.892
16618WAT      O50095   0.441   1.568   9.143
16618WAT     H150096   0.490   1.535   9.223
16618WAT     H250097   0.462   1.665   9.130
16619WAT      O50098   3.112   3.906   3.515
16619WAT     H150099   3.154   3.816   3.505
16619WAT     H250100   3.034   3.913   3.452
16620WAT      O50101   6.307   8.633   2.120
16620WAT     H150102   6.228   8.663   2.174
16620WAT     H250103   6.278   8.566   2.052
16621WAT      O50104   3.013   6.311   4.973
16621WAT     H150105   3.055   6.360   4.896
16621WAT     H250106   3.070   6.232   4.998
16622WAT      O50107   1.540   5.978   7.699
16622WAT     H150108   1.606   5.953   7.628
16622WAT     H250109   1.589   6.010   7.781
16623WAT      O50110   6.655   7.213   9.005
16623WAT     H150111   6.632   7.146   8.935
16623WAT     H250112   6.699   7.168   9.082
16624WAT      O50113   3.696   6.703   4.151
16624WAT     H150114   3.738   6.773   4.093
16624WAT     H250115   3.681   6.620   4.097
16625WAT      O50116   5.720   6.319   9.382
16625WAT     H150117   5.671   6.284   9.302
16625WAT     H250118   5.818   6.305   9.370
16626WAT      O50119   9.597   9.714   1.158
16626WAT     H150120   9.674   9.674   1.108
16626WAT     H250121   9.622   9.726   1.254
16627WAT      O50122   9.659   4.706   7.739
16627WAT     H150123   9.625   4.793   7.702
16627WAT     H250124   9.636   4.632   7.676
16628WAT      O50125   5.543   6.562   1.300
16628WAT     H150126   5.607   6.634   1.273
16628WAT     H250127   5.589   6.496   1.359
16629WAT      O50128   7.281   7.872   2.062
16629WAT     H150129   7.341   7.822   2.123
16629WAT     H250130   7.294   7.971   2.075
16630WAT      O50131   0.201   7.233   6.412
16630WAT     H150132   0.185   7.134   6.418
16630WAT     H250133   0.276   7.257   6.473
16631WAT      O50134   0.574   3.041   0.755
16631WAT     H150135   0.617   3.092   0.681
16631WAT     H250136   0.568   3.098   0.837
16632WAT      O50137   0.830   1.202   5.854
16632WAT     H150138   0.788   1.176   5.767
16632WAT     H250139   0.759   1.228   5.919
16633WAT      O50140   3.511   4.011   5.808
16633WAT     H150141   3.562   4.094   5.831
16633WAT     H250142   3.462   4.025   5.722
16634WAT      O50143   8.778   1.643   5.546
16634WAT     H150144   8.720   1.563   5.529
16634WAT     H250145   8.836   1.626   5.626
16635WAT      O50146   0.119   3.931   9.201
16635WAT     H150147   0.113   3.835   9.227
16635WAT     H250148   0.043   3.955   9.142
16636WAT      O50149   1.401   6.591   4.436
16636WAT     H150150   1.339   6.517   4.465
16636WAT     H250151   1.355   6.679   4.447
16637WAT      O50152   7.980   3.989   0.293
16637WAT     H150153   7.896   3.974   0.345
16637WAT     H250154   7.957   4.033   0.206
16638WAT      O50155   3.219   9.154   7.880
16638WAT     H150156   3.280   9.080   7.850
16638WAT     H250157   3.262   9.242   7.859
16639WAT      O50158   7.917   0.441   4.804
16639WAT     H150159   7.904   0.388   4.720
16639WAT     H250160   7.830   0.448   4.853
16640WAT      O50161   5.694   7.116   6.903
16640WAT     H150162   5.731   7.087   6.815
16640WAT     H250163   5.769   7.123   6.969
16641WAT      O50164   6.795   6.687   9.092
16641WAT     H150165   6.856   6.651   9.163
16641WAT     H250166   6.742   6.613   9.052
16642WAT      O50167   3.316   4.828   8.835
16642WAT     H150168   3.401   4.876   8.817
16642WAT     H250169   3.257   4.834   8.754
16643WAT      O50170   3.019   9.107   0.238
16643WAT     H150171   3.089   9.064   0.182
16643WAT     H250172   3.047   9.106   0.334
16644WAT      O50173   6.947   3.360   6.633
16644WAT     H150174   7.026   3.422   6.635
16644WAT     H250175   6.977   3.267   6.654
16645WAT      O50176   6.859   7.730   3.115
16645WAT     H150177   6.787   7.751   3.050
16645WAT     H250178   6.913   7.811   3.133
16646WAT      O50179   7.253   7.754   6.446
16646WAT     H150180   7.319   7.808   6.394
16646WAT     H250181   7.164   7.757   6.400
16647WAT      O50182   2.581   7.034   8.754
16647WAT     H150183   2.493   7.062   8.716
16647WAT     H250184   2.635   7.115   8.777
16648WAT      O50185   2.940   3.137   7.919
16648WAT     H150186   2.962   3.220   7.971
16648WAT     H250187   2.889   3.162   7.837
16649WAT      O50188   3.656   0.653   5.043
16649WAT     H150189   3.736   0.608   5.004
16649WAT     H250190   3.672   0.751   5.047
16650WAT      O50191   4.575   5.091   6.937
16650WAT     H150192   4.575   5.116   7.034
16650WAT     H250193   4.528   5.004   6.925
16651WAT      O50194   5.355   1.743   3.038
16651WAT     H150195   5.362   1.682   3.117
16651WAT     H250196   5.431   1.724   2.975
16652WAT      O50197   0.756   5.408   8.535
16652WAT     H150198   0.665   5.422   8.495
16652WAT     H250199   0.765   5.313   8.564
16653WAT      O50200   7.120   5.267   5.646
16653WAT     H150201   7.191   5.219   5.698
16653WAT     H250202   7.136   5.252   5.548
16654WAT      O50203   0.554   3.201   1.695
16654WAT     H150204   0.541   3.116   1.747
16654WAT     H250205   0.472   3.220   1.641
16655WAT      O50206   9.157   8.698   0.107
16655WAT     H150207   9.137   8.633   0.034
16655WAT     H250208   9.089   8.771   0.105
16656WAT      O50209   0.357   2.187   9.479
16656WAT     H150210   0.358   2.134   9.394
16656WAT     H250211   0.449   2.186   9.520
16657WAT      O50212   8.813   7.982   4.041
16657WAT     H150213   8.874   8.002   3.964
16657WAT     H250214   8.849   7.905   4.093
16658WAT      O50215   8.669   4.459   0.550
16658WAT     H150216   8.738   4.389   0.535
16658WAT     H250217   8.675   4.493   0.644
16659WAT      O50218   4.076   3.605   7.700
16659WAT     H150219   3.977   3.596   7.697
16659WAT     H250220   4.116   3.568   7.617
16660WAT      O50221   4.901   8.061   8.619
16660WAT     H150222   4.917   8.007   8.701
16660WAT     H250223   4.936   8.012   8.539
16661WAT      O50224   4.315   0.298   5.211
16661WAT     H150225   4.287   0.355   5.288
16661WAT     H250226   4.256   0.316   5.133
16662WAT      O50227   1.763   6.325   9.765
16662WAT     H150228   1.807   6.328   9.855
16662WAT     H250229   1.714   6.239   9.754
16663WAT      O50230   0.262   1.895   3.566
16663WAT     H150231   0.241   1.817   3.625
16663WAT     H250232   0.328   1.955   3.612
16664WAT      O50233   2.056   0.420   8.216
16664WAT     H150234   2.037   0.469   8.301
16664WAT     H250235   2.146   0.447   8.181
16665WAT      O50236   0.923   5.620   9.396
16665WAT     H150237   0.832   5.657   9.378
16665WAT     H250238   0.971   5.606   9.310
16666WAT      O50239   9.364   4.306   9.177
16666WAT     H150240   9.335   4.363   9.100
16666WAT     H250241   9.406   4.222   9.143
16667WAT      O50242   2.586   3.362   8.072
16667WAT     H150243   2.523   3.290   8.043
16667WAT     H250244   2.651   3.325   8.137
16668WAT      O50245   9.471   6.756   7.807
16668WAT     H150246   9.450   6.658   7.806
16668WAT     H250247   9.390   6.808   7.783
16669WAT      O50248   9.249   8.587   5.272
16669WAT     H150249   9.201   8.589   5.184
16669WAT     H250250   9.183   8.572   5.346
16670WAT      O50251   9.053   0.086   9.448
16670WAT     H150252   9.053   0.003   9.504
16670WAT     H250253   9.141   0.132   9.457
16671WAT      O50254   1.830   6.903   3.652
16671WAT     H150255   1.849   6.922   3.748
16671WAT     H250256   1.899   6.840   3.616
16672WAT      O50257   2.089   1.593   1.995
16672WAT     H150258   2.067   1.600   1.898
16672WAT     H250259   2.092   1.497   2.022
16673WAT      O50260   0.231   1.458   3.319
16673WAT     H150261   0.237   1.415   3.410
16673WAT     H250262   0.206   1.554   3.329
16674WAT      O50263   6.064   2.274   2.199
16674WAT     H150264   6.056   2.189   2.250
16674WAT     H250265   6.044   2.257   2.102
16675WAT      O50266   7.266   3.092   5.188
16675WAT     H150267   7.306   3.147   5.115
16675WAT     H250268   7.167   3.105   5.190
16676WAT      O50269   0.685   2.813   0.904
16676WAT     H150270   0.588   2.810   0.931
16676WAT     H250271   0.708   2.906   0.875
16677WAT      O50272   9.562   0.805   9.202
16677WAT     H150273   9.588   0.900   9.186
16677WAT     H250274   9.504   0.774   9.126
16678WAT      O50275   3.820   4.227   4.683
16678WAT     H150276   3.750   4.169   4.642
16678WAT     H250277   3.868   4.278   4.611
16679WAT      O50278   3.345   0.234   4.289
16679WAT     H150279   3.322   0.187   4.204
16679WAT     H250280   3.437   0.209   4.317
16680WAT      O50281   5.511   1.530   2.270
16680WAT     H150282   5.470   1.582   2.195
16680WAT     H250283   5.590   1.480   2.236
16681WAT      O50284   3.636   1.834   1.866
16681WAT     H150285   3.667   1.926   1.839
16681WAT     H250286   3.663   1.817   1.961
16682WAT      O50287   5.183   8.854   4.579
16682WAT     H150288   5.159   8.938   4.530
16682WAT     H250289   5.282   8.842   4.579
16683WAT      O50290   8.964   5.162   2.306
16683WAT     H150291   9.041   5.224   2.288
16683WAT     H250292   8.990   5.069   2.280
16684WAT      O50293   2.944   0.410   8.806
16684WAT     H150294   2.854   0.450   8.829
16684WAT     H250295   2.943   0.379   8.711
16685WAT      O50296   7.102   7.799   2.854
16685WAT     H150297   7.087   7.780   2.757
16685WAT     H250298   7.050   7.734   2.909
16686WAT      O50299   6.790   0.684   6.156
16686WAT     H150300   6.761   0.611   6.094
16686WAT     H250301   6.714   0.708   6.217
16687WAT      O50302   0.285   9.697   5.555
16687WAT     H150303   0.225   9.714   5.477
16687WAT     H250304   0.366   9.647   5.523
16688WAT      O50305   1.258   2.768   6.293
16688WAT     H150306   1.247   2.670   6.308
16688WAT     H250307   1.169   2.813   6.293
16689WAT      O50308   5.836   5.775   8.657
16689WAT     H150309   5.822   5.676   8.652
16689WAT     H250310   5.761   5.816   8.709
16690WAT      O50311   3.987   0.984   3.316
16690WAT     H150312   4.037   1.070   3.301
16690WAT     H250313   3.914   0.999   3.383
16691WAT      O50314   4.394   8.449   9.280
16691WAT     H150315   4.323   8.500   9.232
16691WAT     H250316   4.351   8.389   9.349
16692WAT      O50317   8.048   5.462   6.135
16692WAT     H150318   7.956   5.456   6.097
16692WAT     H250319   8.077   5.372   6.167
16693WAT      O50320   6.445   1.959   9.108
16693WAT     H150321   6.451   2.018   9.028
16693WAT     H250322   6.482   1.868   9.087
16694WAT      O50323   0.023   0.615   2.382
16694WAT     H150324   0.071   0.675   2.447
16694WAT     H250325   0.047   0.641   2.288
16695WAT      O50326   1.569   2.448   8.157
16695WAT     H150327   1.579   2.409   8.248
16695WAT     H250328   1.477   2.429   8.123
16696WAT      O50329   8.319   6.868   4.274
16696WAT     H150330   8.388   6.903   4.211
16696WAT     H250331   8.294   6.775   4.247
16697WAT      O50332   4.057   7.294   9.786
16697WAT     H150333   3.979   7.356   9.796
16697WAT     H250334   4.028   7.201   9.804
16698WAT      O50335   8.694   2.957   5.348
16698WAT     H150336   8.774   2.900   5.367
16698WAT     H250337   8.615   2.900   5.329
16699WAT      O50338   8.135   3.877   5.702
16699WAT     H150339   8.090   3.904   5.617
16699WAT     H250340   8.179   3.957   5.743
16700WAT      O50341   2.948   1.310   6.315
16700WAT     H150342   2.999   1.327   6.399
16700WAT     H250343   2.918   1.397   6.276
16701WAT      O50344   4.445   4.502   2.876
16701WAT     H150345   4.521   4.482   2.938
16701WAT     H250346   4.362   4.458   2.909
16702WAT      O50347   2.146   5.497   5.812
16702WAT     H150348   2.138   5.519   5.715
16702WAT     H250349   2.056   5.502   5.854
16703WAT      O50350   7.253   3.567   3.010
16703WAT     H150351   7.243   3.599   2.916
16703WAT     H250352   7.294   3.638   3.066
16704WAT      O50353   2.028   0.274   0.566
16704WAT     H150354   2.024   0.365   0.524
16704WAT     H250355   2.111   0.266   0.621
16705WAT      O50356   3.925   7.236   5.445
16705WAT     H150357   4.022   7.259   5.449
16705WAT     H250358   3.874   7.293   5.509
16706WAT      O50359   3.970   4.047   5.695
16706WAT     H150360   4.030   4.112   5.742
16706WAT     H250361   4.022   3.996   5.627
16707WAT      O50362   5.648   7.025   9.111
16707WAT     H150363   5.732   7.079   9.117
16707WAT     H250364   5.602   7.044   9.024
16708WAT      O50365   4.085   3.651   5.896
16708WAT     H150366   4.109   3.559   5.865
16708WAT     H250367   4.160   3.714   5.873
16709WAT      O50368   1.677   0.190   1.186
16709WAT     H150369   1.671   0.091   1.172
16709WAT     H250370   1.678   0.210   1.284
16710WAT      O50371   9.105   1.747   0.472
16710WAT     H150372   9.118   1.796   0.386
16710WAT     H250373   9.116   1.649   0.455
16711WAT      O50374   1.395   1.126   2.796
16711WAT     H150375   1.469   1.101   2.734
16711WAT     H250376   1.348   1.208   2.761
16712WAT      O50377   1.929   2.866   4.631
16712WAT     H150378   1.904   2.770   4.642
16712WAT     H250379   1.985   2.895   4.708
16713WAT      O50380   6.678   5.136   1.153
16713WAT     H150381   6.608   5.162   1.220
16713WAT     H250382   6.705   5.041   1.169
16714WAT      O50383   5.247   5.323   2.432
16714WAT     H150384   5.306   5.372   2.368
16714WAT     H250385   5.279   5.228   2.441
16715WAT      O50386   1.856   9.644   4.607
16715WAT     H150387   1.877   9.699   4.526
16715WAT     H250388   1.935   9.643   4.668
16716WAT      O50389   9.466   6.697   9.154
16716WAT     H150390   9.534   6.709   9.082
16716WAT     H250391   9.418   6.784   9.170
16717WAT      O50392   9.771   7.455   1.839
16717WAT     H150393   9.674   7.441   1.817
16717WAT     H250394   9.806   7.375   1.887
16718WAT      O50395   3.782   9.242   0.005
16718WAT     H150396   3.696   9.235   0.054
16718WAT     H250397   3.836   9.318   0.042
16719WAT      O50398   8.910   3.705   5.776
16719WAT     H150399   8.860   3.635   5.725
16719WAT     H250400   9.003   3.674   5.794
16720WAT      O50401   0.680   0.947   2.959
16720WAT     H150402   0.603   0.979   3.016
16720WAT     H250403   0.761   0.936   3.017
16721WAT      O50404   0.159   9.184   1.602
16721WAT     H150405   0.152   9.280   1.629
16721WAT     H250406   0.085   9.132   1.643
16722WAT      O50407   3.473   6.353   3.874
16722WAT     H150408   3.437   6.280   3.815
16722WAT     H250409   3.401   6.384   3.936
16723WAT      O50410   1.631   0.210   2.796
16723WAT     H150411   1.557   0.145   2.813
16723WAT     H250412   1.606   0.300   2.831
16724WAT      O50413   0.521   4.787   5.617
16724WAT     H150414   0.600   4.725   5.616
16724WAT     H250415   0.553   4.881   5.609
16725WAT      O50416   7.967   2.892   8.695
16725WAT     H150417   7.882   2.858   8.652
16725WAT     H250418   7.952   2.904   8.793
16726WAT      O50419   8.293   1.694   0.672
16726WAT     H150420   8.218   1.737   0.622
16726WAT     H250421   8.271   1.599   0.692
16727WAT      O50422   1.301   0.264   3.857
16727WAT     H150423   1.395   0.296   3.863
16727WAT     H250424   1.289   0.183   3.914
16728WAT      O50425   0.114   5.600   0.588
16728WAT     H150426   0.165   5.603   0.502
16728WAT     H250427   0.039   5.534   0.580
16729WAT      O50428   6.841   0.825   6.513
16729WAT     H150429   6.761   0.850   6.567
16729WAT     H250430   6.851   0.889   6.436
16730WAT      O50431   1.624   6.393   6.435
16730WAT     H150432   1.591   6.474   6.484
16730WAT     H250433   1.551   6.355   6.379
16731WAT      O50434   7.357   3.281   0.509
16731WAT     H150435   7.436   3.265   0.449
16731WAT     H250436   7.299   3.352   0.469
16732WAT      O50437   3.310   5.927   2.592
16732WAT     H150438   3.376   6.001   2.595
16732WAT     H250439   3.338   5.860   2.523
16733WAT      O50440   9.526   7.454   1.721
16733WAT     H150441   9.531   7.375   1.661
16733WAT     H250442   9.448   7.511   1.695
16734WAT      O50443   1.208   0.762   4.459
16734WAT     H150444   1.301   0.747   4.427
16734WAT     H250445   1.148   0.691   4.422
16735WAT      O50446   6.509   7.651   7.104
16735WAT     H150447   6.600   7.669   7.068
16735WAT     H250448   6.478   7.561   7.072
16736WAT      O50449   6.111   7.606   7.337
16736WAT     H150450   6.172   7.685   7.343
16736WAT     H250451   6.159   7.530   7.294
16737WAT      O50452   5.086   6.060   2.838
16737WAT     H150453   5.013   6.101   2.894
16737WAT     H250454   5.074   5.961   2.835
16738WAT      O50455   3.305   2.565   1.824
16738WAT     H150456   3.229   2.624   1.850
16738WAT     H250457   3.364   2.613   1.759
16739WAT      O50458   9.524   2.620   7.352
16739WAT     H150459   9.451   2.680   7.319
16739WAT     H250460   9.588   2.674   7.407
16740WAT      O50461   8.518   2.138   7.129
16740WAT     H150462   8.438   2.169   7.181
16740WAT     H250463   8.588   2.105   7.193
16741WAT      O50464   3.634   7.688   6.237
16741WAT     H150465   3.720   7.664   6.283
16741WAT     H250466   3.557   7.659   6.294
16742WAT      O50467   3.087   1.745   6.383
16742WAT     H150468   3.128   1.824   6.338
16742WAT     H250469   3.120   1.661   6.341
16743WAT      O50470   7.484   0.905   5.393
16743WAT     H150471   7.417   0.850   5.444
16743WAT     H250472   7.447   0.996   5.378
16744WAT      O50473   6.532   6.712   6.943
16744WAT     H150474   6.483   6.778   7.000
16744WAT     H250475   6.466   6.651   6.898
16745WAT      O50476   3.302   5.640   1.001
16745WAT     H150477   3.329   5.643   0.905
16745WAT     H250478   3.382   5.659   1.059
16746WAT      O50479   0.702   4.346   3.403
16746WAT     H150480   0.657   4.263   3.369
16746WAT     H250481   0.760   4.322   3.481
16747WAT      O50482   6.075   4.755   6.446
16747WAT     H150483   6.092   4.830   6.382
16747WAT     H250484   5.993   4.705   6.418
16748WAT      O50485   6.798   3.075   5.021
16748WAT     H150486   6.725   3.111   4.964
16748WAT     H250487   6.758   3.026   5.099
16749WAT      O50488   1.345   9.658   6.186
16749WAT     H150489   1.412   9.709   6.240
16749WAT     H250490   1.318   9.575   6.234
16750WAT      O50491   7.092   9.064   8.465
16750WAT     H150492   7.044   9.152   8.463
16750WAT     H250493   7.187   9.078   8.490
16751WAT      O50494   4.933   8.345   5.731
16751WAT     H150495   4.857   8.406   5.709
16751WAT     H250496   5.007   8.358   5.665
16752WAT      O50497   4.156   2.933   8.077
16752WAT     H150498   4.149   2.835   8.099
16752WAT     H250499   4.196   2.981   8.155
16753WAT      O50500   1.097   2.979   7.762
16753WAT     H150501   1.155   3.057   7.785
16753WAT     H250502   1.149   2.914   7.708
16754WAT      O50503   0.179   5.953   4.478
16754WAT     H150504   0.102   5.912   4.527
16754WAT     H250505   0.147   5.988   4.390
16755WAT      O50506   8.730   2.416   7.583
16755WAT     H150507   8.661   2.485   7.607
16755WAT     H250508   8.821   2.458   7.584
16756WAT      O50509   8.209   3.753   3.998
16756WAT     H150510   8.173   3.749   3.905
16756WAT     H250511   8.203   3.846   4.032
16757WAT      O50512   8.897   6.071   3.478
16757WAT     H150513   8.818   6.118   3.438
16757WAT     H250514   8.866   6.013   3.554
16758WAT      O50515   5.224   3.078   9.668
16758WAT     H150516   5.147   3.072   9.604
16758WAT     H250517   5.307   3.043   9.624
16759WAT      O50518   0.865   9.534   3.355
16759WAT     H150519   0.820   9.557   3.441
16759WAT     H250520   0.894   9.618   3.309
16760WAT      O50521   4.916   6.027   4.873
16760WAT     H150522   4.910   6.124   4.896
16760WAT     H250523   4.847   5.976   4.925
16761WAT      O50524   6.028   8.447   7.819
16761WAT     H150525   5.975   8.478   7.897
16761WAT     H250526   5.967   8.404   7.752
16762WAT      O50527   6.310   6.566   8.513
16762WAT     H150528   6.344   6.521   8.431
16762WAT     H250529   6.291   6.662   8.494
16763WAT      O50530   4.160   2.653   0.335
16763WAT     H150531   4.181   2.557   0.350
16763WAT     H250532   4.097   2.663   0.259
16764WAT      O50533   9.745   7.701   1.669
16764WAT     H150534   9.658   7.699   1.719
16764WAT     H250535   9.760   7.611   1.627
16765WAT      O50536   1.336   6.813   4.899
16765WAT     H150537   1.419   6.867   4.879
16765WAT     H250538   1.342   6.725   4.853
16766WAT      O50539   6.021   2.313   0.957
16766WAT     H150540   6.019   2.322   0.857
16766WAT     H250541   5.928   2.303   0.992
16767WAT      O50542   7.403   8.024   2.429
16767WAT     H150543   7.332   8.065   2.372
16767WAT     H250544   7.373   8.025   2.525
16768WAT      O50545   9.116   7.136   2.380
16768WAT     H150546   9.140   7.131   2.477
16768WAT     H250547   9.073   7.224   2.361
16769WAT      O50548   2.132   1.808   0.856
16769WAT     H150549   2.193   1.828   0.780
16769WAT     H250550   2.160   1.722   0.899
16770WAT      O50551   0.381   2.998   3.718
16770WAT     H150552   0.418   3.044   3.799
16770WAT     H250553   0.359   2.903   3.741
16771WAT      O50554   1.635   7.022   5.447
16771WAT     H150555   1.617   6.956   5.521
16771WAT     H250556   1.559   7.022   5.383
16772WAT      O50557   1.708   7.740   9.710
16772WAT     H150558   1.759   7.728   9.796
16772WAT     H250559   1.611   7.746   9.730
16773WAT      O50560   1.556   2.488   8.920
16773WAT     H150561   1.606   2.405   8.946
16773WAT     H250562   1.615   2.567   8.932
16774WAT      O50563   6.138   0.476   0.734
16774WAT     H150564   6.205   0.405   0.711
16774WAT     H250565   6.151   0.504   0.829
16775WAT      O50566   0.912   6.906   2.427
16775WAT     H150567   0.893   6.871   2.335
16775WAT     H250568   1.006   6.938   2.431
16776WAT      O50569   6.325   2.530   3.160
16776WAT     H150570   6.280   2.619   3.175
16776WAT     H250571   6.417   2.533   3.198
16777WAT      O50572   4.414   0.428   0.654
16777WAT     H150573   4.421   0.359   0.583
16777WAT     H250574   4.432   0.387   0.743
16778WAT      O50575   8.314   6.153   4.164
16778WAT     H150576   8.305   6.065   4.210
16778WAT     H250577   8.293   6.226   4.230
16779WAT      O50578   5.082   1.538   6.789
16779WAT     H150579   5.019   1.591   6.732
16779WAT     H250580   5.038   1.452   6.817
16780WAT      O50581   3.190   3.885   0.705
16780WAT     H150582   3.149   3.949   0.641
16780WAT     H250583   3.195   3.794   0.663
16781WAT      O50584   6.621   9.046   2.335
16781WAT     H150585   6.533   9.044   2.287
16781WAT     H250586   6.689   8.994   2.283
16782WAT      O50587   6.722   5.307   2.054
16782WAT     H150588   6.774   5.232   2.095
16782WAT     H250589   6.627   5.302   2.085
16783WAT      O50590   3.457   4.491   2.441
16783WAT     H150591   3.525   4.493   2.368
16783WAT     H250592   3.383   4.556   2.421
16784WAT      O50593   9.599   5.451   7.055
16784WAT     H150594   9.583   5.539   7.099
16784WAT     H250595   9.538   5.442   6.976
16785WAT      O50596   2.469   8.796   6.480
16785WAT     H150597   2.507   8.778   6.389
16785WAT     H250598   2.533   8.853   6.532
16786WAT      O50599   0.780   7.921   7.148
16786WAT     H150600   0.839   7.970   7.213
16786WAT     H250601   0.813   7.937   7.055
16787WAT      O50602   8.109   2.962   5.617
16787WAT     H150603   8.011   2.973   5.638
16787WAT     H250604   8.163   3.019   5.679
16788WAT      O50605   6.442   4.067   9.815
16788WAT     H150606   6.398   3.978   9.807
16788WAT     H250607   6.380   4.138   9.780
16789WAT      O50608   8.802   8.797   0.513
16789WAT     H150609   8.788   8.698   0.512
16789WAT     H250610   8.895   8.818   0.483
16790WAT      O50611   6.477   5.510   7.613
16790WAT     H150612   6.400   5.538   7.670
16790WAT     H250613   6.532   5.589   7.589
16791WAT      O50614   4.060   1.696   8.599
16791WAT     H150615   4.150   1.663   8.625
16791WAT     H250616   4.064   1.794   8.582
16792WAT      O50617   2.636   3.421   4.135
16792WAT     H150618   2.631   3.414   4.036
16792WAT     H250619   2.667   3.512   4.161
16793WAT      O50620   2.473   9.076   5.517
16793WAT     H150621   2.423   8.996   5.550
16793WAT     H250622   2.565   9.048   5.489
16794WAT      O50623   2.210   7.451   2.103
16794WAT     H150624   2.204   7.387   2.027
16794WAT     H250625   2.245   7.404   2.184
16795WAT      O50626   3.075   7.679   0.743
16795WAT     H150627   3.013   7.633   0.807
16795WAT     H250628   3.162   7.698   0.789
16796WAT      O50629   9.047   8.605   0.356
16796WAT     H150630   9.043   8.651   0.267
16796WAT     H250631   8.991   8.523   0.353
16797WAT      O50632   3.496   5.121   4.302
16797WAT     H150633   3.523   5.153   4.392
16797WAT     H250634   3.444   5.193   4.255
16798WAT      O50635   0.640   7.315   0.751
16798WAT     H150636   0.665   7.218   0.757
16798WAT     H250637   0.541   7.323   0.751
16799WAT      O50638   5.795   7.318   9.642
16799WAT     H150639   5.766   7.414   9.648
16799WAT     H250640   5.794   7.278   9.734
16800WAT      O50641   1.717   9.222   4.547
16800WAT     H150642   1.662   9.252   4.469
16800WAT     H250643   1.802   9.181   4.513
16801WAT      O50644   1.769   3.014   2.433
16801WAT     H150645   1.859   3.024   2.475
16801WAT     H250646   1.744   2.917   2.429
16802WAT      O50647   5.979   2.329   1.226
16802WAT     H150648   5.923   2.270   1.285
16802WAT     H250649   6.042   2.272   1.173
16803WAT      O50650   5.040   8.981   2.842
16803WAT     H150651   4.943   8.959   2.855
16803WAT     H250652   5.087   8.977   2.930
16804WAT      O50653   2.199   0.030   4.479
16804WAT     H150654   2.236   0.036   4.572
16804WAT     H250655   2.267  -0.014   4.420
16805WAT      O50656   6.950   4.135   8.987
16805WAT     H150657   6.873   4.198   8.999
16805WAT     H250658   7.033   4.188   8.968
16806WAT      O50659   9.132   7.855   0.533
16806WAT     H150660   9.166   7.762   0.549
16806WAT     H250661   9.172   7.916   0.601
16807WAT      O50662   1.735   3.597   0.448
16807WAT     H150663   1.651   3.597   0.395
16807WAT     H250664   1.762   3.691   0.467
16808WAT      O50665   5.092   1.919   6.769
16808WAT     H150666   5.174   1.937   6.823
16808WAT     H250667   5.019   1.883   6.828
16809WAT      O50668   4.907   9.262   7.420
16809WAT     H150669   4.975   9.189   7.413
16809WAT     H250670   4.928   9.334   7.354
16810WAT      O50671   8.880   6.320   9.073
16810WAT     H150672   8.914   6.269   9.152
16810WAT     H250673   8.889   6.418   9.091
16811WAT      O50674   1.108   9.515   5.291
16811WAT     H150675   1.079   9.507   5.386
16811WAT     H250676   1.204   9.542   5.288
16812WAT      O50677   4.841   3.787   7.876
16812WAT     H150678   4.887   3.845   7.942
16812WAT     H250679   4.893   3.786   7.790
16813WAT      O50680   3.121   7.376   7.604
16813WAT     H150681   3.123   7.296   7.663
16813WAT     H250682   3.087   7.455   7.655
16814WAT      O50683   5.422   5.031   8.322
16814WAT     H150684   5.451   5.117   8.364
16814WAT     H250685   5.413   4.961   8.393
16815WAT      O50686   3.136   3.296   6.869
16815WAT     H150687   3.085   3.251   6.943
16815WAT     H250688   3.138   3.395   6.886
16816WAT      O50689   6.743   5.169   3.268
16816WAT     H150690   6.783   5.260   3.258
16816WAT     H250691   6.693   5.165   3.355
16817WAT      O50692   8.768   3.503   9.030
16817WAT     H150693   8.823   3.555   9.096
16817WAT     H250694   8.691   3.461   9.078
16818WAT      O50695   2.274   0.526   6.368
16818WAT     H150696   2.236   0.541   6.277
16818WAT     H250697   2.233   0.590   6.433
16819WAT      O50698   3.587   9.715   2.498
16819WAT     H150699   3.541   9.685   2.582
16819WAT     H250700   3.682   9.738   2.518
16820WAT      O50701   9.772   7.759   1.137
16820WAT     H150702   9.715   7.704   1.197
16820WAT     H250703   9.861   7.774   1.180
16821WAT      O50704   6.587   8.947   7.387
16821WAT     H150705   6.553   8.870   7.441
16821WAT     H250706   6.617   8.914   7.297
16822WAT      O50707   7.514   9.619   2.872
16822WAT     H150708   7.576   9.696   2.885
16822WAT     H250709   7.548   9.560   2.798
16823WAT      O50710   0.372   7.820   7.703
16823WAT     H150711   0.370   7.736   7.757
16823WAT     H250712   0.282   7.864   7.707
16824WAT      O50713   3.335   3.770   2.387
16824WAT     H150714   3.265   3.818   2.439
16824WAT     H250715   3.419   3.824   2.386
16825WAT      O50716   8.601   5.727   0.042
16825WAT     H150717   8.699   5.747   0.036
16825WAT     H250718   8.576   5.717   0.138
16826WAT      O50719   4.963   8.045   7.960
16826WAT     H150720   4.956   7.955   8.002
16826WAT     H250721   5.000   8.110   8.026
16827WAT      O50722   3.105   5.906   0.001
16827WAT     H150723   3.029   5.842   0.011
16827WAT     H250724   3.181   5.877   0.059
16828WAT      O50725   5.116   3.797   8.268
16828WAT     H150726   5.174   3.873   8.297
16828WAT     H250727   5.166   3.711   8.280
16829WAT      O50728   2.116   7.253   8.099
16829WAT     H150729   2.134   7.337   8.049
16829WAT     H250730   2.031   7.261   8.150
16830WAT      O50731   9.638   5.393   0.787
16830WAT     H150732   9.548   5.396   0.743
16830WAT     H250733   9.642   5.461   0.861
16831WAT      O50734   1.173   0.164   9.755
16831WAT     H150735   1.249   0.100   9.758
16831WAT     H250736   1.207   0.257   9.743
16832WAT      O50737   0.065   5.593   6.618
16832WAT     H150738   0.093   5.525   6.686
16832WAT     H250739   0.016   5.668   6.663
16833WAT      O50740   2.224   5.464   1.008
16833WAT     H150741   2.300   5.460   1.073
16833WAT     H250742   2.138   5.479   1.058
16834WAT      O50743   4.342   1.494   8.377
16834WAT     H150744   4.382   1.586   8.379
16834WAT     H250745   4.256   1.494   8.428
16835WAT      O50746   9.634   1.433   0.203
16835WAT     H150747   9.661   1.352   0.150
16835WAT     H250748   9.655   1.515   0.151
16836WAT      O50749   7.002   0.175   4.347
16836WAT     H150750   6.947   0.258   4.359
16836WAT     H250751   6.954   0.111   4.287
16837WAT      O50752   2.646   3.465   3.302
16837WAT     H150753   2.745   3.457   3.298
16837WAT     H250754   2.608   3.450   3.210
16838WAT      O50755   9.585   6.916   6.633
16838WAT     H150756   9.496   6.889   6.594
16838WAT     H250757   9.619   6.997   6.585
16839WAT      O50758   9.029   9.697   3.382
16839WAT     H150759   9.080   9.753   3.447
16839WAT     H250760   8.934   9.730   3.377
16840WAT      O50761   9.371   9.476   4.132
16840WAT     H150762   9.412   9.390   4.101
16840WAT     H250763   9.277   9.483   4.097
16841WAT      O50764   3.766   6.981   0.832
16841WAT     H150765   3.697   7.044   0.867
16841WAT     H250766   3.775   6.993   0.733
16842WAT      O50767   1.672   3.309   4.541
16842WAT     H150768   1.652   3.393   4.592
16842WAT     H250769   1.752   3.263   4.582
16843WAT      O50770   5.059   9.238   2.069
16843WAT     H150771   5.011   9.155   2.041
16843WAT     H250772   5.003   9.318   2.046
16844WAT      O50773   3.740   4.197   8.417
16844WAT     H150774   3.734   4.129   8.490
16844WAT     H250775   3.657   4.253   8.418
16845WAT      O50776   5.818   0.721   0.826
16845WAT     H150777   5.780   0.806   0.787
16845WAT     H250778   5.747   0.650   0.825
16846WAT      O50779   8.978   3.928   8.728
16846WAT     H150780   9.017   4.019   8.713
16846WAT     H250781   9.050   3.865   8.754
16847WAT      O50782   9.307   9.674   8.245
16847WAT     H150783   9.334   9.577   8.248
16847WAT     H250784   9.273   9.696   8.154
16848WAT      O50785   4.284   8.805   0.673
16848WAT     H150786   4.224   8.735   0.634
16848WAT     H250787   4.238   8.894   0.670
16849WAT      O50788   1.499   3.481   7.660
16849WAT     H150789   1.530   3.541   7.586
16849WAT     H250790   1.518   3.524   7.748
16850WAT      O50791   9.674   3.886   0.473
16850WAT     H150792   9.681   3.844   0.383
16850WAT     H250793   9.735   3.840   0.537
16851WAT      O50794   6.241   1.338   0.747
16851WAT     H150795   6.175   1.384   0.806
16851WAT     H250796   6.285   1.263   0.797
16852WAT      O50797   1.445   2.546   2.622
16852WAT     H150798   1.526   2.488   2.634
16852WAT     H250799   1.456   2.601   2.540
16853WAT      O50800   8.464   3.390   4.803
16853WAT     H150801   8.388   3.329   4.824
16853WAT     H250802   8.491   3.438   4.886
16854WAT      O50803   9.166   2.560   8.164
16854WAT     H150804   9.154   2.465   8.190
16854WAT     H250805   9.081   2.594   8.123
16855WAT      O50806   3.790   3.020   8.132
16855WAT     H150807   3.812   2.984   8.223
16855WAT     H250808   3.737   3.104   8.142
16856WAT      O50809   1.060   8.577   4.917
16856WAT     H150810   1.073   8.483   4.885
16856WAT     H250811   1.095   8.586   5.010
16857WAT      O50812   1.689   5.043   7.923
16857WAT     H150813   1.681   5.141   7.901
16857WAT     H250814   1.666   5.029   8.019
16858WAT      O50815   6.057   6.978   2.279
16858WAT     H150816   6.148   7.018   2.268
16858WAT     H250817   6.066   6.880   2.298
16859WAT      O50818   5.548   8.750   8.194
16859WAT     H150819   5.549   8.676   8.127
16859WAT     H250820   5.557   8.838   8.148
16860WAT      O50821   0.956   2.767   7.541
16860WAT     H150822   0.935   2.863   7.526
16860WAT     H250823   1.055   2.756   7.554
16861WAT      O50824   7.243   5.848   7.835
16861WAT     H150825   7.332   5.890   7.820
16861WAT     H250826   7.212   5.805   7.750
16862WAT      O50827   1.254   4.348   8.651
16862WAT     H150828   1.277   4.382   8.559
16862WAT     H250829   1.200   4.264   8.642
16863WAT      O50830   2.708   9.303   5.001
16863WAT     H150831   2.676   9.394   4.976
16863WAT     H250832   2.688   9.239   4.927
16864WAT      O50833   5.646   3.643   1.192
16864WAT     H150834   5.721   3.581   1.173
16864WAT     H250835   5.593   3.658   1.108
16865WAT      O50836   9.118   4.460   9.463
16865WAT     H150837   9.214   4.479   9.439
16865WAT     H250838   9.097   4.365   9.443
16866WAT      O50839   3.978   0.540   6.376
16866WAT     H150840   4.035   0.529   6.457
16866WAT     H250841   3.898   0.480   6.382
16867WAT      O50842   4.945   0.989   8.639
16867WAT     H150843   4.978   1.078   8.607
16867WAT     H250844   5.015   0.919   8.623
16868WAT      O50845   3.111   6.022   6.859
16868WAT     H150846   3.032   5.961   6.851
16868WAT     H250847   3.095   6.105   6.805
16869WAT      O50848   4.669   4.597   8.761
16869WAT     H150849   4.641   4.633   8.672
16869WAT     H250850   4.590   4.592   8.822
16870WAT      O50851   9.016   5.859   1.663
16870WAT     H150852   8.924   5.850   1.700
16870WAT     H250853   9.064   5.933   1.709
16871WAT      O50854   5.665   5.262   3.158
16871WAT     H150855   5.674   5.224   3.250
16871WAT     H250856   5.753   5.258   3.111
16872WAT      O50857   3.014   5.740   8.841
16872WAT     H150858   3.025   5.640   8.848
16872WAT     H250859   3.040   5.770   8.750
16873WAT      O50860   9.599   5.918   5.808
16873WAT     H150861   9.650   5.840   5.845
16873WAT     H250862   9.635   6.003   5.847
16874WAT      O50863   5.148   8.582   3.086
16874WAT     H150864   5.062   8.568   3.135
16874WAT     H250865   5.202   8.498   3.089
16875WAT      O50866   2.595   8.900   1.604
16875WAT     H150867   2.638   8.887   1.693
16875WAT     H250868   2.642   8.974   1.555
16876WAT      O50869   6.756   4.855   4.379
16876WAT     H150870   6.781   4.759   4.366
16876WAT     H250871   6.729   4.870   4.474
16877WAT      O50872   8.671   6.942   6.251
16877WAT     H150873   8.642   7.036   6.266
16877WAT     H250874   8.767   6.933   6.276
16878WAT      O50875   7.886   2.506   8.342
16878WAT     H150876   7.809   2.470   8.289
16878WAT     H250877   7.971   2.494   8.290
16879WAT      O50878   9.020   4.060   7.363
16879WAT     H150879   8.957   3.987   7.388
16879WAT     H250880   8.970   4.132   7.314
16880WAT      O50881   2.121   7.883   8.365
16880WAT     H150882   2.109   7.787   8.340
16880WAT     H250883   2.070   7.902   8.449
16881WAT      O50884   4.427   8.369   1.584
16881WAT     H150885   4.517   8.377   1.625
16881WAT     H250886   4.430   8.302   1.509
16882WAT      O50887   0.941   0.140   4.135
16882WAT     H150888   0.964   0.153   4.232
16882WAT     H250889   0.984   0.056   4.101
16883WAT      O50890   5.869   9.253   1.962
16883WAT     H150891   5.808   9.256   1.883
16883WAT     H250892   5.894   9.346   1.989
16884WAT      O50893   3.439   3.582   3.647
16884WAT     H150894   3.531   3.570   3.684
16884WAT     H250895   3.439   3.656   3.581
16885WAT      O50896   1.429   2.785   9.740
16885WAT     H150897   1.432   2.751   9.646
16885WAT     H250898   1.399   2.880   9.740
16886WAT      O50899   5.384   3.572   2.174
16886WAT     H150900   5.307   3.513   2.199
16886WAT     H250901   5.469   3.530   2.205
16887WAT      O50902   0.697   4.251   6.133
16887WAT     H150903   0.610   4.256   6.183
16887WAT     H250904   0.727   4.344   6.109
16888WAT      O50905   5.069   2.600   5.172
16888WAT     H150906   4.984   2.638   5.137
16888WAT     H250907   5.146   2.637   5.120
16889WAT      O50908   6.266   6.094   8.431
16889WAT     H150909   6.255   6.160   8.505
16889WAT     H250910   6.196   6.109   8.361
16890WAT      O50911   0.901   5.730   3.703
16890WAT     H150912   0.907   5.690   3.611
16890WAT     H250913   0.830   5.683   3.755
16891WAT      O50914   0.356   0.527   3.280
16891WAT     H150915   0.445   0.503   3.320
16891WAT     H250916   0.370   0.568   3.190
16892WAT      O50917   5.238   7.558   3.600
16892WAT     H150918   5.272   7.539   3.692
16892WAT     H250919   5.262   7.652   3.575
16893WAT      O50920   4.853   7.430   1.934
16893WAT     H150921   4.821   7.476   2.017
16893WAT     H250922   4.931   7.372   1.957
16894WAT      O50923   7.839   7.344   2.323
16894WAT     H150924   7.888   7.317   2.241
16894WAT     H250925   7.902   7.393   2.385
16895WAT      O50926   4.405   5.808   2.421
16895WAT     H150927   4.433   5.787   2.515
16895WAT     H250928   4.383   5.723   2.373
16896WAT      O50929   9.409   8.906   8.871
16896WAT     H150930   9.506   8.879   8.865
16896WAT     H250931   9.368   8.861   8.950
16897WAT      O50932   3.463   2.745   3.069
16897WAT     H150933   3.466   2.772   3.165
16897WAT     H250934   3.509   2.815   3.013
16898WAT      O50935   2.180   1.329   4.852
16898WAT     H150936   2.124   1.368   4.925
16898WAT     H250937   2.121   1.280   4.787
16899WAT      O50938   2.019   1.543   3.419
16899WAT     H150939   2.003   1.578   3.327
16899WAT     H250940   2.111   1.568   3.448
16900WAT      O50941   8.966   5.486   5.712
16900WAT     H150942   8.890   5.550   5.714
16900WAT     H250943   9.030   5.513   5.640
16901WAT      O50944   8.329   9.353   0.124
16901WAT     H150945   8.338   9.280   0.192
16901WAT     H250946   8.240   9.398   0.134
16902WAT      O50947   7.647   3.152   2.261
16902WAT     H150948   7.644   3.121   2.356
16902WAT     H250949   7.706   3.091   2.208
16903WAT      O50950   3.019   7.766   8.227
16903WAT     H150951   3.010   7.858   8.187
16903WAT     H250952   2.994   7.698   8.159
16904WAT      O50953   7.406   1.087   4.345
16904WAT     H150954   7.438   1.063   4.253
16904WAT     H250955   7.455   1.033   4.413
16905WAT      O50956   1.494   4.369   7.258
16905WAT     H150957   1.504   4.430   7.179
16905WAT     H250958   1.489   4.275   7.227
16906WAT      O50959   7.185   6.307   1.693
16906WAT     H150960   7.204   6.289   1.789
16906WAT     H250961   7.087   6.298   1.676
16907WAT      O50962   8.275   7.265   0.234
16907WAT     H150963   8.182   7.290   0.209
16907WAT     H250964   8.280   7.248   0.332
16908WAT      O50965   3.430   7.784   2.570
16908WAT     H150966   3.529   7.797   2.565
16908WAT     H250967   3.399   7.735   2.489
16909WAT      O50968   1.295   1.702   6.469
16909WAT     H150969   1.274   1.723   6.564
16909WAT     H250970   1.371   1.760   6.438
16910WAT      O50971   9.182   9.561   4.327
16910WAT     H150972   9.186   9.513   4.239
16910WAT     H250973   9.089   9.556   4.363
16911WAT      O50974   5.747   3.261   6.272
16911WAT     H150975   5.753   3.336   6.338
16911WAT     H250976   5.738   3.299   6.180
16912WAT      O50977   5.648   6.521   1.846
16912WAT     H150978   5.621   6.426   1.834
16912WAT     H250979   5.711   6.547   1.773
16913WAT      O50980   8.741   3.801   3.450
16913WAT     H150981   8.809   3.787   3.378
16913WAT     H250982   8.659   3.844   3.410
16914WAT      O50983   9.010   9.423   7.384
16914WAT     H150984   9.017   9.429   7.483
16914WAT     H250985   9.075   9.355   7.350
16915WAT      O50986   9.634   4.045   9.391
16915WAT     H150987   9.609   4.022   9.297
16915WAT     H250988   9.734   4.051   9.399
16916WAT      O50989   2.528   2.758   5.317
16916WAT     H150990   2.464   2.832   5.294
16916WAT     H250991   2.556   2.768   5.413
16917WAT      O50992   1.001   4.000   1.420
16917WAT     H150993   0.967   4.054   1.342
16917WAT     H250994   0.923   3.972   1.477
16918WAT      O50995   2.384   3.268   4.688
16918WAT     H150996   2.445   3.213   4.745
16918WAT     H250997   2.420   3.272   4.595
16919WAT      O50998   0.319   3.478   8.745
16919WAT     H150999   0.271   3.488   8.657
16919WAT     H251000   0.265   3.521   8.817
16920WAT      O51001   1.300   6.531   6.626
16920WAT     H151002   1.223   6.574   6.578
16920WAT     H251003   1.386   6.559   6.582
16921WAT      O51004   5.881   0.296   8.748
16921WAT     H151005   5.856   0.262   8.839
16921WAT     H251006   5.891   0.219   8.685
16922WAT      O51007   9.066   2.149   2.341
16922WAT     H151008   9.121   2.182   2.418
16922WAT     H251009   8.984   2.103   2.376
16923WAT      O51010   2.421   8.163   1.920
16923WAT     H151011   2.463   8.080   1.884
16923WAT     H251012   2.492   8.226   1.952
16924WAT      O51013   8.382   8.850   1.668
16924WAT     H151014   8.397   8.852   1.569
16924WAT     H251015   8.463   8.884   1.715
16925WAT      O51016   3.140   9.347   8.761
16925WAT     H151017   3.185   9.434   8.739
16925WAT     H251018   3.043   9.355   8.742
16926WAT      O51019   7.289   6.830   2.508
16926WAT     H151020   7.309   6.752   2.449
16926WAT     H251021   7.346   6.826   2.590
16927WAT      O51022   3.138   5.241   2.154
16927WAT     H151023   3.211   5.185   2.194
16927WAT     H251024   3.116   5.316   2.216
16928WAT      O51025   7.488   5.556   0.282
16928WAT     H151026   7.575   5.596   0.311
16928WAT     H251027   7.488   5.548   0.182
16929WAT      O51028   1.075   3.647   3.565
16929WAT     H151029   0.992   3.654   3.620
16929WAT     H251030   1.155   3.642   3.626
16930WAT      O51031   6.109   9.615   9.305
16930WAT     H151032   6.170   9.573   9.372
16930WAT     H251033   6.149   9.607   9.214
16931WAT      O51034   4.465   1.029   7.336
16931WAT     H151035   4.534   1.096   7.365
16931WAT     H251036   4.442   0.970   7.413
16932WAT      O51037   0.877   3.085   0.623
16932WAT     H151038   0.834   3.087   0.532
16932WAT     H251039   0.927   2.999   0.634
16933WAT      O51040   5.630   4.971   3.774
16933WAT     H151041   5.667   4.917   3.850
16933WAT     H251042   5.600   4.910   3.701
16934WAT      O51043   6.671   4.299   8.798
16934WAT     H151044   6.687   4.317   8.895
16934WAT     H251045   6.580   4.332   8.773
16935WAT      O51046   6.534   2.974   3.887
16935WAT     H151047   6.600   2.935   3.951
16935WAT     H251048   6.474   2.902   3.852
16936WAT      O51049   0.893   6.536   4.781
16936WAT     H151050   0.985   6.561   4.751
16936WAT     H251051   0.858   6.604   4.845
16937WAT      O51052   5.139   5.603   6.344
16937WAT     H151053   5.079   5.524   6.358
16937WAT     H251054   5.096   5.667   6.281
16938WAT      O51055   9.741   9.746   1.390
16938WAT     H151056   9.737   9.752   1.490
16938WAT     H251057   9.817   9.802   1.357
16939WAT      O51058   4.820   3.747   0.757
16939WAT     H151059   4.894   3.804   0.720
16939WAT     H251060   4.752   3.805   0.801
16940WAT      O51061   1.762   2.741   2.475
16940WAT     H151062   1.704   2.722   2.396
16940WAT     H251063   1.855   2.711   2.455
16941WAT      O51064   5.930   1.328   5.260
16941WAT     H151065   5.887   1.238   5.259
16941WAT     H251066   6.019   1.323   5.216
16942WAT      O51067   7.945   4.791   8.090
16942WAT     H151068   8.014   4.738   8.139
16942WAT     H251069   7.982   4.819   8.001
16943WAT      O51070   8.691   3.048   7.962
16943WAT     H151071   8.697   2.976   7.892
16943WAT     H251072   8.711   3.009   8.052
16944WAT      O51073   9.867   1.576   9.240
16944WAT     H151074   9.899   1.490   9.199
16944WAT     H251075   9.829   1.558   9.330
16945WAT      O51076   1.623   4.154   1.426
16945WAT     H151077   1.589   4.062   1.404
16945WAT     H251078   1.589   4.182   1.516
16946WAT      O51079   8.553   0.160   3.740
16946WAT     H151080   8.555   0.171   3.840
16946WAT     H251081   8.622   0.093   3.713
16947WAT      O51082   4.732   7.963   2.528
16947WAT     H151083   4.640   7.988   2.497
16947WAT     H251084   4.727   7.932   2.623
16948WAT      O51085   6.530   7.674   9.830
16948WAT     H151086   6.528   7.697   9.732
16948WAT     H251087   6.482   7.587   9.844
16949WAT      O51088   0.330   3.727   8.233
16949WAT     H151089   0.341   3.763   8.140
16949WAT     H251090   0.247   3.764   8.274
16950WAT      O51091   1.794   3.868   0.514
16950WAT     H151092   1.813   3.945   0.453
16950WAT     H251093   1.831   3.887   0.604
16951WAT      O51094   8.194   4.728   1.844
16951WAT     H151095   8.211   4.754   1.939
16951WAT     H251096   8.095   4.730   1.826
16952WAT      O51097   8.886   1.910   1.646
16952WAT     H151098   8.800   1.909   1.596
16952WAT     H251099   8.901   2.001   1.685
16953WAT      O51100   1.975   5.123   1.470
16953WAT     H151101   1.910   5.192   1.436
16953WAT     H251102   1.951   5.098   1.564
16954WAT      O51103   7.011   3.831   5.114
16954WAT     H151104   7.043   3.771   5.041
16954WAT     H251105   6.914   3.851   5.100
16955WAT      O51106   4.955   0.778   0.790
16955WAT     H151107   5.014   0.782   0.870
16955WAT     H251108   4.991   0.712   0.724
16956WAT      O51109   8.072   5.209   6.272
16956WAT     H151110   8.088   5.115   6.242
16956WAT     H251111   8.159   5.259   6.273
16957WAT      O51112   0.985   3.066   0.008
16957WAT     H151113   0.926   3.137   0.046
16957WAT     H251114   0.936   3.018  -0.065
16958WAT      O51115   2.598   1.458   9.104
16958WAT     H151116   2.630   1.536   9.051
16958WAT     H251117   2.531   1.407   9.051
16959WAT      O51118   2.378   1.900   8.362
16959WAT     H151119   2.371   1.805   8.391
16959WAT     H251120   2.324   1.914   8.280
16960WAT      O51121   5.965   4.878   3.471
16960WAT     H151122   5.977   4.824   3.554
16960WAT     H251123   5.982   4.975   3.491
16961WAT      O51124   1.742   4.480   4.339
16961WAT     H151125   1.766   4.506   4.433
16961WAT     H251126   1.767   4.554   4.277
16962WAT      O51127   7.747   3.899   6.792
16962WAT     H151128   7.789   3.855   6.872
16962WAT     H251129   7.748   3.998   6.805
16963WAT      O51130   1.944   3.141   0.424
16963WAT     H151131   1.985   3.075   0.361
16963WAT     H251132   2.008   3.217   0.439
16964WAT      O51133   0.208   9.361   2.127
16964WAT     H151134   0.256   9.278   2.100
16964WAT     H251135   0.209   9.369   2.227
16965WAT      O51136   6.457   3.671   8.390
16965WAT     H151137   6.426   3.626   8.474
16965WAT     H251138   6.440   3.612   8.312
16966WAT      O51139   0.042   6.533   4.327
16966WAT     H151140   0.059   6.475   4.407
16966WAT     H251141   0.122   6.531   4.267
16967WAT      O51142   1.585   5.564   1.849
16967WAT     H151143   1.682   5.576   1.868
16967WAT     H251144   1.558   5.470   1.872
16968WAT      O51145   7.840   8.379   4.899
16968WAT     H151146   7.827   8.280   4.906
16968WAT     H251147   7.938   8.400   4.901
16969WAT      O51148   7.055   7.950   2.372
16969WAT     H151149   7.093   8.034   2.412
16969WAT     H251150   6.957   7.962   2.356
16970WAT      O51151   9.399   3.224   0.697
16970WAT     H151152   9.415   3.266   0.608
16970WAT     H251153   9.485   3.188   0.733
16971WAT      O51154   2.883   6.553   5.615
16971WAT     H151155   2.923   6.461   5.614
16971WAT     H251156   2.957   6.621   5.615
16972WAT      O51157   0.440   2.400   8.365
16972WAT     H151158   0.540   2.400   8.365
16972WAT     H251159   0.407   2.414   8.458
16973WAT      O51160   5.411   6.315   3.235
16973WAT     H151161   5.395   6.389   3.300
16973WAT     H251162   5.449   6.236   3.283
16974WAT      O51163   4.083   5.731   6.848
16974WAT     H151164   4.017   5.706   6.919
16974WAT     H251165   4.069   5.673   6.768
16975WAT      O51166   2.374   6.998   4.255
16975WAT     H151167   2.294   6.941   4.236
16975WAT     H251168   2.345   7.089   4.286
16976WAT      O51169   4.825   6.056   0.513
16976WAT     H151170   4.890   6.132   0.509
16976WAT     H251171   4.867   5.975   0.472
16977WAT      O51172   8.902   4.501   4.164
16977WAT     H151173   8.896   4.600   4.154
16977WAT     H251174   8.952   4.463   4.086
16978WAT      O51175   0.737   6.969   6.500
16978WAT     H151176   0.756   7.012   6.412
16978WAT     H251177   0.665   7.021   6.547
16979WAT      O51178   4.277   0.370   0.052
16979WAT     H151179   4.303   0.456   0.096
16979WAT     H251180   4.218   0.317   0.113
16980WAT      O51181   6.182   5.892   6.134
16980WAT     H151182   6.172   5.956   6.058
16980WAT     H251183   6.118   5.816   6.122
16981WAT      O51184   5.743   3.478   4.336
16981WAT     H151185   5.710   3.531   4.258
16981WAT     H251186   5.830   3.515   4.367
16982WAT      O51187   9.193   2.967   0.150
16982WAT     H151188   9.161   2.909   0.225
16982WAT     H251189   9.233   3.051   0.188
16983WAT      O51190   2.712   5.117   1.837
16983WAT     H151191   2.776   5.192   1.824
16983WAT     H251192   2.628   5.136   1.786
16984WAT      O51193   0.284   5.933   3.989
16984WAT     H151194   0.258   6.030   3.998
16984WAT     H251195   0.218   5.877   4.039
16985WAT      O51196   0.104   2.464   4.287
16985WAT     H151197   0.089   2.456   4.385
16985WAT     H251198   0.017   2.481   4.241
16986WAT      O51199   2.034   3.044   3.909
16986WAT     H151200   2.102   3.110   3.940
16986WAT     H251201   2.022   2.973   3.979
16987WAT      O51202   2.938   4.927   8.121
16987WAT     H151203   2.887   4.910   8.037
16987WAT     H251204   2.907   4.863   8.192
16988WAT      O51205   3.177   6.095   9.722
16988WAT     H151206   3.208   6.171   9.780
16988WAT     H251207   3.132   6.027   9.779
16989WAT      O51208   8.416   7.728   3.540
16989WAT     H151209   8.415   7.628   3.530
16989WAT     H251210   8.466   7.752   3.623
16990WAT      O51211   6.408   1.985   2.637
16990WAT     H151212   6.385   1.888   2.632
16990WAT     H251213   6.495   1.997   2.684
16991WAT      O51214   5.748   0.926   1.240
16991WAT     H151215   5.842   0.958   1.226
16991WAT     H251216   5.708   0.901   1.151
16992WAT      O51217   9.111   4.816   9.241
16992WAT     H151218   9.078   4.721   9.235
16992WAT     H251219   9.153   4.830   9.331
16993WAT      O51220   6.259   7.000   9.888
16993WAT     H151221   6.211   6.915   9.867
16993WAT     H251222   6.194   7.076   9.885
16994WAT      O51223   1.160   0.807   7.880
16994WAT     H151224   1.218   0.776   7.955
16994WAT     H251225   1.193   0.768   7.794
16995WAT      O51226   1.010   5.451   8.234
16995WAT     H151227   1.082   5.504   8.279
16995WAT     H251228   1.020   5.354   8.258
16996WAT      O51229   9.214   2.819   1.592
16996WAT     H151230   9.135   2.806   1.652
16996WAT     H251231   9.184   2.857   1.504
16997WAT      O51232   7.285   3.115   7.045
16997WAT     H151233   7.358   3.073   7.099
16997WAT     H251234   7.196   3.081   7.077
16998WAT      O51235   0.163   3.534   4.859
16998WAT     H151236   0.120   3.601   4.920
16998WAT     H251237   0.202   3.581   4.780
16999WAT      O51238   2.892   4.657   3.840
16999WAT     H151239   2.860   4.740   3.885
16999WAT     H251240   2.927   4.593   3.909
17000WAT      O51241   7.726   9.307   4.865
17000WAT     H151242   7.726   9.356   4.778
17000WAT     H251243   7.646   9.334   4.919
17001WAT      O51244   0.164   2.272   6.468
17001WAT     H151245   0.245   2.327   6.486
17001WAT     H251246   0.098   2.284   6.542
17002WAT      O51247   3.589   5.322   0.320
17002WAT     H151248   3.635   5.237   0.345
17002WAT     H251249   3.616   5.349   0.228
17003WAT      O51250   4.364   5.750   6.907
17003WAT     H151251   4.387   5.653   6.910
17003WAT     H251252   4.266   5.761   6.892
17004WAT      O51253   7.131   1.432   9.683
17004WAT     H151254   7.163   1.341   9.658
17004WAT     H251255   7.120   1.488   9.601
17005WAT      O51256   7.255   4.004   2.176
17005WAT     H151257   7.279   4.093   2.214
17005WAT     H251258   7.185   3.961   2.233
17006WAT      O51259   4.957   2.037   9.438
17006WAT     H151260   4.982   2.107   9.504
17006WAT     H251261   4.913   1.961   9.486
17007WAT      O51262   5.799   9.745   2.340
17007WAT     H151263   5.843   9.754   2.430
17007WAT     H251264   5.701   9.726   2.353
17008WAT      O51265   1.110   5.866   0.073
17008WAT     H151266   1.118   5.767   0.088
17008WAT     H251267   1.061   5.883  -0.012
17009WAT      O51268   6.730   2.869   5.870
17009WAT     H151269   6.723   2.840   5.966
17009WAT     H251270   6.694   2.797   5.811
17010WAT      O51271   7.933   4.459   6.970
17010WAT     H151272   7.877   4.452   6.887
17010WAT     H251273   7.881   4.506   7.041
17011WAT      O51274   5.031   1.589   2.124
17011WAT     H151275   5.059   1.568   2.217
17011WAT     H251276   5.111   1.586   2.063
17012WAT      O51277   0.725   0.094   7.040
17012WAT     H151278   0.641   0.089   6.987
17012WAT     H251279   0.755   0.190   7.046
17013WAT      O51280   1.961   4.320   4.133
17013WAT     H151281   1.993   4.407   4.095
17013WAT     H251282   1.947   4.330   4.232
17014WAT      O51283   9.745   6.725   0.105
17014WAT     H151284   9.774   6.645   0.051
17014WAT     H251285   9.824   6.784   0.122
17015WAT      O51286   8.417   4.985   8.727
17015WAT     H151287   8.367   4.989   8.814
17015WAT     H251288   8.493   4.920   8.736
17016WAT      O51289   2.182   0.445   2.144
17016WAT     H151290   2.235   0.412   2.066
17016WAT     H251291   2.162   0.542   2.132
17017WAT      O51292   5.522   6.752   6.540
17017WAT     H151293   5.482   6.746   6.632
17017WAT     H251294   5.621   6.738   6.546
17018WAT      O51295   4.305   2.534   1.951
17018WAT     H151296   4.264   2.513   1.863
17018WAT     H251297   4.237   2.577   2.011
17019WAT      O51298   3.597   6.062   4.455
17019WAT     H151299   3.571   6.136   4.392
17019WAT     H251300   3.626   5.982   4.402
17020WAT      O51301   7.230   4.137   6.397
17020WAT     H151302   7.241   4.228   6.357
17020WAT     H251303   7.237   4.067   6.325
17021WAT      O51304   0.072   9.361   1.066
17021WAT     H151305   0.032   9.294   1.004
17021WAT     H251306   0.082   9.321   1.157
17022WAT      O51307   3.750   9.376   9.392
17022WAT     H151308   3.679   9.364   9.322
17022WAT     H251309   3.736   9.310   9.466
17023WAT      O51310   5.954   7.183   6.998
17023WAT     H151311   6.005   7.206   7.081
17023WAT     H251312   6.018   7.155   6.926
17024WAT      O51313   8.082   8.521   0.364
17024WAT     H151314   8.062   8.515   0.266
17024WAT     H251315   7.996   8.531   0.415
17025WAT      O51316   4.506   9.188   2.843
17025WAT     H151317   4.462   9.117   2.788
17025WAT     H251318   4.484   9.278   2.805
17026WAT      O51319   0.526   8.092   5.578
17026WAT     H151320   0.587   8.055   5.649
17026WAT     H251321   0.547   8.189   5.565
17027WAT      O51322   1.088   7.103   5.338
17027WAT     H151323   1.065   7.111   5.435
17027WAT     H251324   1.040   7.024   5.299
17028WAT      O51325   1.214   1.512   3.372
17028WAT     H151326   1.181   1.440   3.310
17028WAT     H251327   1.282   1.568   3.325
17029WAT      O51328   0.147   5.868   6.056
17029WAT     H151329   0.078   5.844   6.124
17029WAT     H251330   0.174   5.963   6.067
17030WAT      O51331   9.005   1.852   9.108
17030WAT     H151332   8.956   1.939   9.102
17030WAT     H251333   9.099   1.864   9.076
17031WAT      O51334   8.720   6.417   7.601
17031WAT     H151335   8.745   6.322   7.619
17031WAT     H251336   8.622   6.423   7.585
17032WAT      O51337   7.400   4.546   4.590
17032WAT     H151338   7.344   4.605   4.531
17032WAT     H251339   7.381   4.450   4.569
17033WAT      O51340   4.038   7.748   9.204
17033WAT     H151341   4.088   7.748   9.117
17033WAT     H251342   4.062   7.666   9.256
17034WAT      O51343   2.357   2.229   9.456
17034WAT     H151344   2.291   2.247   9.383
17034WAT     H251345   2.351   2.133   9.484
17035WAT      O51346   5.691   3.193   7.697
17035WAT     H151347   5.592   3.207   7.690
17035WAT     H251348   5.727   3.163   7.609
17036WAT      O51349   4.234   6.098   0.160
17036WAT     H151350   4.189   6.176   0.117
17036WAT     H251351   4.182   6.069   0.240
17037WAT      O51352   6.462   8.814   1.621
17037WAT     H151353   6.399   8.871   1.568
17037WAT     H251354   6.497   8.866   1.698
17038WAT      O51355   0.316   2.561   0.505
17038WAT     H151356   0.224   2.595   0.525
17038WAT     H251357   0.325   2.467   0.539
17039WAT      O51358   3.141   3.317   9.239
17039WAT     H151359   3.094   3.237   9.201
17039WAT     H251360   3.198   3.359   9.169
17040WAT      O51361   6.152   6.819   7.019
17040WAT     H151362   6.195   6.833   7.108
17040WAT     H251363   6.174   6.897   6.959
17041WAT      O51364   1.463   4.089   8.168
17041WAT     H151365   1.471   4.026   8.090
17041WAT     H251366   1.385   4.149   8.154
17042WAT      O51367   1.351   2.224   4.588
17042WAT     H151368   1.363   2.285   4.510
17042WAT     H251369   1.430   2.232   4.649
17043WAT      O51370   1.432   1.048   0.437
17043WAT     H151371   1.401   1.143   0.429
17043WAT     H251372   1.358   0.992   0.474
17044WAT      O51373   1.435   8.113   0.661
17044WAT     H151374   1.411   8.210   0.657
17044WAT     H251375   1.369   8.060   0.608
17045WAT      O51376   7.018   9.065   0.689
17045WAT     H151377   7.000   9.148   0.637
17045WAT     H251378   7.075   9.003   0.635
17046WAT      O51379   8.832   7.995   0.701
17046WAT     H151380   8.742   8.021   0.737
17046WAT     H251381   8.823   7.970   0.605
17047WAT      O51382   0.801   2.121   9.786
17047WAT     H151383   0.853   2.048   9.742
17047WAT     H251384   0.853   2.157   9.863
17048WAT      O51385   2.068   1.807   1.284
17048WAT     H151386   2.097   1.716   1.316
17048WAT     H251387   2.055   1.867   1.363
17049WAT      O51388   2.438   2.829   9.049
17049WAT     H151389   2.424   2.806   8.953
17049WAT     H251390   2.511   2.772   9.087
17050WAT      O51391   8.496   0.207   1.461
17050WAT     H151392   8.423   0.144   1.489
17050WAT     H251393   8.456   0.284   1.411
17051WAT      O51394   6.502   9.324   4.767
17051WAT     H151395   6.568   9.368   4.706
17051WAT     H251396   6.410   9.341   4.733
17052WAT      O51397   4.416   6.781   6.654
17052WAT     H151398   4.358   6.788   6.573
17052WAT     H251399   4.457   6.870   6.674
17053WAT      O51400   3.210   9.726   4.696
17053WAT     H151401   3.141   9.796   4.715
17053WAT     H251402   3.292   9.744   4.751
17054WAT      O51403   9.502   9.530   0.539
17054WAT     H151404   9.479   9.616   0.586
17054WAT     H251405   9.556   9.473   0.600
17055WAT      O51406   6.416   2.772   6.819
17055WAT     H151407   6.467   2.721   6.750
17055WAT     H251408   6.375   2.707   6.884
17056WAT      O51409   3.583   4.863   0.853
17056WAT     H151410   3.577   4.909   0.942
17056WAT     H251411   3.514   4.791   0.847
17057WAT      O51412   1.056   8.600   6.493
17057WAT     H151413   0.972   8.654   6.504
17057WAT     H251414   1.035   8.503   6.508
17058WAT      O51415   1.506   7.663   4.203
17058WAT     H151416   1.546   7.608   4.276
17058WAT     H251417   1.456   7.604   4.139
17059WAT      O51418   7.306   5.060   2.611
17059WAT     H151419   7.217   5.078   2.654
17059WAT     H251420   7.332   4.965   2.627
17060WAT      O51421   7.602   3.944   4.326
17060WAT     H151422   7.668   3.880   4.365
17060WAT     H251423   7.511   3.904   4.326
17061WAT      O51424   6.246   1.630   7.680
17061WAT     H151425   6.326   1.679   7.714
17061WAT     H251426   6.162   1.676   7.711
17062WAT      O51427   8.132   2.277   4.362
17062WAT     H151428   8.085   2.317   4.440
17062WAT     H251429   8.098   2.319   4.277
17063WAT      O51430   6.824   7.357   2.982
17063WAT     H151431   6.750   7.386   2.921
17063WAT     H251432   6.906   7.412   2.964
17064WAT      O51433   5.075   9.578   5.714
17064WAT     H151434   5.025   9.550   5.796
17064WAT     H251435   5.036   9.663   5.679
17065WAT      O51436   1.613   8.858   9.125
17065WAT     H151437   1.575   8.822   9.210
17065WAT     H251438   1.625   8.784   9.060
17066WAT      O51439   9.172   2.883   0.749
17066WAT     H151440   9.235   2.856   0.821
17066WAT     H251441   9.215   2.867   0.660
17067WAT      O51442   4.589   6.144   0.386
17067WAT     H151443   4.501   6.101   0.406
17067WAT     H251444   4.658   6.111   0.450
17068WAT      O51445   0.229   2.206   8.905
17068WAT     H151446   0.227   2.282   8.970
17068WAT     H251447   0.208   2.240   8.814
17069WAT      O51448   3.696   2.825   2.170
17069WAT     H151449   3.730   2.742   2.212
17069WAT     H251450   3.772   2.885   2.147
17070WAT      O51451   6.994   5.118   9.627
17070WAT     H151452   6.982   5.045   9.559
17070WAT     H251453   7.031   5.199   9.582
17071WAT      O51454   7.684   3.617   6.241
17071WAT     H151455   7.710   3.580   6.330
17071WAT     H251456   7.712   3.713   6.236
17072WAT      O51457   5.102   9.166   9.073
17072WAT     H151458   5.160   9.085   9.068
17072WAT     H251459   5.159   9.248   9.077
17073WAT      O51460   6.607   0.093   4.741
17073WAT     H151461   6.557   0.165   4.789
17073WAT     H251462   6.627   0.018   4.803
17074WAT      O51463   1.246   0.012   7.368
17074WAT     H151464   1.325   0.018   7.430
17074WAT     H251465   1.279  -0.011   7.276
17075WAT      O51466   5.493   6.910   8.535
17075WAT     H151467   5.528   6.818   8.555
17075WAT     H251468   5.394   6.907   8.523
17076WAT      O51469   4.638   6.866   3.146
17076WAT     H151470   4.687   6.919   3.077
17076WAT     H251471   4.689   6.869   3.232
17077WAT      O51472   8.347   8.148   9.687
17077WAT     H151473   8.275   8.210   9.655
17077WAT     H251474   8.393   8.108   9.607
17078WAT      O51475   8.791   6.999   3.690
17078WAT     H151476   8.864   7.063   3.717
17078WAT     H251477   8.785   6.925   3.756
17079WAT      O51478   9.075   5.134   6.301
17079WAT     H151479   9.088   5.227   6.335
17079WAT     H251480   9.108   5.127   6.207
17080WAT      O51481   3.242   1.454   4.593
17080WAT     H151482   3.241   1.360   4.560
17080WAT     H251483   3.253   1.455   4.692
17081WAT      O51484   4.487   2.438   0.971
17081WAT     H151485   4.402   2.402   0.934
17081WAT     H251486   4.541   2.363   1.009
17082WAT      O51487   8.224   5.527   4.944
17082WAT     H151488   8.157   5.482   4.885
17082WAT     H251489   8.243   5.469   5.023
17083WAT      O51490   2.409   1.447   2.144
17083WAT     H151491   2.383   1.543   2.155
17083WAT     H251492   2.329   1.389   2.163
17084WAT      O51493   1.299   5.669   5.140
17084WAT     H151494   1.393   5.642   5.118
17084WAT     H251495   1.255   5.707   5.058
17085WAT      O51496   1.330   0.419   4.335
17085WAT     H151497   1.364   0.501   4.382
17085WAT     H251498   1.408   0.365   4.303
17086WAT      O51499   8.242   8.460   9.123
17086WAT     H151500   8.290   8.547   9.117
17086WAT     H251501   8.156   8.466   9.072
17087WAT      O51502   1.999   5.485   1.160
17087WAT     H151503   1.903   5.462   1.145
17087WAT     H251504   2.024   5.465   1.254
17088WAT      O51505   0.803   6.201   7.665
17088WAT     H151506   0.773   6.282   7.716
17088WAT     H251507   0.742   6.125   7.684
17089WAT      O51508   3.900   8.856   3.811
17089WAT     H151509   3.969   8.871   3.882
17089WAT     H251510   3.903   8.761   3.780
17090WAT      O51511   5.735   4.492   5.816
17090WAT     H151512   5.714   4.562   5.748
17090WAT     H251513   5.757   4.406   5.769
17091WAT      O51514   0.761   0.897   9.312
17091WAT     H151515   0.804   0.807   9.312
17091WAT     H251516   0.704   0.907   9.231
17092WAT      O51517   0.498   0.041   8.565
17092WAT     H151518   0.428   0.012   8.500
17092WAT     H251519   0.589   0.023   8.527
17093WAT      O51520   7.730   9.805   3.204
17093WAT     H151521   7.678   9.748   3.267
17093WAT     H251522   7.689   9.897   3.201
17094WAT      O51523   4.240   7.861   5.687
17094WAT     H151524   4.154   7.826   5.650
17094WAT     H251525   4.260   7.815   5.773
17095WAT      O51526   0.819   7.179   1.830
17095WAT     H151527   0.768   7.264   1.840
17095WAT     H251528   0.872   7.162   1.914
17096WAT      O51529   5.606   1.557   7.216
17096WAT     H151530   5.542   1.630   7.238
17096WAT     H251531   5.658   1.581   7.135
17097WAT      O51532   3.251   2.957   3.003
17097WAT     H151533   3.349   2.965   3.020
17097WAT     H251534   3.210   3.048   2.993
17098WAT      O51535   5.771   0.029   6.410
17098WAT     H151536   5.684   0.011   6.363
17098WAT     H251537   5.846  -0.008   6.355
17099WAT      O51538   7.992   4.093   3.663
17099WAT     H151539   7.902   4.118   3.629
17099WAT     H251540   8.001   3.993   3.662
17100WAT      O51541   3.353   1.605   8.882
17100WAT     H151542   3.300   1.663   8.944
17100WAT     H251543   3.443   1.645   8.867
17101WAT      O51544   0.416   9.126   1.620
17101WAT     H151545   0.325   9.167   1.616
17101WAT     H251546   0.408   9.026   1.620
17102WAT      O51547   7.948   9.342   9.509
17102WAT     H151548   8.004   9.271   9.552
17102WAT     H251549   8.008   9.416   9.477
17103WAT      O51550   4.677   4.489   0.253
17103WAT     H151551   4.703   4.477   0.349
17103WAT     H251552   4.632   4.406   0.221
17104WAT      O51553   1.235   6.062   8.695
17104WAT     H151554   1.261   5.999   8.622
17104WAT     H251555   1.164   6.124   8.661
17105WAT      O51556   1.958   0.909   7.449
17105WAT     H151557   1.975   0.989   7.392
17105WAT     H251558   1.882   0.929   7.512
17106WAT      O51559   6.463   7.950   2.728
17106WAT     H151560   6.492   7.967   2.822
17106WAT     H251561   6.497   8.024   2.669
17107WAT      O51562   0.797   5.427   6.667
17107WAT     H151563   0.762   5.519   6.650
17107WAT     H251564   0.797   5.376   6.581
17108WAT      O51565   5.750   5.732   2.435
17108WAT     H151566   5.728   5.793   2.359
17108WAT     H251567   5.755   5.786   2.520
17109WAT      O51568   3.343   8.132   8.632
17109WAT     H151569   3.373   8.205   8.570
17109WAT     H251570   3.415   8.115   8.700
17110WAT      O51571   1.507   6.016   7.349
17110WAT     H151572   1.426   6.024   7.408
17110WAT     H251573   1.587   5.995   7.406
17111WAT      O51574   7.916   6.857   1.173
17111WAT     H151575   7.904   6.780   1.110
17111WAT     H251576   7.878   6.940   1.132
17112WAT      O51577   1.214   0.078   0.472
17112WAT     H151578   1.269  -0.002   0.447
17112WAT     H251579   1.220   0.146   0.399
17113WAT      O51580   2.036   6.029   4.160
17113WAT     H151581   2.098   6.037   4.082
17113WAT     H251582   2.089   6.008   4.242
17114WAT      O51583   9.181   0.024   0.528
17114WAT     H151584   9.173   0.093   0.456
17114WAT     H251585   9.251   0.053   0.594
17115WAT      O51586   4.523   4.630   4.546
17115WAT     H151587   4.467   4.555   4.512
17115WAT     H251588   4.511   4.639   4.645
17116WAT      O51589   0.102   1.241   7.872
17116WAT     H151590   0.192   1.275   7.847
17116WAT     H251591   0.111   1.147   7.907
17117WAT      O51592   8.676   1.324   9.842
17117WAT     H151593   8.708   1.287   9.755
17117WAT     H251594   8.598   1.384   9.827
17118WAT      O51595   0.455   7.644   0.722
17118WAT     H151596   0.366   7.661   0.765
17118WAT     H251597   0.442   7.590   0.639
17119WAT      O51598   2.241   6.007   1.501
17119WAT     H151599   2.286   6.096   1.491
17119WAT     H251600   2.275   5.944   1.431
17120WAT      O51601   1.324   9.616   5.928
17120WAT     H151602   1.268   9.688   5.887
17120WAT     H251603   1.343   9.638   6.023
17121WAT      O51604   4.137   6.983   7.891
17121WAT     H151605   4.059   7.044   7.897
17121WAT     H251606   4.194   6.993   7.973
17122WAT      O51607   5.982   1.176   6.926
17122WAT     H151608   6.001   1.209   7.019
17122WAT     H251609   5.894   1.211   6.895
17123WAT      O51610   7.910   5.763   7.272
17123WAT     H151611   7.858   5.843   7.245
17123WAT     H251612   7.861   5.680   7.243
17124WAT      O51613   6.360   9.744   2.856
17124WAT     H151614   6.438   9.750   2.917
17124WAT     H251615   6.347   9.649   2.827
17125WAT      O51616   2.310   1.901   6.311
17125WAT     H151617   2.399   1.904   6.355
17125WAT     H251618   2.313   1.954   6.226
17126WAT      O51619   0.277   9.129   0.845
17126WAT     H151620   0.215   9.051   0.843
17126WAT     H251621   0.361   9.103   0.894
17127WAT      O51622   6.907   3.993   5.606
17127WAT     H151623   6.974   3.960   5.540
17127WAT     H251624   6.952   4.006   5.695
17128WAT      O51625   8.212   8.810   0.125
17128WAT     H151626   8.229   8.726   0.178
17128WAT     H251627   8.266   8.807   0.041
17129WAT      O51628   1.824   1.361   7.778
17129WAT     H151629   1.838   1.388   7.683
17129WAT     H251630   1.875   1.423   7.839
17130WAT      O51631   0.698   1.197   9.283
17130WAT     H151632   0.611   1.179   9.328
17130WAT     H251633   0.723   1.119   9.226
17131WAT      O51634   1.360   5.766   4.371
17131WAT     H151635   1.312   5.717   4.298
17131WAT     H251636   1.404   5.847   4.333
17132WAT      O51637   0.170   1.760   7.870
17132WAT     H151638   0.191   1.714   7.956
17132WAT     H251639   0.101   1.707   7.820
17133WAT      O51640   8.051   0.892   8.649
17133WAT     H151641   8.064   0.797   8.680
17133WAT     H251642   8.140   0.930   8.622
17134WAT      O51643   8.932   0.312   3.674
17134WAT     H151644   8.902   0.390   3.730
17134WAT     H251645   8.861   0.290   3.608
17135WAT      O51646   0.171   3.253   4.882
17135WAT     H151647   0.141   3.347   4.866
17135WAT     H251648   0.129   3.192   4.815
17136WAT      O51649   6.018   5.691   0.324
17136WAT     H151650   6.036   5.643   0.410
17136WAT     H251651   5.941   5.754   0.336
17137WAT      O51652   6.598   0.257   9.692
17137WAT     H151653   6.521   0.196   9.713
17137WAT     H251654   6.588   0.342   9.744
17138WAT      O51655   0.618   5.674   8.479
17138WAT     H151656   0.582   5.678   8.386
17138WAT     H251657   0.702   5.620   8.480
17139WAT      O51658   7.383   7.367   8.531
17139WAT     H151659   7.352   7.414   8.613
17139WAT     H251660   7.305   7.353   8.469
17140WAT      O51661   1.926   6.637   8.834
17140WAT     H151662   2.013   6.671   8.871
17140WAT     H251663   1.853   6.701   8.857
17141WAT      O51664   0.064   3.939   8.816
17141WAT     H151665   0.012   3.912   8.734
17141WAT     H251666   0.002   3.947   8.894
17142WAT      O51667   6.702   3.824   6.963
17142WAT     H151668   6.714   3.924   6.964
17142WAT     H251669   6.605   3.803   6.968
17143WAT      O51670   3.947   0.625   4.075
17143WAT     H151671   4.041   0.593   4.088
17143WAT     H251672   3.938   0.665   3.984
17144WAT      O51673   9.142   0.605   9.857
17144WAT     H151674   9.144   0.534   9.787
17144WAT     H251675   9.166   0.693   9.816
17145WAT      O51676   2.742   4.980   9.070
17145WAT     H151677   2.773   4.901   9.018
17145WAT     H251678   2.810   5.003   9.140
17146WAT      O51679   8.367   4.622   9.608
17146WAT     H151680   8.403   4.644   9.517
17146WAT     H251681   8.357   4.706   9.661
17147WAT      O51682   6.789   0.720   3.590
17147WAT     H151683   6.759   0.635   3.548
17147WAT     H251684   6.811   0.787   3.519
17148WAT      O51685   2.508   0.120   2.018
17148WAT     H151686   2.564   0.158   2.091
17148WAT     H251687   2.530   0.023   2.006
17149WAT      O51688   5.984   6.324   0.181
17149WAT     H151689   5.931   6.240   0.196
17149WAT     H251690   6.074   6.315   0.225
17150WAT      O51691   0.213   2.670   2.782
17150WAT     H151692   0.147   2.742   2.759
17150WAT     H251693   0.201   2.593   2.720
17151WAT      O51694   6.455   3.168   2.801
17151WAT     H151695   6.382   3.142   2.864
17151WAT     H251696   6.482   3.089   2.746
17152WAT      O51697   6.909   2.617   8.034
17152WAT     H151698   6.964   2.547   8.080
17152WAT     H251699   6.916   2.703   8.085
17153WAT      O51700   0.755   9.563   7.267
17153WAT     H151701   0.734   9.546   7.171
17153WAT     H251702   0.778   9.659   7.280
17154WAT      O51703   4.482   4.090   5.650
17154WAT     H151704   4.550   4.159   5.628
17154WAT     H251705   4.451   4.102   5.744
17155WAT      O51706   7.730   6.397   9.033
17155WAT     H151707   7.739   6.362   9.126
17155WAT     H251708   7.797   6.469   9.017
17156WAT      O51709   8.988   7.310   7.548
17156WAT     H151710   8.934   7.370   7.608
17156WAT     H251711   8.990   7.348   7.456
17157WAT      O51712   3.995   0.358   7.614
17157WAT     H151713   4.082   0.389   7.653
17157WAT     H251714   4.002   0.358   7.514
17158WAT      O51715   6.119   1.631   3.182
17158WAT     H151716   6.042   1.566   3.181
17158WAT     H251717   6.138   1.658   3.276
17159WAT      O51718   5.994   4.490   1.888
17159WAT     H151719   5.955   4.410   1.933
17159WAT     H251720   5.925   4.563   1.884
17160WAT      O51721   4.204   4.556   3.690
17160WAT     H151722   4.214   4.525   3.595
17160WAT     H251723   4.145   4.492   3.740
17161WAT      O51724   2.329   6.895   8.665
17161WAT     H151725   2.381   6.905   8.581
17161WAT     H251726   2.335   6.801   8.697
17162WAT      O51727   5.333   7.005   2.997
17162WAT     H151728   5.393   6.947   3.052
17162WAT     H251729   5.241   7.004   3.037
17163WAT      O51730   3.856   4.643   9.477
17163WAT     H151731   3.897   4.576   9.415
17163WAT     H251732   3.756   4.635   9.473
17164WAT      O51733   0.239   7.976   4.242
17164WAT     H151734   0.151   8.009   4.207
17164WAT     H251735   0.253   8.010   4.334
17165WAT      O51736   2.442   1.202   7.135
17165WAT     H151737   2.393   1.289   7.143
17165WAT     H251738   2.429   1.165   7.043
17166WAT      O51739   8.478   8.815   2.283
17166WAT     H151740   8.503   8.721   2.308
17166WAT     H251741   8.410   8.850   2.347
17167WAT      O51742   8.140   5.427   8.856
17167WAT     H151743   8.215   5.391   8.911
17167WAT     H251744   8.073   5.355   8.838
17168WAT      O51745   7.286   7.477   1.761
17168WAT     H151746   7.380   7.453   1.737
17168WAT     H251747   7.247   7.403   1.816
17169WAT      O51748   5.739   1.040   2.322
17169WAT     H151749   5.639   1.042   2.314
17169WAT     H251750   5.780   1.075   2.238
17170WAT      O51751   4.480   1.715   7.060
17170WAT     H151752   4.575   1.742   7.073
17170WAT     H251753   4.476   1.627   7.014
17171WAT      O51754   1.198   4.568   2.199
17171WAT     H151755   1.194   4.626   2.281
17171WAT     H251756   1.173   4.622   2.119
17172WAT      O51757   8.669   1.609   2.963
17172WAT     H151758   8.706   1.692   3.005
17172WAT     H251759   8.572   1.602   2.984
17173WAT      O51760   5.981   2.361   4.820
17173WAT     H151761   5.922   2.290   4.859
17173WAT     H251762   6.038   2.400   4.892
17174WAT      O51763   8.691   6.963   3.455
17174WAT     H151764   8.728   6.980   3.546
17174WAT     H251765   8.638   7.043   3.425
17175WAT      O51766   5.967   0.986   1.612
17175WAT     H151767   5.946   0.900   1.565
17175WAT     H251768   6.053   1.023   1.578
17176WAT      O51769   5.364   3.076   4.446
17176WAT     H151770   5.405   3.001   4.394
17176WAT     H251771   5.387   3.065   4.543
17177WAT      O51772   1.590   4.585   7.873
17177WAT     H151773   1.560   4.585   7.969
17177WAT     H251774   1.648   4.664   7.856
17178WAT      O51775   0.028   8.253   7.244
17178WAT     H151776  -0.068   8.231   7.261
17178WAT     H251777   0.067   8.187   7.180
17179WAT      O51778   2.676   1.998   1.542
17179WAT     H151779   2.613   2.055   1.594
17179WAT     H251780   2.636   1.908   1.527
17180WAT      O51781   5.568   6.621   7.698
17180WAT     H151782   5.503   6.689   7.663
17180WAT     H251783   5.556   6.612   7.797
17181WAT      O51784   3.431   4.495   4.564
17181WAT     H151785   3.388   4.493   4.474
17181WAT     H251786   3.417   4.585   4.605
17182WAT      O51787   0.068   9.298   1.350
17182WAT     H151788   0.064   9.392   1.382
17182WAT     H251789   0.106   9.239   1.422
17183WAT      O51790   7.867   8.127   5.915
17183WAT     H151791   7.934   8.111   5.988
17183WAT     H251792   7.901   8.199   5.855
17184WAT      O51793   9.611   2.587   2.408
17184WAT     H151794   9.542   2.519   2.382
17184WAT     H251795   9.627   2.649   2.332
17185WAT      O51796   4.444   1.721   1.192
17185WAT     H151797   4.439   1.816   1.222
17185WAT     H251798   4.433   1.717   1.092
17186WAT      O51799   0.465   0.458   2.189
17186WAT     H151800   0.423   0.376   2.228
17186WAT     H251801   0.507   0.436   2.101
17187WAT      O51802   4.280   0.122   9.820
17187WAT     H151803   4.270   0.211   9.864
17187WAT     H251804   4.197   0.068   9.834
17188WAT      O51805   7.963   7.168   5.021
17188WAT     H151806   7.939   7.248   5.075
17188WAT     H251807   8.027   7.194   4.949
17189WAT      O51808   2.934   7.656   7.229
17189WAT     H151809   2.962   7.579   7.286
17189WAT     H251810   2.953   7.635   7.133
17190WAT      O51811   4.499   1.301   3.869
17190WAT     H151812   4.451   1.216   3.846
17190WAT     H251813   4.579   1.311   3.810
17191WAT      O51814   7.596   1.637   6.577
17191WAT     H151815   7.677   1.585   6.605
17191WAT     H251816   7.586   1.633   6.478
17192WAT      O51817   3.808   3.801   2.738
17192WAT     H151818   3.863   3.787   2.820
17192WAT     H251819   3.747   3.722   2.726
17193WAT      O51820   2.110   7.039   5.435
17193WAT     H151821   2.186   7.032   5.500
17193WAT     H251822   2.058   6.954   5.434
17194WAT      O51823   8.799   9.653   4.680
17194WAT     H151824   8.763   9.592   4.610
17194WAT     H251825   8.723   9.703   4.723
17195WAT      O51826   9.228   7.404   6.076
17195WAT     H151827   9.220   7.312   6.113
17195WAT     H251828   9.312   7.447   6.111
17196WAT      O51829   3.601   7.583   6.663
17196WAT     H151830   3.589   7.574   6.564
17196WAT     H251831   3.512   7.591   6.707
17197WAT      O51832   5.317   0.522   8.070
17197WAT     H151833   5.305   0.604   8.126
17197WAT     H251834   5.365   0.546   7.985
17198WAT      O51835   1.393   6.106   2.572
17198WAT     H151836   1.373   6.029   2.632
17198WAT     H251837   1.343   6.096   2.486
17199WAT      O51838   7.053   2.267   8.950
17199WAT     H151839   7.147   2.237   8.964
17199WAT     H251840   7.027   2.251   8.854
17200WAT      O51841   2.067   5.879   3.791
17200WAT     H151842   2.103   5.970   3.811
17200WAT     H251843   1.976   5.887   3.750
17201WAT      O51844   5.550   1.895   7.513
17201WAT     H151845   5.596   1.811   7.484
17201WAT     H251846   5.576   1.969   7.452
17202WAT      O51847   7.006   7.277   9.441
17202WAT     H151848   7.009   7.314   9.348
17202WAT     H251849   7.092   7.297   9.487
17203WAT      O51850   0.117   6.793   8.580
17203WAT     H151851   0.171   6.796   8.664
17203WAT     H251852   0.023   6.768   8.603
17204WAT      O51853   7.622   7.900   8.115
17204WAT     H151854   7.539   7.952   8.099
17204WAT     H251855   7.640   7.894   8.213
17205WAT      O51856   6.137   4.237   7.625
17205WAT     H151857   6.074   4.191   7.562
17205WAT     H251858   6.145   4.333   7.599
17206WAT      O51859   0.412   2.856   7.884
17206WAT     H151860   0.487   2.913   7.850
17206WAT     H251861   0.349   2.836   7.809
17207WAT      O51862   7.185   6.606   5.771
17207WAT     H151863   7.226   6.680   5.716
17207WAT     H251864   7.131   6.646   5.844
17208WAT      O51865   3.300   0.770   1.854
17208WAT     H151866   3.369   0.744   1.787
17208WAT     H251867   3.257   0.856   1.827
17209WAT      O51868   2.714   2.555   3.461
17209WAT     H151869   2.693   2.492   3.537
17209WAT     H251870   2.657   2.637   3.469
17210WAT      O51871   2.718   6.107   2.471
17210WAT     H151872   2.669   6.194   2.472
17210WAT     H251873   2.766   6.096   2.558
17211WAT      O51874   6.173   3.498   5.083
17211WAT     H151875   6.248   3.438   5.111
17211WAT     H251876   6.210   3.587   5.057
17212WAT      O51877   3.499   6.924   9.703
17212WAT     H151878   3.515   7.021   9.684
17212WAT     H251879   3.583   6.883   9.739
17213WAT      O51880   4.808   5.658   7.291
17213WAT     H151881   4.827   5.600   7.370
17213WAT     H251882   4.868   5.738   7.293
17214WAT      O51883   5.760   0.219   3.136
17214WAT     H151884   5.806   0.293   3.184
17214WAT     H251885   5.766   0.233   3.037
17215WAT      O51886   8.381   7.724   8.504
17215WAT     H151887   8.292   7.749   8.465
17215WAT     H251888   8.407   7.633   8.470
17216WAT      O51889   5.009   4.759   9.695
17216WAT     H151890   4.962   4.723   9.614
17216WAT     H251891   5.107   4.769   9.675
17217WAT      O51892   9.232   0.593   8.740
17217WAT     H151893   9.148   0.542   8.723
17217WAT     H251894   9.310   0.529   8.740
17218WAT      O51895   3.523   7.249   8.516
17218WAT     H151896   3.496   7.290   8.429
17218WAT     H251897   3.613   7.206   8.506
17219WAT      O51898   3.742   2.165   4.461
17219WAT     H151899   3.694   2.084   4.493
17219WAT     H251900   3.749   2.162   4.362
17220WAT      O51901   7.691   1.947   5.542
17220WAT     H151902   7.636   1.956   5.459
17220WAT     H251903   7.736   2.034   5.562
17221WAT      O51904   6.276   2.925   2.770
17221WAT     H151905   6.230   2.853   2.822
17221WAT     H251906   6.209   2.977   2.717
17222WAT      O51907   8.640   9.703   2.817
17222WAT     H151908   8.689   9.654   2.746
17222WAT     H251909   8.546   9.721   2.788
17223WAT      O51910   4.275   4.773   4.963
17223WAT     H151911   4.216   4.848   4.933
17223WAT     H251912   4.326   4.802   5.045
17224WAT      O51913   6.046   5.081   9.138
17224WAT     H151914   6.097   5.009   9.184
17224WAT     H251915   6.044   5.063   9.039
17225WAT      O51916   4.662   8.537   0.604
17225WAT     H151917   4.691   8.508   0.512
17225WAT     H251918   4.683   8.634   0.616
17226WAT      O51919   5.649   5.031   6.600
17226WAT     H151920   5.672   5.086   6.520
17226WAT     H251921   5.697   5.067   6.681
17227WAT      O51922   4.007   6.617   3.520
17227WAT     H151923   3.918   6.661   3.517
17227WAT     H251924   4.077   6.680   3.485
17228WAT      O51925   7.280   4.109   3.802
17228WAT     H151926   7.221   4.076   3.728
17228WAT     H251927   7.223   4.145   3.876
17229WAT      O51928   1.760   5.254   1.392
17229WAT     H151929   1.673   5.217   1.424
17229WAT     H251930   1.744   5.336   1.338
17230WAT      O51931   7.178   0.727   8.530
17230WAT     H151932   7.198   0.824   8.523
17230WAT     H251933   7.247   0.682   8.586
17231WAT      O51934   4.562   9.820   3.010
17231WAT     H151935   4.575   9.900   2.951
17231WAT     H251936   4.640   9.759   3.000
17232WAT      O51937   7.077   6.968   1.932
17232WAT     H151938   7.146   6.977   1.860
17232WAT     H251939   7.090   6.881   1.979
17233WAT      O51940   0.698   7.554   7.736
17233WAT     H151941   0.703   7.540   7.637
17233WAT     H251942   0.603   7.567   7.763
17234WAT      O51943   8.538   4.717   6.526
17234WAT     H151944   8.525   4.813   6.502
17234WAT     H251945   8.601   4.710   6.603
17235WAT      O51946   0.973   6.221   3.299
17235WAT     H151947   1.026   6.306   3.300
17235WAT     H251948   0.953   6.195   3.205
17236WAT      O51949   0.956   1.244   9.544
17236WAT     H151950   0.992   1.244   9.451
17236WAT     H251951   0.895   1.165   9.556
17237WAT      O51952   9.634   6.236   8.074
17237WAT     H151953   9.591   6.313   8.026
17237WAT     H251954   9.733   6.242   8.064
17238WAT      O51955   8.641   8.547   2.288
17238WAT     H151956   8.657   8.460   2.334
17238WAT     H251957   8.713   8.612   2.312
17239WAT      O51958   7.785   5.895   8.820
17239WAT     H151959   7.873   5.930   8.852
17239WAT     H251960   7.711   5.950   8.858
17240WAT      O51961   9.858   0.272   5.029
17240WAT     H151962   9.833   0.358   4.985
17240WAT     H251963   9.906   0.292   5.115
17241WAT      O51964   0.370   2.417   1.211
17241WAT     H151965   0.349   2.414   1.309
17241WAT     H251966   0.451   2.474   1.196
17242WAT      O51967   5.680   9.061   2.837
17242WAT     H151968   5.764   9.097   2.796
17242WAT     H251969   5.695   9.046   2.935
17243WAT      O51970   7.364   7.171   7.421
17243WAT     H151971   7.397   7.184   7.328
17243WAT     H251972   7.410   7.235   7.483
17244WAT      O51973   9.501   6.878   3.134
17244WAT     H151974   9.481   6.975   3.120
17244WAT     H251975   9.547   6.866   3.222
17245WAT      O51976   8.248   9.583   8.873
17245WAT     H151977   8.331   9.549   8.830
17245WAT     H251978   8.238   9.681   8.855
17246WAT      O51979   2.332   2.752   7.393
17246WAT     H151980   2.237   2.761   7.424
17246WAT     H251981   2.335   2.757   7.293
17247WAT      O51982   8.557   0.897   3.239
17247WAT     H151983   8.483   0.832   3.259
17247WAT     H251984   8.639   0.846   3.211
17248WAT      O51985   6.481   2.801   1.715
17248WAT     H151986   6.489   2.806   1.814
17248WAT     H251987   6.406   2.859   1.684
17249WAT      O51988   2.242   5.963   4.388
17249WAT     H151989   2.327   6.015   4.404
17249WAT     H251990   2.168   6.005   4.441
17250WAT      O51991   5.746   5.528   0.620
17250WAT     H151992   5.843   5.503   0.628
17250WAT     H251993   5.739   5.620   0.580
17251WAT      O51994   1.418   7.925   2.164
17251WAT     H151995   1.374   7.851   2.215
17251WAT     H251996   1.433   8.003   2.224
17252WAT      O51997   1.165   0.441   4.634
17252WAT     H151998   1.200   0.448   4.541
17252WAT     H251999   1.076   0.486   4.640
17253WAT      O52000   2.873   7.829   3.082
17253WAT     H152001   2.928   7.755   3.123
17253WAT     H252002   2.933   7.890   3.031
17254WAT      O52003   8.886   0.711   2.206
17254WAT     H152004   8.972   0.670   2.235
17254WAT     H252005   8.823   0.638   2.178
17255WAT      O52006   4.094   1.399   5.860
17255WAT     H152007   4.101   1.427   5.956
17255WAT     H252008   4.015   1.443   5.818
17256WAT      O52009   2.951   0.208   6.545
17256WAT     H152010   2.937   0.303   6.573
17256WAT     H252011   3.045   0.181   6.564
17257WAT      O52012   0.768   1.985   1.924
17257WAT     H152013   0.830   1.912   1.897
17257WAT     H252014   0.681   1.945   1.954
17258WAT      O52015   4.855   2.267   1.401
17258WAT     H152016   4.823   2.342   1.344
17258WAT     H252017   4.785   2.244   1.469
17259WAT      O52018   0.789   9.142   1.426
17259WAT     H152019   0.745   9.232   1.434
17259WAT     H252020   0.826   9.116   1.515
17260WAT      O52021   0.162   0.153   0.353
17260WAT     H152022   0.207   0.218   0.291
17260WAT     H252023   0.134   0.201   0.436
17261WAT      O52024   5.336   1.406   0.990
17261WAT     H152025   5.338   1.503   1.016
17261WAT     H252026   5.251   1.365   1.022
17262WAT      O52027   2.905   3.225   3.073
17262WAT     H152028   2.880   3.246   3.167
17262WAT     H252029   2.898   3.127   3.058
17263WAT      O52030   9.190   5.660   3.967
17263WAT     H152031   9.243   5.745   3.962
17263WAT     H252032   9.145   5.653   4.056
17264WAT      O52033   9.645   4.477   7.272
17264WAT     H152034   9.718   4.537   7.239
17264WAT     H252035   9.558   4.502   7.229
17265WAT      O52036   8.214   3.830   5.220
17265WAT     H152037   8.304   3.813   5.261
17265WAT     H252038   8.147   3.844   5.293
17266WAT      O52039   4.813   5.607   4.327
17266WAT     H152040   4.860   5.600   4.239
17266WAT     H252041   4.867   5.561   4.397
17267WAT      O52042   6.287   1.027   7.325
17267WAT     H152043   6.387   1.028   7.330
17267WAT     H252044   6.260   0.992   7.235
17268WAT      O52045   6.653   0.640   9.128
17268WAT     H152046   6.579   0.695   9.168
17268WAT     H252047   6.614   0.561   9.082
17269WAT      O52048   5.871   0.426   1.314
17269WAT     H152049   5.824   0.514   1.310
17269WAT     H252050   5.934   0.425   1.392
17270WAT      O52051   4.378   1.137   1.734
17270WAT     H152052   4.321   1.217   1.755
17270WAT     H252053   4.329   1.078   1.669
17271WAT      O52054   6.175   5.120   3.818
17271WAT     H152055   6.202   5.046   3.757
17271WAT     H252056   6.181   5.207   3.769
17272WAT      O52057   2.815   0.894   6.810
17272WAT     H152058   2.768   0.810   6.785
17272WAT     H252059   2.914   0.882   6.802
17273WAT      O52060   0.802   1.758   1.011
17273WAT     H152061   0.733   1.811   0.963
17273WAT     H252062   0.795   1.774   1.110
17274WAT      O52063   1.578   2.347   5.135
17274WAT     H152064   1.624   2.383   5.217
17274WAT     H252065   1.642   2.291   5.083
17275WAT      O52066   8.058   2.756   1.501
17275WAT     H152067   8.131   2.713   1.554
17275WAT     H252068   7.988   2.688   1.477
17276WAT      O52069   3.716   2.790   4.673
17276WAT     H152070   3.624   2.793   4.711
17276WAT     H252071   3.712   2.794   4.573
17277WAT      O52072   5.300   7.806   3.907
17277WAT     H152073   5.239   7.875   3.946
17277WAT     H252074   5.393   7.845   3.900
17278WAT      O52075   7.219   8.931   0.571
17278WAT     H152076   7.277   9.011   0.586
17278WAT     H252077   7.272   8.862   0.520
17279WAT      O52078   9.057   6.255   7.337
17279WAT     H152079   9.046   6.167   7.291
17279WAT     H252080   8.973   6.278   7.386
17280WAT      O52081   9.815   5.236   8.235
17280WAT     H152082   9.736   5.271   8.285
17280WAT     H252083   9.898   5.282   8.266
17281WAT      O52084   3.324   9.597   0.164
17281WAT     H152085   3.261   9.658   0.115
17281WAT     H252086   3.397   9.568   0.103
17282WAT      O52087   7.653   0.515   6.915
17282WAT     H152088   7.591   0.443   6.884
17282WAT     H252089   7.663   0.510   7.015
17283WAT      O52090   1.787   1.211   0.806
17283WAT     H152091   1.794   1.227   0.708
17283WAT     H252092   1.695   1.180   0.829
17284WAT      O52093   7.870   6.575   9.875
17284WAT     H152094   7.787   6.629   9.861
17284WAT     H252095   7.928   6.620   9.943
17285WAT      O52096   2.394   5.486   0.769
17285WAT     H152097   2.342   5.444   0.843
17285WAT     H252098   2.484   5.515   0.804
17286WAT      O52099   2.150   5.346   8.321
17286WAT     H152100   2.204   5.429   8.308
17286WAT     H252101   2.114   5.344   8.415
17287WAT      O52102   6.794   4.252   7.972
17287WAT     H152103   6.877   4.208   8.007
17287WAT     H252104   6.788   4.237   7.873
17288WAT      O52105   5.447   1.036   2.316
17288WAT     H152106   5.353   1.021   2.286
17288WAT     H252107   5.452   1.119   2.371
17289WAT      O52108   0.364   7.674   2.300
17289WAT     H152109   0.371   7.716   2.210
17289WAT     H252110   0.440   7.706   2.357
17290WAT      O52111   4.056   7.956   5.944
17290WAT     H152112   4.087   7.937   6.038
17290WAT     H252113   4.136   7.978   5.888
17291WAT      O52114   5.848   2.900   9.518
17291WAT     H152115   5.833   2.806   9.549
17291WAT     H252116   5.803   2.914   9.430
17292WAT      O52117   4.726   0.088   0.506
17292WAT     H152118   4.675   0.078   0.591
17292WAT     H252119   4.813   0.039   0.514
17293WAT      O52120   9.180   9.475   0.935
17293WAT     H152121   9.127   9.521   0.864
17293WAT     H252122   9.268   9.520   0.946
17294WAT      O52123   3.551   0.338   2.004
17294WAT     H152124   3.487   0.328   1.928
17294WAT     H252125   3.644   0.347   1.968
17295WAT      O52126   3.022   8.529   1.171
17295WAT     H152127   3.090   8.461   1.200
17295WAT     H252128   2.941   8.521   1.228
17296WAT      O52129   3.340   3.626   0.337
17296WAT     H152130   3.375   3.543   0.294
17296WAT     H252131   3.351   3.703   0.274
17297WAT      O52132   8.095   2.285   0.621
17297WAT     H152133   8.015   2.325   0.666
17297WAT     H252134   8.109   2.331   0.533
17298WAT      O52135   6.345   0.061   3.428
17298WAT     H152136   6.425   0.098   3.380
17298WAT     H252137   6.276   0.034   3.361
17299WAT      O52138   4.822   1.438   6.380
17299WAT     H152139   4.784   1.346   6.389
17299WAT     H252140   4.917   1.433   6.350
17300WAT      O52141   0.391   4.222   5.517
17300WAT     H152142   0.489   4.240   5.508
17300WAT     H252143   0.350   4.291   5.576
17301WAT      O52144   4.659   6.953   4.569
17301WAT     H152145   4.649   6.914   4.477
17301WAT     H252146   4.576   6.934   4.621
17302WAT      O52147   1.950   5.048   4.564
17302WAT     H152148   1.928   4.964   4.612
17302WAT     H252149   1.875   5.072   4.502
17303WAT      O52150   4.031   2.291   7.706
17303WAT     H152151   3.992   2.315   7.795
17303WAT     H252152   4.124   2.257   7.718
17304WAT      O52153   0.052   8.519   0.010
17304WAT     H152154   0.072   8.475  -0.077
17304WAT     H252155  -0.041   8.556   0.008
17305WAT      O52156   1.244   9.074   5.616
17305WAT     H152157   1.330   9.040   5.578
17305WAT     H252158   1.232   9.170   5.593
17306WAT      O52159   0.284   5.365   8.623
17306WAT     H152160   0.290   5.343   8.720
17306WAT     H252161   0.293   5.282   8.569
17307WAT      O52162   6.550   0.528   6.524
17307WAT     H152163   6.525   0.445   6.475
17307WAT     H252164   6.617   0.506   6.594
17308WAT      O52165   1.191   5.421   9.663
17308WAT     H152166   1.127   5.415   9.586
17308WAT     H252167   1.282   5.392   9.633
17309WAT      O52168   1.729   8.703   4.474
17309WAT     H152169   1.712   8.760   4.555
17309WAT     H252170   1.690   8.611   4.489
17310WAT      O52171   0.454   1.783   0.201
17310WAT     H152172   0.467   1.795   0.299
17310WAT     H252173   0.540   1.804   0.153
17311WAT      O52174   9.273   6.210   2.829
17311WAT     H152175   9.217   6.257   2.897
17311WAT     H252176   9.279   6.266   2.746
17312WAT      O52177   3.051   5.642   4.858
17312WAT     H152178   3.059   5.602   4.767
17312WAT     H252179   2.968   5.608   4.902
17313WAT      O52180   5.911   4.329   7.797
17313WAT     H152181   5.996   4.277   7.797
17313WAT     H252182   5.855   4.302   7.875
17314WAT      O52183   6.016   7.616   6.627
17314WAT     H152184   6.082   7.683   6.594
17314WAT     H252185   5.930   7.627   6.576
17315WAT      O52186   2.207   4.238   8.427
17315WAT     H152187   2.153   4.156   8.448
17315WAT     H252188   2.206   4.254   8.329
17316WAT      O52189   8.800   0.209   9.403
17316WAT     H152190   8.756   0.128   9.363
17316WAT     H252191   8.896   0.189   9.423
17317WAT      O52192   7.996   4.853   7.618
17317WAT     H152193   8.028   4.851   7.712
17317WAT     H252194   8.034   4.932   7.571
17318WAT      O52195   8.173   7.374   6.122
17318WAT     H152196   8.193   7.457   6.071
17318WAT     H252197   8.106   7.395   6.194
17319WAT      O52198   3.420   7.855   0.409
17319WAT     H152199   3.455   7.762   0.400
17319WAT     H252200   3.493   7.920   0.387
17320WAT      O52201   6.902   5.732   5.295
17320WAT     H152202   6.995   5.733   5.332
17320WAT     H252203   6.868   5.638   5.295
17321WAT      O52204   3.043   5.290   3.428
17321WAT     H152205   3.075   5.196   3.414
17321WAT     H252206   3.016   5.329   3.340
17322WAT      O52207   3.085   0.350   8.200
17322WAT     H152208   3.152   0.373   8.128
17322WAT     H252209   3.058   0.254   8.191
17323WAT      O52210   5.865   1.432   8.101
17323WAT     H152211   5.817   1.434   8.189
17323WAT     H252212   5.935   1.360   8.102
17324WAT      O52213   7.928   3.117   9.451
17324WAT     H152214   7.944   3.095   9.547
17324WAT     H252215   7.973   3.203   9.428
17325WAT      O52216   0.195   2.293   6.780
17325WAT     H152217   0.099   2.305   6.755
17325WAT     H252218   0.252   2.353   6.724
17326WAT      O52219   2.461   7.445   2.432
17326WAT     H152220   2.515   7.511   2.380
17326WAT     H252221   2.447   7.479   2.525
17327WAT      O52222   6.373   3.506   9.381
17327WAT     H152223   6.413   3.440   9.317
17327WAT     H252224   6.374   3.597   9.339
17328WAT      O52225   1.414   5.327   0.170
17328WAT     H152226   1.366   5.366   0.248
17328WAT     H252227   1.358   5.255   0.128
17329WAT      O52228   6.078   3.687   1.414
17329WAT     H152229   5.980   3.707   1.412
17329WAT     H252230   6.092   3.590   1.393
17330WAT      O52231   8.007   0.662   3.420
17330WAT     H152232   7.913   0.648   3.452
17330WAT     H252233   8.037   0.580   3.370
17331WAT      O52234   2.291   4.413   8.645
17331WAT     H152235   2.254   4.322   8.633
17331WAT     H252236   2.309   4.429   8.742
17332WAT      O52237   5.112   1.719   6.254
17332WAT     H152238   5.040   1.779   6.220
17332WAT     H252239   5.189   1.775   6.288
17333WAT      O52240   7.820   4.458   0.992
17333WAT     H152241   7.767   4.523   0.937
17333WAT     H252242   7.913   4.492   1.003
17334WAT      O52243   8.716   8.281   7.431
17334WAT     H152244   8.654   8.301   7.507
17334WAT     H252245   8.663   8.253   7.351
17335WAT      O52246   9.252   8.363   4.488
17335WAT     H152247   9.265   8.271   4.451
17335WAT     H252248   9.184   8.411   4.432
17336WAT      O52249   5.863   5.407   8.914
17336WAT     H152250   5.828   5.343   8.983
17336WAT     H252251   5.879   5.496   8.956
17337WAT      O52252   4.721   5.331   7.924
17337WAT     H152253   4.630   5.324   7.882
17337WAT     H252254   4.717   5.301   8.019
17338WAT      O52255   8.220   8.948   7.420
17338WAT     H152256   8.192   9.014   7.351
17338WAT     H252257   8.218   8.991   7.511
17339WAT      O52258   8.615   8.971   1.718
17339WAT     H152259   8.661   8.973   1.807
17339WAT     H252260   8.660   8.905   1.659
17340WAT      O52261   8.154   3.655   9.413
17340WAT     H152262   8.145   3.648   9.314
17340WAT     H252263   8.245   3.690   9.436
17341WAT      O52264   3.842   8.794   8.781
17341WAT     H152265   3.876   8.804   8.687
17341WAT     H252266   3.832   8.885   8.822
17342WAT      O52267   6.003   7.359   2.446
17342WAT     H152268   5.979   7.426   2.516
17342WAT     H252269   5.975   7.268   2.477
17343WAT      O52270   6.889   0.872   7.809
17343WAT     H152271   6.822   0.938   7.775
17343WAT     H252272   6.864   0.780   7.780
17344WAT      O52273   1.527   3.233   4.927
17344WAT     H152274   1.621   3.202   4.910
17344WAT     H252275   1.529   3.325   4.965
17345WAT      O52276   1.414   1.161   6.760
17345WAT     H152277   1.323   1.202   6.753
17345WAT     H252278   1.477   1.212   6.703
17346WAT      O52279   5.725   4.426   6.836
17346WAT     H152280   5.656   4.353   6.837
17346WAT     H252281   5.808   4.394   6.883
17347WAT      O52282   7.998   3.326   3.114
17347WAT     H152283   7.922   3.391   3.108
17347WAT     H252284   7.961   3.233   3.120
17348WAT      O52285   4.378   9.794   9.228
17348WAT     H152286   4.360   9.840   9.315
17348WAT     H252287   4.291   9.762   9.189
17349WAT      O52288   1.904   4.446   9.441
17349WAT     H152289   1.917   4.379   9.515
17349WAT     H252290   1.983   4.508   9.439
17350WAT      O52291   6.952   6.396   3.906
17350WAT     H152292   6.897   6.413   3.824
17350WAT     H252293   6.978   6.299   3.909
17351WAT      O52294   2.343   5.264   7.250
17351WAT     H152295   2.256   5.214   7.253
17351WAT     H252296   2.356   5.312   7.337
17352WAT      O52297   6.684   5.757   1.180
17352WAT     H152298   6.591   5.720   1.176
17352WAT     H252299   6.747   5.685   1.210
17353WAT      O52300   7.145   7.113   6.417
17353WAT     H152301   7.191   7.069   6.494
17353WAT     H252302   7.194   7.196   6.392
17354WAT      O52303   8.577   2.801   0.253
17354WAT     H152304   8.553   2.714   0.210
17354WAT     H252305   8.662   2.835   0.213
17355WAT      O52306   0.424   8.127   2.117
17355WAT     H152307   0.510   8.165   2.152
17355WAT     H252308   0.387   8.188   2.046
17356WAT      O52309   9.456   6.137   4.516
17356WAT     H152310   9.422   6.220   4.473
17356WAT     H252311   9.398   6.059   4.493
17357WAT      O52312   3.450   6.304   7.903
17357WAT     H152313   3.533   6.324   7.850
17357WAT     H252314   3.375   6.285   7.840
17358WAT      O52315   6.394   1.551   9.055
17358WAT     H152316   6.394   1.469   9.113
17358WAT     H252317   6.489   1.573   9.031
17359WAT      O52318   4.965   2.769   3.985
17359WAT     H152319   5.014   2.760   4.072
17359WAT     H252320   4.867   2.763   4.001
17360WAT      O52321   7.824   7.610   5.650
17360WAT     H152322   7.791   7.699   5.681
17360WAT     H252323   7.798   7.596   5.555
17361WAT      O52324   8.049   3.650   5.070
17361WAT     H152325   8.043   3.560   5.114
17361WAT     H252326   8.104   3.711   5.127
17362WAT      O52327   8.609   7.490   3.945
17362WAT     H152328   8.680   7.506   3.876
17362WAT     H252329   8.588   7.576   3.991
17363WAT      O52330   9.105   9.542   2.869
17363WAT     H152331   9.075   9.490   2.790
17363WAT     H252332   9.131   9.634   2.840
17364WAT      O52333   9.433   6.379   7.699
17364WAT     H152334   9.363   6.386   7.627
17364WAT     H252335   9.514   6.431   7.671
17365WAT      O52336   0.710   6.467   5.255
17365WAT     H152337   0.719   6.367   5.251
17365WAT     H252338   0.772   6.503   5.325
17366WAT      O52339   8.144   0.349   8.007
17366WAT     H152340   8.071   0.386   7.950
17366WAT     H252341   8.218   0.415   8.014
17367WAT      O52342   7.281   1.586   2.765
17367WAT     H152343   7.199   1.537   2.792
17367WAT     H252344   7.262   1.639   2.682
17368WAT      O52345   2.657   7.511   8.182
17368WAT     H152346   2.615   7.468   8.103
17368WAT     H252347   2.662   7.610   8.168
17369WAT      O52348   9.466   1.889   2.250
17369WAT     H152349   9.397   1.849   2.190
17369WAT     H252350   9.442   1.984   2.270
17370WAT      O52351   6.271   8.101   8.970
17370WAT     H152352   6.281   8.190   8.925
17370WAT     H252353   6.308   8.030   8.910
17371WAT      O52354   3.425   1.100   2.901
17371WAT     H152355   3.424   1.076   2.804
17371WAT     H252356   3.484   1.036   2.951
17372WAT      O52357   9.199   8.990   2.280
17372WAT     H152358   9.131   9.064   2.281
17372WAT     H252359   9.279   9.020   2.229
17373WAT      O52360   3.493   1.509   5.508
17373WAT     H152361   3.401   1.536   5.539
17373WAT     H252362   3.540   1.589   5.470
17374WAT      O52363   0.467   9.149   6.952
17374WAT     H152364   0.404   9.222   6.925
17374WAT     H252365   0.439   9.063   6.911
17375WAT      O52366   9.328   0.463   1.233
17375WAT     H152367   9.366   0.556   1.237
17375WAT     H252368   9.249   0.457   1.294
17376WAT      O52369   8.999   2.867   3.215
17376WAT     H152370   8.905   2.901   3.221
17376WAT     H252371   9.009   2.812   3.132
17377WAT      O52372   8.730   0.174   4.330
17377WAT     H152373   8.770   0.173   4.239
17377WAT     H252374   8.640   0.216   4.327
17378WAT      O52375   3.267   6.193   5.206
17378WAT     H152376   3.323   6.207   5.124
17378WAT     H252377   3.229   6.281   5.235
17379WAT      O52378   1.061   7.882   7.924
17379WAT     H152379   1.133   7.899   7.857
17379WAT     H252380   1.011   7.799   7.899
17380WAT      O52381   8.239   5.944   2.338
17380WAT     H152382   8.329   5.986   2.326
17380WAT     H252383   8.216   5.942   2.436
17381WAT      O52384   6.593   0.706   3.985
17381WAT     H152385   6.506   0.749   3.961
17381WAT     H252386   6.618   0.641   3.914
17382WAT      O52387   2.158   9.194   2.407
17382WAT     H152388   2.120   9.109   2.371
17382WAT     H252389   2.153   9.192   2.507
17383WAT      O52390   8.038   0.314   5.318
17383WAT     H152391   8.130   0.300   5.281
17383WAT     H252392   7.981   0.234   5.297
17384WAT      O52393   1.117   7.821   4.646
17384WAT     H152394   1.157   7.818   4.554
17384WAT     H252395   1.082   7.913   4.664
17385WAT      O52396   6.361   0.317   6.791
17385WAT     H152397   6.393   0.222   6.792
17385WAT     H252398   6.262   0.319   6.784
17386WAT      O52399   3.350   6.561   3.236
17386WAT     H152400   3.333   6.463   3.227
17386WAT     H252401   3.387   6.580   3.327
17387WAT      O52402   6.729   3.336   4.423
17387WAT     H152403   6.785   3.255   4.441
17387WAT     H252404   6.709   3.341   4.325
17388WAT      O52405   5.288   9.088   2.014
17388WAT     H152406   5.235   9.165   2.050
17388WAT     H252407   5.329   9.114   1.926
17389WAT      O52408   3.510   8.365   6.825
17389WAT     H152409   3.501   8.435   6.753
17389WAT     H252410   3.440   8.295   6.812
17390WAT      O52411   0.596   9.739   8.889
17390WAT     H152412   0.585   9.689   8.803
17390WAT     H252413   0.565   9.682   8.964
17391WAT      O52414   0.995   5.928   2.917
17391WAT     H152415   0.997   5.964   2.824
17391WAT     H252416   0.967   6.000   2.981
17392WAT      O52417   9.823   8.386   0.984
17392WAT     H152418   9.785   8.443   0.912
17392WAT     H252419   9.836   8.293   0.950
17393WAT      O52420   0.480   2.966   7.431
17393WAT     H152421   0.462   2.996   7.524
17393WAT     H252422   0.528   3.038   7.381
17394WAT      O52423   1.432   3.119   6.261
17394WAT     H152424   1.418   3.055   6.336
17394WAT     H252425   1.489   3.077   6.191
17395WAT      O52426   9.508   6.517   0.723
17395WAT     H152427   9.560   6.449   0.672
17395WAT     H252428   9.427   6.544   0.671
17396WAT      O52429   6.670   6.724   5.746
17396WAT     H152430   6.735   6.800   5.747
17396WAT     H252431   6.583   6.754   5.783
17397WAT      O52432   5.455   6.315   4.640
17397WAT     H152433   5.479   6.363   4.724
17397WAT     H252434   5.387   6.245   4.660
17398WAT      O52435   8.381   9.752   2.714
17398WAT     H152436   8.316   9.799   2.774
17398WAT     H252437   8.413   9.816   2.644
17399WAT      O52438   4.747   9.691   5.541
17399WAT     H152439   4.836   9.737   5.539
17399WAT     H252440   4.695   9.723   5.620
17400WAT      O52441   9.725   2.569   7.629
17400WAT     H152442   9.811   2.540   7.670
17400WAT     H252443   9.705   2.512   7.550
17401WAT      O52444   5.636   6.086   7.864
17401WAT     H152445   5.536   6.078   7.862
17401WAT     H252446   5.677   5.995   7.861
17402WAT      O52447   8.912   1.513   0.642
17402WAT     H152448   8.849   1.497   0.566
17402WAT     H252449   8.933   1.611   0.648
17403WAT      O52450   8.894   6.832   8.022
17403WAT     H152451   8.905   6.816   7.924
17403WAT     H252452   8.895   6.931   8.040
17404WAT      O52453   7.226   3.702   5.626
17404WAT     H152454   7.267   3.612   5.611
17404WAT     H252455   7.226   3.753   5.540
17405WAT      O52456   4.582   0.481   4.012
17405WAT     H152457   4.520   0.546   3.968
17405WAT     H252458   4.596   0.402   3.953
17406WAT      O52459   6.202   6.362   7.020
17406WAT     H152460   6.291   6.330   7.054
17406WAT     H252461   6.144   6.385   7.098
17407WAT      O52462   2.460   2.476   9.345
17407WAT     H152463   2.365   2.505   9.355
17407WAT     H252464   2.493   2.440   9.432
17408WAT      O52465   0.224   7.443   2.346
17408WAT     H152466   0.252   7.388   2.267
17408WAT     H252467   0.235   7.540   2.324
17409WAT      O52468   5.787   3.836   8.569
17409WAT     H152469   5.840   3.853   8.486
17409WAT     H252470   5.718   3.907   8.580
17410WAT      O52471   7.291   6.750   7.415
17410WAT     H152472   7.235   6.804   7.352
17410WAT     H252473   7.231   6.699   7.477
17411WAT      O52474   9.765   8.882   1.439
17411WAT     H152475   9.822   8.934   1.502
17411WAT     H252476   9.669   8.906   1.451
17412WAT      O52477   5.763   0.909   0.258
17412WAT     H152478   5.755   0.822   0.307
17412WAT     H252479   5.830   0.967   0.304
17413WAT      O52480   1.098   4.319   3.391
17413WAT     H152481   1.184   4.358   3.425
17413WAT     H252482   1.029   4.392   3.384
17414WAT      O52483   1.437   4.979   8.454
17414WAT     H152484   1.369   5.020   8.394
17414WAT     H252485   1.391   4.929   8.528
17415WAT      O52486   6.382   2.706   2.474
17415WAT     H152487   6.320   2.665   2.408
17415WAT     H252488   6.386   2.649   2.556
17416WAT      O52489   4.207   3.940   6.074
17416WAT     H152490   4.119   3.924   6.028
17416WAT     H252491   4.257   3.853   6.081
17417WAT      O52492   1.522   1.860   6.419
17417WAT     H152493   1.591   1.920   6.459
17417WAT     H252494   1.567   1.790   6.362
17418WAT      O52495   0.061   0.801   8.732
17418WAT     H152496   0.022   0.716   8.766
17418WAT     H252497  -0.011   0.872   8.730
17419WAT      O52498   5.534   0.364   2.024
17419WAT     H152499   5.537   0.271   1.987
17419WAT     H252500   5.509   0.428   1.951
17420WAT      O52501   0.371   4.684   2.073
17420WAT     H152502   0.422   4.598   2.062
17420WAT     H252503   0.346   4.696   2.169
17421WAT      O52504   6.869   4.817   1.713
17421WAT     H152505   6.832   4.892   1.768
17421WAT     H252506   6.816   4.734   1.731
17422WAT      O52507   5.604   9.501   6.464
17422WAT     H152508   5.546   9.455   6.531
17422WAT     H252509   5.597   9.452   6.376
17423WAT      O52510   4.514   0.939   5.625
17423WAT     H152511   4.431   0.965   5.576
17423WAT     H252512   4.525   0.998   5.706
17424WAT      O52513   3.465   7.125   0.661
17424WAT     H152514   3.475   7.097   0.757
17424WAT     H252515   3.453   7.224   0.656
17425WAT      O52516   8.187   3.287   2.430
17425WAT     H152517   8.221   3.380   2.448
17425WAT     H252518   8.114   3.292   2.362
17426WAT      O52519   9.200   2.564   4.230
17426WAT     H152520   9.112   2.580   4.275
17426WAT     H252521   9.207   2.622   4.149
17427WAT      O52522   3.671   8.455   7.537
17427WAT     H152523   3.606   8.435   7.463
17427WAT     H252524   3.691   8.553   7.538
17428WAT      O52525   3.417   8.495   8.777
17428WAT     H152526   3.492   8.545   8.820
17428WAT     H252527   3.453   8.417   8.726
17429WAT      O52528   2.919   2.593   2.625
17429WAT     H152529   2.893   2.688   2.607
17429WAT     H252530   2.966   2.555   2.545
17430WAT      O52531   4.056   4.232   9.294
17430WAT     H152532   4.122   4.209   9.366
17430WAT     H252533   3.993   4.156   9.281
17431WAT      O52534   0.413   8.226   0.939
17431WAT     H152535   0.444   8.201   1.031
17431WAT     H252536   0.492   8.250   0.883
17432WAT      O52537   9.254   9.562   3.543
17432WAT     H152538   9.300   9.544   3.456
17432WAT     H252539   9.249   9.661   3.558
17433WAT      O52540   0.392   6.087   5.910
17433WAT     H152541   0.483   6.065   5.945
17433WAT     H252542   0.382   6.051   5.817
17434WAT      O52543   0.978   3.280   1.759
17434WAT     H152544   1.042   3.203   1.748
17434WAT     H252545   1.028   3.366   1.750
17435WAT      O52546   3.488   1.864   5.290
17435WAT     H152547   3.553   1.795   5.322
17435WAT     H252548   3.397   1.825   5.284
17436WAT      O52549   1.321   4.833   8.676
17436WAT     H152550   1.236   4.864   8.718
17436WAT     H252551   1.399   4.870   8.728
17437WAT      O52552   3.653   8.725   7.511
17437WAT     H152553   3.659   8.804   7.450
17437WAT     H252554   3.573   8.734   7.570
17438WAT      O52555   2.411   7.734   3.596
17438WAT     H152556   2.462   7.728   3.510
17438WAT     H252557   2.400   7.830   3.621
17439WAT      O52558   8.089   5.466   3.965
17439WAT     H152559   8.019   5.522   4.010
17439WAT     H252560   8.138   5.522   3.898
17440WAT      O52561   4.869   8.244   9.291
17440WAT     H152562   4.813   8.236   9.374
17440WAT     H252563   4.820   8.206   9.213
17441WAT      O52564   9.390   2.243   6.985
17441WAT     H152565   9.417   2.197   6.900
17441WAT     H252566   9.465   2.237   7.051
17442WAT      O52567   2.863   6.782   0.841
17442WAT     H152568   2.899   6.862   0.793
17442WAT     H252569   2.827   6.809   0.930
17443WAT      O52570   6.519   8.141   1.201
17443WAT     H152571   6.522   8.067   1.133
17443WAT     H252572   6.467   8.218   1.164
17444WAT      O52573   7.319   9.204   8.835
17444WAT     H152574   7.418   9.206   8.820
17444WAT     H252575   7.297   9.130   8.899
17445WAT      O52576   7.430   3.751   1.588
17445WAT     H152577   7.414   3.777   1.493
17445WAT     H252578   7.434   3.651   1.594
17446WAT      O52579   2.187   6.870   2.820
17446WAT     H152580   2.152   6.780   2.798
17446WAT     H252581   2.175   6.888   2.918
17447WAT      O52582   6.069   8.425   3.888
17447WAT     H152583   6.095   8.484   3.964
17447WAT     H252584   6.040   8.336   3.924
17448WAT      O52585   5.334   1.050   8.493
17448WAT     H152586   5.427   1.065   8.461
17448WAT     H252587   5.335   0.987   8.571
17449WAT      O52588   8.565   2.633   7.597
17449WAT     H152589   8.528   2.682   7.518
17449WAT     H252590   8.489   2.597   7.652
17450WAT      O52591   1.454   0.704   8.268
17450WAT     H152592   1.454   0.725   8.171
17450WAT     H252593   1.453   0.605   8.281
17451WAT      O52594   4.057   0.326   7.332
17451WAT     H152595   4.150   0.351   7.356
17451WAT     H252596   4.046   0.328   7.233
17452WAT      O52597   0.895   8.059   2.265
17452WAT     H152598   0.932   8.000   2.337
17452WAT     H252599   0.810   8.018   2.230
17453WAT      O52600   6.631   2.134   3.761
17453WAT     H152601   6.547   2.179   3.790
17453WAT     H252602   6.634   2.041   3.798
17454WAT      O52603   0.117   1.972   8.813
17454WAT     H152604   0.162   2.040   8.872
17454WAT     H252605   0.105   1.887   8.864
17455WAT      O52606   9.702   2.211   0.573
17455WAT     H152607   9.630   2.145   0.595
17455WAT     H252608   9.789   2.178   0.610
17456WAT      O52609   2.180   3.855   2.770
17456WAT     H152610   2.277   3.830   2.774
17456WAT     H252611   2.171   3.953   2.791
17457WAT      O52612   4.197   7.888   4.247
17457WAT     H152613   4.177   7.881   4.344
17457WAT     H252614   4.131   7.835   4.195
17458WAT      O52615   6.995   6.259   3.366
17458WAT     H152616   7.033   6.169   3.390
17458WAT     H252617   7.058   6.305   3.303
17459WAT      O52618   5.827   4.535   4.322
17459WAT     H152619   5.882   4.604   4.367
17459WAT     H252620   5.753   4.579   4.270
17460WAT      O52621   5.296   9.221   4.658
17460WAT     H152622   5.202   9.191   4.676
17460WAT     H252623   5.358   9.143   4.662
17461WAT      O52624   5.708   5.642   1.878
17461WAT     H152625   5.609   5.634   1.869
17461WAT     H252626   5.735   5.619   1.972
17462WAT      O52627   5.622   3.442   0.561
17462WAT     H152628   5.685   3.490   0.622
17462WAT     H252629   5.569   3.376   0.613
17463WAT      O52630   3.654   8.885   3.078
17463WAT     H152631   3.751   8.861   3.080
17463WAT     H252632   3.644   8.984   3.082
17464WAT      O52633   4.144   8.442   0.106
17464WAT     H152634   4.162   8.350   0.141
17464WAT     H252635   4.045   8.455   0.097
17465WAT      O52636   0.761   5.200   9.415
17465WAT     H152637   0.796   5.210   9.508
17465WAT     H252638   0.703   5.118   9.409
17466WAT      O52639   2.033   5.393   2.386
17466WAT     H152640   2.090   5.374   2.466
17466WAT     H252641   2.025   5.310   2.331
17467WAT      O52642   2.717   2.797   7.539
17467WAT     H152643   2.793   2.750   7.584
17467WAT     H252644   2.635   2.740   7.543
17468WAT      O52645   6.302   7.630   4.971
17468WAT     H152646   6.336   7.581   5.051
17468WAT     H252647   6.332   7.725   4.974
17469WAT      O52648   0.676   5.382   3.801
17469WAT     H152649   0.704   5.303   3.857
17469WAT     H252650   0.739   5.391   3.724
17470WAT      O52651   8.120   9.512   4.264
17470WAT     H152652   8.098   9.484   4.357
17470WAT     H252653   8.180   9.592   4.266
17471WAT      O52654   3.358   1.830   5.990
17471WAT     H152655   3.439   1.888   5.978
17471WAT     H252656   3.278   1.888   6.010
17472WAT      O52657   4.206   8.743   5.486
17472WAT     H152658   4.240   8.651   5.503
17472WAT     H252659   4.204   8.794   5.572
17473WAT      O52660   2.288   1.427   2.880
17473WAT     H152661   2.277   1.345   2.935
17473WAT     H252662   2.201   1.476   2.875
17474WAT      O52663   7.588   6.698   2.838
17474WAT     H152664   7.677   6.732   2.868
17474WAT     H252665   7.518   6.729   2.901
17475WAT      O52666   0.412   3.858   9.231
17475WAT     H152667   0.443   3.847   9.326
17475WAT     H252668   0.314   3.876   9.230
17476WAT      O52669   8.496   5.856   7.297
17476WAT     H152670   8.438   5.825   7.371
17476WAT     H252671   8.449   5.844   7.210
17477WAT      O52672   6.124   1.353   1.243
17477WAT     H152673   6.092   1.346   1.338
17477WAT     H252674   6.054   1.318   1.181
17478WAT      O52675   9.243   4.115   1.600
17478WAT     H152676   9.164   4.169   1.572
17478WAT     H252677   9.218   4.056   1.677
17479WAT      O52678   1.050   0.672   5.331
17479WAT     H152679   1.128   0.670   5.268
17479WAT     H252680   0.967   0.696   5.281
17480WAT      O52681   1.438   8.481   6.368
17480WAT     H152682   1.390   8.524   6.444
17480WAT     H252683   1.528   8.523   6.357
17481WAT      O52684   8.792   4.919   7.006
17481WAT     H152685   8.741   4.949   7.086
17481WAT     H252686   8.796   4.819   7.004
17482WAT      O52687   2.917   1.201   7.861
17482WAT     H152688   2.894   1.296   7.885
17482WAT     H252689   2.971   1.201   7.777
17483WAT      O52690   2.835   6.338   8.350
17483WAT     H152691   2.778   6.410   8.389
17483WAT     H252692   2.811   6.250   8.392
17484WAT      O52693   1.385   7.410   3.044
17484WAT     H152694   1.321   7.461   2.986
17484WAT     H252695   1.475   7.408   3.000
17485WAT      O52696   4.909   3.804   8.553
17485WAT     H152697   4.903   3.727   8.617
17485WAT     H252698   4.895   3.770   8.460
17486WAT      O52699   6.249   7.921   5.009
17486WAT     H152700   6.170   7.860   5.010
17486WAT     H252701   6.262   7.961   5.100
17487WAT      O52702   2.379   6.181   6.674
17487WAT     H152703   2.405   6.268   6.632
17487WAT     H252704   2.446   6.111   6.649
17488WAT      O52705   0.320   0.693   3.953
17488WAT     H152706   0.343   0.673   4.049
17488WAT     H252707   0.344   0.615   3.896
17489WAT      O52708   8.809   3.888   8.515
17489WAT     H152709   8.822   3.790   8.502
17489WAT     H252710   8.874   3.922   8.583
17490WAT      O52711   1.853   3.802   8.572
17490WAT     H152712   1.947   3.833   8.588
17490WAT     H252713   1.791   3.852   8.632
17491WAT      O52714   8.774   9.611   3.048
17491WAT     H152715   8.723   9.652   2.972
17491WAT     H252716   8.866   9.651   3.052
17492WAT      O52717   3.713   6.617   8.627
17492WAT     H152718   3.762   6.667   8.698
17492WAT     H252719   3.630   6.577   8.667
17493WAT      O52720   6.496   2.200   9.821
17493WAT     H152721   6.545   2.238   9.899
17493WAT     H252722   6.559   2.185   9.745
17494WAT      O52723   9.628   4.420   1.949
17494WAT     H152724   9.636   4.515   1.982
17494WAT     H252725   9.715   4.392   1.909
17495WAT      O52726   3.405   7.469   8.621
17495WAT     H152727   3.383   7.467   8.719
17495WAT     H252728   3.460   7.388   8.598
17496WAT      O52729   7.157   7.444   5.506
17496WAT     H152730   7.209   7.418   5.424
17496WAT     H252731   7.204   7.519   5.552
17497WAT      O52732   4.251   1.221   6.540
17497WAT     H152733   4.248   1.138   6.484
17497WAT     H252734   4.192   1.208   6.620
17498WAT      O52735   3.392   0.375   0.676
17498WAT     H152736   3.420   0.403   0.767
17498WAT     H252737   3.326   0.299   0.683
17499WAT      O52738   1.279   6.670   1.603
17499WAT     H152739   1.283   6.765   1.574
17499WAT     H252740   1.199   6.656   1.661
17500WAT      O52741   9.435   9.269   3.546
17500WAT     H152742   9.415   9.318   3.462
17500WAT     H252743   9.497   9.193   3.526
17501WAT      O52744   5.495   0.757   4.312
17501WAT     H152745   5.467   0.726   4.221
17501WAT     H252746   5.592   0.780   4.311
17502WAT      O52747   4.444   2.228   5.371
17502WAT     H152748   4.361   2.172   5.365
17502WAT     H252749   4.521   2.179   5.331
17503WAT      O52750   8.728   3.224   5.735
17503WAT     H152751   8.826   3.242   5.727
17503WAT     H252752   8.685   3.295   5.791
17504WAT      O52753   8.751   0.933   6.729
17504WAT     H152754   8.691   1.001   6.686
17504WAT     H252755   8.795   0.974   6.809
17505WAT      O52756   7.808   8.301   6.124
17505WAT     H152757   7.843   8.385   6.084
17505WAT     H252758   7.818   8.226   6.058
17506WAT      O52759   0.605   4.540   1.186
17506WAT     H152760   0.646   4.622   1.226
17506WAT     H252761   0.552   4.564   1.106
17507WAT      O52762   2.981   8.414   2.065
17507WAT     H152763   2.931   8.366   2.137
17507WAT     H252764   3.079   8.404   2.079
17508WAT      O52765   1.481   0.096   4.457
17508WAT     H152766   1.496   0.011   4.407
17508WAT     H252767   1.462   0.170   4.393
17509WAT      O52768   1.027   9.610   9.792
17509WAT     H152769   1.086   9.634   9.715
17509WAT     H252770   0.931   9.617   9.765
17510WAT      O52771   8.729   2.616   0.445
17510WAT     H152772   8.819   2.649   0.473
17510WAT     H252773   8.686   2.682   0.384
17511WAT      O52774   8.176   1.095   4.946
17511WAT     H152775   8.141   1.011   4.988
17511WAT     H252776   8.133   1.174   4.989
17512WAT      O52777   6.028   9.386   1.050
17512WAT     H152778   6.063   9.462   1.107
17512WAT     H252779   5.936   9.361   1.081
17513WAT      O52780   8.352   2.517   5.962
17513WAT     H152781   8.434   2.473   5.997
17513WAT     H252782   8.272   2.463   5.987
17514WAT      O52783   4.943   0.554   3.394
17514WAT     H152784   4.852   0.592   3.403
17514WAT     H252785   5.008   0.626   3.368
17515WAT      O52786   0.058   4.925   0.553
17515WAT     H152787   0.104   4.837   0.544
17515WAT     H252788  -0.005   4.921   0.631
17516WAT      O52789   9.045   7.552   8.345
17516WAT     H152790   8.967   7.537   8.405
17516WAT     H252791   9.021   7.523   8.252
17517WAT      O52792   7.481   7.546   8.144
17517WAT     H152793   7.401   7.552   8.085
17517WAT     H252794   7.528   7.635   8.146
17518WAT      O52795   3.451   3.903   6.995
17518WAT     H152796   3.517   3.944   6.933
17518WAT     H252797   3.466   3.804   7.000
17519WAT      O52798   6.267   2.094   8.751
17519WAT     H152799   6.330   2.129   8.681
17519WAT     H252800   6.276   2.150   8.834
17520WAT      O52801   6.401   5.236   3.946
17520WAT     H152802   6.389   5.274   4.038
17520WAT     H252803   6.313   5.204   3.912
17521WAT      O52804   6.368   2.079   0.710
17521WAT     H152805   6.282   2.049   0.670
17521WAT     H252806   6.355   2.096   0.808
17522WAT      O52807   4.244   0.418   2.996
17522WAT     H152808   4.152   0.438   2.962
17522WAT     H252809   4.294   0.366   2.926
17523WAT      O52810   6.283   1.164   4.634
17523WAT     H152811   6.331   1.248   4.610
17523WAT     H252812   6.333   1.086   4.597
17524WAT      O52813   9.184   1.388   8.117
17524WAT     H152814   9.181   1.347   8.025
17524WAT     H252815   9.130   1.333   8.180
17525WAT      O52816   9.190   8.485   3.179
17525WAT     H152817   9.203   8.452   3.272
17525WAT     H252818   9.139   8.416   3.127
17526WAT      O52819   4.137   2.733   2.405
17526WAT     H152820   4.147   2.782   2.492
17526WAT     H252821   4.152   2.635   2.420
17527WAT      O52822   1.130   3.402   3.424
17527WAT     H152823   1.112   3.494   3.458
17527WAT     H252824   1.058   3.376   3.360
17528WAT      O52825   6.935   2.851   5.153
17528WAT     H152826   6.927   2.761   5.195
17528WAT     H252827   6.925   2.843   5.054
17529WAT      O52828   3.070   0.994   0.144
17529WAT     H152829   3.122   0.939   0.078
17529WAT     H252830   3.045   0.937   0.222
17530WAT      O52831   2.145   2.673   4.018
17530WAT     H152832   2.237   2.707   4.001
17530WAT     H252833   2.085   2.750   4.040
17531WAT      O52834   1.261   4.729   1.118
17531WAT     H152835   1.200   4.697   1.190
17531WAT     H252836   1.210   4.741   1.033
17532WAT      O52837   3.694   6.086   3.486
17532WAT     H152838   3.604   6.042   3.479
17532WAT     H252839   3.730   6.072   3.578
17533WAT      O52840   7.940   6.430   3.790
17533WAT     H152841   7.852   6.416   3.835
17533WAT     H252842   7.969   6.525   3.801
17534WAT      O52843   0.191   2.650   1.253
17534WAT     H152844   0.149   2.619   1.338
17534WAT     H252845   0.236   2.573   1.208
17535WAT      O52846   8.454   8.997   0.659
17535WAT     H152847   8.541   9.017   0.705
17535WAT     H252848   8.379   9.015   0.721
17536WAT      O52849   8.966   3.230   0.132
17536WAT     H152850   9.016   3.305   0.174
17536WAT     H252851   9.023   3.186   0.063
17537WAT      O52852   5.433   8.370   0.822
17537WAT     H152853   5.510   8.363   0.759
17537WAT     H252854   5.455   8.322   0.907
17538WAT      O52855   5.182   3.282   3.649
17538WAT     H152856   5.136   3.204   3.607
17538WAT     H252857   5.274   3.291   3.611
17539WAT      O52858   5.654   3.906   1.037
17539WAT     H152859   5.604   3.821   1.019
17539WAT     H252860   5.748   3.896   1.005
17540WAT      O52861   9.679   7.471   8.933
17540WAT     H152862   9.679   7.484   9.033
17540WAT     H252863   9.715   7.554   8.889
17541WAT      O52864   6.518   8.131   2.517
17541WAT     H152865   6.459   8.063   2.473
17541WAT     H252866   6.516   8.215   2.463
17542WAT      O52867   4.484   9.263   6.761
17542WAT     H152868   4.485   9.280   6.860
17542WAT     H252869   4.528   9.176   6.741
17543WAT      O52870   8.636   8.739   7.022
17543WAT     H152871   8.564   8.712   7.087
17543WAT     H252872   8.595   8.758   6.933
17544WAT      O52873   1.890   1.947   5.988
17544WAT     H152874   1.868   2.032   5.939
17544WAT     H252875   1.958   1.896   5.936
17545WAT      O52876   1.800   4.437   8.205
17545WAT     H152877   1.784   4.341   8.228
17545WAT     H252878   1.715   4.479   8.174
17546WAT      O52879   3.472   0.531   7.194
17546WAT     H152880   3.536   0.574   7.258
17546WAT     H252881   3.389   0.587   7.187
17547WAT      O52882   6.373   7.895   8.788
17547WAT     H152883   6.293   7.872   8.732
17547WAT     H252884   6.453   7.905   8.729
17548WAT      O52885   8.698   4.427   9.237
17548WAT     H152886   8.641   4.357   9.280
17548WAT     H252887   8.708   4.406   9.140
17549WAT      O52888   8.135   4.607   8.196
17549WAT     H152889   8.217   4.576   8.244
17549WAT     H252890   8.082   4.528   8.166
17550WAT      O52891   6.360   8.399   0.050
17550WAT     H152892   6.424   8.338   0.096
17550WAT     H252893   6.268   8.385   0.086
17551WAT      O52894   7.787   4.091   4.194
17551WAT     H152895   7.770   4.103   4.097
17551WAT     H252896   7.708   4.046   4.237
17552WAT      O52897   5.733   9.607   0.882
17552WAT     H152898   5.746   9.675   0.809
17552WAT     H252899   5.667   9.538   0.852
17553WAT      O52900   7.615   1.810   0.079
17553WAT     H152901   7.603   1.860  -0.007
17553WAT     H252902   7.591   1.714   0.065
17554WAT      O52903   8.441   8.162   4.093
17554WAT     H152904   8.524   8.118   4.128
17554WAT     H252905   8.403   8.221   4.164
17555WAT      O52906   1.008   0.159   0.827
17555WAT     H152907   1.088   0.099   0.832
17555WAT     H252908   1.032   0.250   0.860
17556WAT      O52909   9.083   0.937   6.805
17556WAT     H152910   9.016   0.987   6.860
17556WAT     H252911   9.044   0.849   6.778
17557WAT      O52912   7.017   4.607   4.993
17557WAT     H152913   6.927   4.588   5.034
17557WAT     H252914   7.004   4.650   4.903
17558WAT      O52915   8.612   1.291   9.360
17558WAT     H152916   8.660   1.220   9.411
17558WAT     H252917   8.549   1.249   9.295
17559WAT      O52918   4.415   4.973   1.133
17559WAT     H152919   4.322   5.009   1.125
17559WAT     H252920   4.479   5.050   1.140
17560WAT      O52921   8.730   3.109   3.779
17560WAT     H152922   8.701   3.157   3.696
17560WAT     H252923   8.828   3.125   3.794
17561WAT      O52924   9.865   7.568   8.236
17561WAT     H152925   9.837   7.515   8.315
17561WAT     H252926   9.950   7.532   8.199
17562WAT      O52927   9.695   9.528   2.394
17562WAT     H152928   9.710   9.457   2.463
17562WAT     H252929   9.678   9.616   2.438
17563WAT      O52930   9.760   9.829   7.316
17563WAT     H152931   9.787   9.733   7.318
17563WAT     H252932   9.826   9.884   7.367
17564WAT      O52933   8.593   5.647   1.845
17564WAT     H152934   8.535   5.714   1.891
17564WAT     H252935   8.562   5.555   1.868
17565WAT      O52936   2.849   4.652   3.209
17565WAT     H152937   2.923   4.712   3.179
17565WAT     H252938   2.771   4.663   3.147
17566WAT      O52939   5.954   1.167   8.916
17566WAT     H152940   5.856   1.150   8.918
17566WAT     H252941   5.978   1.214   8.831
17567WAT      O52942   6.770   0.122   6.049
17567WAT     H152943   6.842   0.059   6.019
17567WAT     H252944   6.811   0.211   6.073
17568WAT      O52945   6.573   9.045   8.581
17568WAT     H152946   6.662   9.000   8.594
17568WAT     H252947   6.570   9.129   8.636
17569WAT      O52948   4.299   9.710   1.528
17569WAT     H152949   4.252   9.683   1.612
17569WAT     H252950   4.292   9.637   1.460
17570WAT      O52951   6.868   8.701   9.191
17570WAT     H152952   6.823   8.697   9.280
17570WAT     H252953   6.951   8.757   9.198
17571WAT      O52954   2.481   2.427   5.583
17571WAT     H152955   2.507   2.469   5.496
17571WAT     H252956   2.483   2.497   5.655
17572WAT      O52957   6.078   3.106   9.197
17572WAT     H152958   6.001   3.160   9.163
17572WAT     H252959   6.147   3.168   9.236
17573WAT      O52960   6.030   8.836   2.996
17573WAT     H152961   5.986   8.801   2.914
17573WAT     H252962   6.036   8.763   3.065
17574WAT      O52963   8.068   4.153   2.950
17574WAT     H152964   8.054   4.062   2.989
17574WAT     H252965   8.079   4.219   3.023
17575WAT      O52966   1.764   5.982   4.461
17575WAT     H152967   1.765   6.013   4.557
17575WAT     H252968   1.728   5.889   4.456
17576WAT      O52969   5.211   1.056   6.486
17576WAT     H152970   5.281   1.082   6.419
17576WAT     H252971   5.164   1.139   6.518
17577WAT      O52972   0.401   9.130   9.868
17577WAT     H152973   0.340   9.209   9.880
17577WAT     H252974   0.348   9.051   9.838
17578WAT      O52975   2.629   2.204   4.839
17578WAT     H152976   2.694   2.255   4.783
17578WAT     H252977   2.603   2.259   4.918
17579WAT      O52978   5.375   4.712   3.789
17579WAT     H152979   5.450   4.696   3.853
17579WAT     H252980   5.404   4.691   3.696
17580WAT      O52981   5.177   7.264   7.862
17580WAT     H152982   5.211   7.199   7.930
17580WAT     H252983   5.231   7.348   7.866
17581WAT      O52984   4.662   0.577   5.457
17581WAT     H152985   4.701   0.494   5.416
17581WAT     H252986   4.588   0.551   5.520
17582WAT      O52987   2.824   4.086   8.300
17582WAT     H152988   2.918   4.052   8.295
17582WAT     H252989   2.763   4.013   8.332
17583WAT      O52990   8.736   6.658   7.726
17583WAT     H152991   8.745   6.572   7.677
17583WAT     H252992   8.685   6.643   7.811
17584WAT      O52993   0.052   7.518   4.169
17584WAT     H152994   0.096   7.528   4.080
17584WAT     H252995  -0.035   7.567   4.169
17585WAT      O52996   9.599   4.923   8.483
17585WAT     H152997   9.526   4.970   8.533
17585WAT     H252998   9.624   4.976   8.402
17586WAT      O52999   6.253   7.200   4.193
17586WAT     H153000   6.198   7.149   4.259
17586WAT     H253001   6.230   7.297   4.197
17587WAT      O53002   4.487   5.382   3.114
17587WAT     H153003   4.512   5.415   3.205
17587WAT     H253004   4.435   5.297   3.123
17588WAT      O53005   9.755   1.957   9.620
17588WAT     H153006   9.847   1.961   9.660
17588WAT     H253007   9.746   1.876   9.563
17589WAT      O53008   0.139   0.072   4.055
17589WAT     H153009   0.198  -0.009   4.057
17589WAT     H253010   0.091   0.076   3.967
17590WAT      O53011   3.425   2.011   0.962
17590WAT     H153012   3.336   2.014   1.006
17590WAT     H253013   3.496   2.031   1.029
17591WAT      O53014   3.495   9.498   2.327
17591WAT     H153015   3.449   9.431   2.386
17591WAT     H253016   3.554   9.556   2.383
17592WAT      O53017   4.104   4.814   6.453
17592WAT     H153018   4.044   4.790   6.376
17592WAT     H253019   4.053   4.806   6.539
17593WAT      O53020   4.165   8.853   5.755
17593WAT     H153021   4.255   8.860   5.799
17593WAT     H253022   4.133   8.945   5.731
17594WAT      O53023   3.496   9.427   0.949
17594WAT     H153024   3.486   9.337   0.992
17594WAT     H253025   3.445   9.428   0.863
17595WAT      O53026   6.277   8.265   1.117
17595WAT     H153027   6.222   8.183   1.099
17595WAT     H253028   6.254   8.336   1.051
17596WAT      O53029   6.387   3.691   1.837
17596WAT     H153030   6.322   3.753   1.794
17596WAT     H253031   6.471   3.687   1.782
17597WAT      O53032   3.793   9.259   9.031
17597WAT     H153033   3.787   9.314   8.948
17597WAT     H253034   3.716   9.280   9.091
17598WAT      O53035   0.443   5.870   0.077
17598WAT     H153036   0.387   5.888   0.158
17598WAT     H253037   0.408   5.789   0.030
17599WAT      O53038   3.206   1.864   8.496
17599WAT     H153039   3.137   1.935   8.493
17599WAT     H253040   3.183   1.791   8.431
17600WAT      O53041   1.134   1.131   7.146
17600WAT     H153042   1.041   1.152   7.113
17600WAT     H253043   1.160   1.199   7.215
17601WAT      O53044   7.211   1.702   7.158
17601WAT     H153045   7.115   1.719   7.136
17601WAT     H253046   7.266   1.710   7.074
17602WAT      O53047   1.996   6.596   6.143
17602WAT     H153048   2.075   6.551   6.100
17602WAT     H253049   1.947   6.650   6.075
17603WAT      O53050   9.249   4.261   8.031
17603WAT     H153051   9.164   4.214   8.056
17603WAT     H253052   9.244   4.356   8.062
17604WAT      O53053   0.771   8.123   3.781
17604WAT     H153054   0.776   8.041   3.724
17604WAT     H253055   0.712   8.104   3.860
17605WAT      O53056   1.702   9.077   7.430
17605WAT     H153057   1.632   9.066   7.359
17605WAT     H253058   1.783   9.023   7.405
17606WAT      O53059   8.300   7.721   7.562
17606WAT     H153060   8.300   7.702   7.660
17606WAT     H253061   8.208   7.744   7.532
17607WAT      O53062   5.294   6.168   2.600
17607WAT     H153063   5.196   6.153   2.595
17607WAT     H253064   5.326   6.149   2.692
17608WAT      O53065   4.134   0.602   6.141
17608WAT     H153066   4.060   0.589   6.207
17608WAT     H253067   4.163   0.514   6.105
17609WAT      O53068   2.618   7.737   5.106
17609WAT     H153069   2.609   7.691   5.018
17609WAT     H253070   2.653   7.829   5.092
17610WAT      O53071   3.011   2.994   4.619
17610WAT     H153072   2.977   2.912   4.666
17610WAT     H253073   2.975   2.995   4.525
17611WAT      O53074   2.195   3.134   6.170
17611WAT     H153075   2.280   3.081   6.170
17611WAT     H253076   2.138   3.106   6.247
17612WAT      O53077   8.376   4.886   8.092
17612WAT     H153078   8.331   4.823   8.028
17612WAT     H253079   8.465   4.911   8.056
17613WAT      O53080   2.933   0.292   8.512
17613WAT     H153081   3.025   0.319   8.485
17613WAT     H253082   2.866   0.355   8.471
17614WAT      O53083   0.803   7.833   9.064
17614WAT     H153084   0.714   7.786   9.062
17614WAT     H253085   0.875   7.766   9.079
17615WAT      O53086   8.889   0.555   3.831
17615WAT     H153087   8.810   0.588   3.881
17615WAT     H253088   8.937   0.633   3.789
17616WAT      O53089   8.975   0.675   7.019
17616WAT     H153090   8.978   0.750   6.953
17616WAT     H253091   8.942   0.592   6.974
17617WAT      O53092   2.511   3.766   6.681
17617WAT     H153093   2.499   3.841   6.616
17617WAT     H253094   2.602   3.726   6.669
17618WAT      O53095   7.485   7.997   9.802
17618WAT     H153096   7.551   7.927   9.773
17618WAT     H253097   7.394   7.957   9.807
17619WAT      O53098   7.831   6.637   8.832
17619WAT     H153099   7.910   6.627   8.893
17619WAT     H253100   7.827   6.731   8.798
17620WAT      O53101   5.318   7.493   5.393
17620WAT     H153102   5.364   7.475   5.306
17620WAT     H253103   5.359   7.439   5.465
17621WAT      O53104   7.149   0.911   1.197
17621WAT     H153105   7.237   0.936   1.236
17621WAT     H253106   7.111   0.834   1.249
17622WAT      O53107   4.011   2.011   8.765
17622WAT     H153108   4.062   1.997   8.850
17622WAT     H253109   4.064   1.973   8.688
17623WAT      O53110   1.769   8.077   6.745
17623WAT     H153111   1.701   8.020   6.791
17623WAT     H253112   1.859   8.060   6.785
17624WAT      O53113   8.644   2.572   4.475
17624WAT     H153114   8.655   2.669   4.451
17624WAT     H253115   8.669   2.560   4.571
17625WAT      O53116   8.405   5.803   6.995
17625WAT     H153117   8.403   5.885   6.938
17625WAT     H253118   8.395   5.722   6.937
17626WAT      O53119   3.958   5.339   4.599
17626WAT     H153120   3.961   5.420   4.541
17626WAT     H253121   3.910   5.265   4.552
17627WAT      O53122   0.815   7.204   0.408
17627WAT     H153123   0.843   7.288   0.455
17627WAT     H253124   0.724   7.177   0.440
17628WAT      O53125   7.628   6.890   8.976
17628WAT     H153126   7.532   6.900   8.951
17628WAT     H253127   7.683   6.885   8.893
17629WAT      O53128   2.054   3.481   1.109
17629WAT     H153129   1.997   3.557   1.140
17629WAT     H253130   2.149   3.512   1.102
17630WAT      O53131   5.704   6.784   3.799
17630WAT     H153132   5.656   6.697   3.809
17630WAT     H253133   5.797   6.776   3.835
17631WAT      O53134   7.362   0.062   5.167
17631WAT     H153135   7.358   0.002   5.247
17631WAT     H253136   7.446   0.116   5.171
17632WAT      O53137   5.660   1.657   0.738
17632WAT     H153138   5.618   1.569   0.716
17632WAT     H253139   5.638   1.681   0.832
17633WAT      O53140   8.652   5.146   4.066
17633WAT     H153141   8.698   5.086   4.001
17633WAT     H253142   8.565   5.176   4.029
17634WAT      O53143   0.190   8.277   1.402
17634WAT     H153144   0.167   8.349   1.468
17634WAT     H253145   0.239   8.317   1.324
17635WAT      O53146   1.821   6.492   9.562
17635WAT     H153147   1.779   6.581   9.583
17635WAT     H253148   1.814   6.433   9.643
17636WAT      O53149   6.641   0.478   3.539
17636WAT     H153150   6.671   0.387   3.510
17636WAT     H253151   6.559   0.503   3.488
17637WAT      O53152   2.860   8.456   9.711
17637WAT     H153153   2.828   8.546   9.681
17637WAT     H253154   2.850   8.390   9.636
17638WAT      O53155   3.949   9.012   2.134
17638WAT     H153156   4.046   9.003   2.155
17638WAT     H253157   3.896   9.004   2.218
17639WAT      O53158   1.618   7.012   6.104
17639WAT     H153159   1.604   6.962   6.019
17639WAT     H253160   1.534   7.012   6.158
17640WAT      O53161   3.210   4.889   6.003
17640WAT     H153162   3.294   4.865   5.953
17640WAT     H253163   3.230   4.960   6.070
17641WAT      O53164   5.399   7.319   9.733
17641WAT     H153165   5.489   7.337   9.694
17641WAT     H253166   5.409   7.265   9.817
17642WAT      O53167   2.802   8.277   2.258
17642WAT     H153168   2.745   8.358   2.263
17642WAT     H253169   2.809   8.234   2.348
17643WAT      O53170   5.841   0.251   1.651
17643WAT     H153171   5.836   0.173   1.588
17643WAT     H253172   5.859   0.218   1.743
17644WAT      O53173   8.791   7.372   6.105
17644WAT     H153174   8.704   7.410   6.137
17644WAT     H253175   8.834   7.438   6.042
17645WAT      O53176   9.698   2.241   7.741
17645WAT     H153177   9.665   2.146   7.738
17645WAT     H253178   9.795   2.241   7.765
17646WAT      O53179   7.796   4.927   1.705
17646WAT     H153180   7.737   4.945   1.783
17646WAT     H253181   7.784   5.000   1.636
17647WAT      O53182   3.696   6.164   8.308
17647WAT     H153183   3.768   6.171   8.377
17647WAT     H253184   3.609   6.194   8.347
17648WAT      O53185   8.179   0.984   0.503
17648WAT     H153186   8.198   0.976   0.601
17648WAT     H253187   8.221   0.907   0.455
17649WAT      O53188   9.186   4.062   7.615
17649WAT     H153189   9.247   4.124   7.665
17649WAT     H253190   9.098   4.107   7.601
17650WAT      O53191   6.691   2.165   3.482
17650WAT     H153192   6.710   2.259   3.457
17650WAT     H253193   6.665   2.161   3.579
17651WAT      O53194   6.808   3.638   3.709
17651WAT     H153195   6.852   3.554   3.740
17651WAT     H253196   6.872   3.690   3.653
17652WAT      O53197   6.254   7.668   2.424
17652WAT     H153198   6.263   7.682   2.523
17652WAT     H253199   6.257   7.570   2.403
17653WAT      O53200   0.340   7.993   3.523
17653WAT     H153201   0.257   7.957   3.480
17653WAT     H253202   0.337   8.093   3.522
17654WAT      O53203   8.777   0.416   1.028
17654WAT     H153204   8.871   0.382   1.039
17654WAT     H253205   8.770   0.507   1.068
17655WAT      O53206   9.098   6.139   3.882
17655WAT     H153207   9.053   6.067   3.829
17655WAT     H253208   9.197   6.131   3.872
17656WAT      O53209   4.443   2.809   2.961
17656WAT     H153210   4.449   2.908   2.966
17656WAT     H253211   4.520   2.768   3.010
17657WAT      O53212   5.525   1.265   9.027
17657WAT     H153213   5.556   1.354   8.993
17657WAT     H253214   5.572   1.244   9.112
17658WAT      O53215   6.543   4.155   1.032
17658WAT     H153216   6.544   4.227   1.102
17658WAT     H253217   6.501   4.191   0.949
17659WAT      O53218   2.078   2.568   9.507
17659WAT     H153219   2.102   2.495   9.570
17659WAT     H253220   2.109   2.656   9.543
17660WAT      O53221   4.443   4.828   5.168
17660WAT     H153222   4.521   4.785   5.123
17660WAT     H253223   4.471   4.860   5.259
17661WAT      O53224   4.234   3.977   8.300
17661WAT     H153225   4.187   3.928   8.227
17661WAT     H253226   4.269   3.911   8.367
17662WAT      O53227   8.852   8.223   1.899
17662WAT     H153228   8.941   8.261   1.923
17662WAT     H253229   8.786   8.243   1.971
17663WAT      O53230   6.013   2.572   7.857
17663WAT     H153231   6.004   2.504   7.785
17663WAT     H253232   5.935   2.635   7.852
17664WAT      O53233   7.494   4.517   2.131
17664WAT     H153234   7.440   4.468   2.199
17664WAT     H253235   7.509   4.458   2.052
17665WAT      O53236   6.918   6.183   2.661
17665WAT     H153237   6.919   6.088   2.692
17665WAT     H253238   6.953   6.242   2.734
17666WAT      O53239   0.217   6.330   7.489
17666WAT     H153240   0.187   6.346   7.583
17666WAT     H253241   0.202   6.413   7.435
17667WAT      O53242   3.197   7.870   8.604
17667WAT     H153243   3.263   7.943   8.621
17667WAT     H253244   3.226   7.817   8.524
17668WAT      O53245   3.187   4.878   0.861
17668WAT     H153246   3.241   4.942   0.916
17668WAT     H253247   3.100   4.922   0.835
17669WAT      O53248   4.359   0.798   8.246
17669WAT     H153249   4.424   0.849   8.303
17669WAT     H253250   4.269   0.842   8.250
17670WAT      O53251   4.498   0.191   5.694
17670WAT     H153252   4.534   0.259   5.629
17670WAT     H253253   4.399   0.187   5.687
17671WAT      O53254   7.079   1.142   7.694
17671WAT     H153255   7.139   1.063   7.681
17671WAT     H253256   7.000   1.116   7.749
17672WAT      O53257   4.424   0.669   8.726
17672WAT     H153258   4.414   0.614   8.643
17672WAT     H253259   4.415   0.766   8.702
17673WAT      O53260   7.022   7.630   0.341
17673WAT     H153261   7.102   7.689   0.350
17673WAT     H253262   7.003   7.588   0.430
17674WAT      O53263   2.765   6.593   3.541
17674WAT     H153264   2.791   6.688   3.524
17674WAT     H253265   2.707   6.560   3.466
17675WAT      O53266   9.071   1.708   1.120
17675WAT     H153267   8.985   1.710   1.170
17675WAT     H253268   9.143   1.749   1.175
17676WAT      O53269   7.977   7.443   6.320
17676WAT     H153270   7.930   7.370   6.369
17676WAT     H253271   8.033   7.496   6.383
17677WAT      O53272   7.765   5.992   4.488
17677WAT     H153273   7.838   6.032   4.433
17677WAT     H253274   7.782   6.010   4.584
17678WAT      O53275   5.826   4.206   8.520
17678WAT     H153276   5.831   4.284   8.583
17678WAT     H253277   5.732   4.172   8.516
17679WAT      O53278   7.922   9.636   5.467
17679WAT     H153279   7.889   9.728   5.492
17679WAT     H253280   7.849   9.587   5.419
17680WAT      O53281   0.336   7.546   0.294
17680WAT     H153282   0.301   7.638   0.312
17680WAT     H253283   0.389   7.515   0.374
17681WAT      O53284   7.840   9.843   8.397
17681WAT     H153285   7.889   9.916   8.443
17681WAT     H253286   7.905   9.775   8.363
17682WAT      O53287   2.633   7.794   9.553
17682WAT     H153288   2.540   7.805   9.517
17682WAT     H253289   2.683   7.728   9.497
17683WAT      O53290   4.522   6.286   4.247
17683WAT     H153291   4.513   6.352   4.321
17683WAT     H253292   4.505   6.194   4.282
17684WAT      O53293   0.818   6.075   8.903
17684WAT     H153294   0.891   6.101   8.966
17684WAT     H253295   0.857   6.030   8.823
17685WAT      O53296   9.578   2.852   0.247
17685WAT     H153297   9.513   2.927   0.261
17685WAT     H253298   9.529   2.765   0.249
17686WAT      O53299   6.159   3.337   2.329
17686WAT     H153300   6.171   3.239   2.345
17686WAT     H253301   6.230   3.369   2.265
17687WAT      O53302   4.061   2.872   5.385
17687WAT     H153303   4.112   2.949   5.346
17687WAT     H253304   4.069   2.793   5.325
17688WAT      O53305   3.129   9.504   7.363
17688WAT     H153306   3.065   9.541   7.431
17688WAT     H253307   3.088   9.423   7.321
17689WAT      O53308   3.555   3.893   2.264
17689WAT     H153309   3.565   3.816   2.200
17689WAT     H253310   3.606   3.972   2.229
17690WAT      O53311   9.696   7.795   2.476
17690WAT     H153312   9.777   7.853   2.474
17690WAT     H253313   9.708   7.723   2.544
17691WAT      O53314   3.673   4.779   1.174
17691WAT     H153315   3.659   4.875   1.150
17691WAT     H253316   3.648   4.765   1.270
17692WAT      O53317   2.989   4.397   5.698
17692WAT     H153318   2.977   4.336   5.620
17692WAT     H253319   2.939   4.482   5.682
17693WAT      O53320   0.676   6.618   0.943
17693WAT     H153321   0.627   6.532   0.955
17693WAT     H253322   0.726   6.617   0.856
17694WAT      O53323   1.421   2.208   1.073
17694WAT     H153324   1.419   2.308   1.061
17694WAT     H253325   1.328   2.173   1.065
17695WAT      O53326   3.381   6.183   0.734
17695WAT     H153327   3.413   6.235   0.655
17695WAT     H253328   3.281   6.183   0.736
17696WAT      O53329   3.465   5.436   8.239
17696WAT     H153330   3.468   5.486   8.325
17696WAT     H253331   3.373   5.398   8.226
17697WAT      O53332   3.840   3.921   1.455
17697WAT     H153333   3.838   4.018   1.429
17697WAT     H253334   3.883   3.912   1.544
17698WAT      O53335   1.004   5.361   6.834
17698WAT     H153336   0.939   5.395   6.766
17698WAT     H253337   1.085   5.326   6.787
17699WAT      O53338   9.663   4.163   1.278
17699WAT     H153339   9.743   4.207   1.237
17699WAT     H253340   9.619   4.226   1.342
17700WAT      O53341   4.456   5.383   9.477
17700WAT     H153342   4.505   5.296   9.480
17700WAT     H253343   4.374   5.377   9.533
17701WAT      O53344   4.751   6.065   5.185
17701WAT     H153345   4.762   6.135   5.255
17701WAT     H253346   4.707   6.105   5.105
17702WAT      O53347   4.463   9.383   5.501
17702WAT     H153348   4.383   9.323   5.511
17702WAT     H253349   4.449   9.465   5.556
17703WAT      O53350   9.885   2.660   1.023
17703WAT     H153351   9.946   2.668   1.102
17703WAT     H253352   9.848   2.751   1.002
17704WAT      O53353   0.853   6.256   5.912
17704WAT     H153354   0.937   6.202   5.911
17704WAT     H253355   0.839   6.293   6.004
17705WAT      O53356   3.152   1.616   3.826
17705WAT     H153357   3.110   1.533   3.862
17705WAT     H253358   3.120   1.695   3.878
17706WAT      O53359   4.294   4.327   2.066
17706WAT     H153360   4.277   4.336   2.164
17706WAT     H253361   4.332   4.237   2.046
17707WAT      O53362   0.207   9.583   8.976
17707WAT     H153363   0.241   9.554   8.887
17707WAT     H253364   0.235   9.678   8.993
17708WAT      O53365   7.202   2.896   8.693
17708WAT     H153366   7.254   2.934   8.770
17708WAT     H253367   7.127   2.958   8.670
17709WAT      O53368   2.533   3.998   0.638
17709WAT     H153369   2.623   3.974   0.603
17709WAT     H253370   2.468   3.925   0.615
17710WAT      O53371   9.409   5.193   3.920
17710WAT     H153372   9.372   5.254   3.850
17710WAT     H253373   9.503   5.170   3.898
17711WAT      O53374   5.072   4.766   3.913
17711WAT     H153375   5.112   4.675   3.920
17711WAT     H253376   5.145   4.834   3.907
17712WAT      O53377   1.922   7.750   7.014
17712WAT     H153378   1.974   7.751   6.928
17712WAT     H253379   1.885   7.842   7.032
17713WAT      O53380   1.955   8.980   3.426
17713WAT     H153381   1.871   9.024   3.458
17713WAT     H253382   2.001   8.935   3.503
17714WAT      O53383   2.842   5.963   0.655
17714WAT     H153384   2.811   5.973   0.749
17714WAT     H253385   2.802   6.036   0.599
17715WAT      O53386   9.227   8.329   9.352
17715WAT     H153387   9.248   8.406   9.413
17715WAT     H253388   9.309   8.272   9.342
17716WAT      O53389   4.993   1.247   7.912
17716WAT     H153390   5.083   1.264   7.872
17716WAT     H253391   4.960   1.157   7.881
17717WAT      O53392   8.107   6.465   7.535
17717WAT     H153393   8.047   6.385   7.536
17717WAT     H253394   8.132   6.489   7.629
17718WAT      O53395   9.657   9.432   7.506
17718WAT     H153396   9.566   9.474   7.498
17718WAT     H253397   9.701   9.465   7.590
17719WAT      O53398   8.147   2.998   9.049
17719WAT     H153399   8.172   3.095   9.049
17719WAT     H253400   8.178   2.956   9.134
17720WAT      O53401   0.042   4.196   0.173
17720WAT     H153402  -0.024   4.208   0.099
17720WAT     H253403  -0.005   4.170   0.257
17721WAT      O53404   1.984   1.665   9.107
17721WAT     H153405   1.956   1.624   9.193
17721WAT     H253406   2.071   1.713   9.118
17722WAT      O53407   7.528   9.700   0.338
17722WAT     H153408   7.622   9.693   0.371
17722WAT     H253409   7.470   9.738   0.410
17723WAT      O53410   5.786   9.444   9.705
17723WAT     H153411   5.770   9.490   9.617
17723WAT     H253412   5.874   9.475   9.742
17724WAT      O53413   6.276   5.164   3.441
17724WAT     H153414   6.333   5.234   3.483
17724WAT     H253415   6.191   5.205   3.408
17725WAT      O53416   6.928   5.510   4.912
17725WAT     H153417   6.854   5.447   4.937
17725WAT     H253418   6.904   5.603   4.942
17726WAT      O53419   8.280   1.259   2.784
17726WAT     H153420   8.213   1.247   2.710
17726WAT     H253421   8.262   1.345   2.831
17727WAT      O53422   6.189   0.246   6.403
17727WAT     H153423   6.120   0.187   6.361
17727WAT     H253424   6.144   0.321   6.451
17728WAT      O53425   0.191   6.015   6.862
17728WAT     H153426   0.113   5.998   6.922
17728WAT     H253427   0.167   6.086   6.796
17729WAT      O53428   8.961   3.008   5.892
17729WAT     H153429   8.872   2.988   5.933
17729WAT     H253430   8.950   3.023   5.794
17730WAT      O53431   1.684   1.732   4.228
17730WAT     H153432   1.727   1.698   4.311
17730WAT     H253433   1.602   1.785   4.251
17731WAT      O53434   8.197   7.859   2.154
17731WAT     H153435   8.156   7.768   2.152
17731WAT     H253436   8.183   7.901   2.244
17732WAT      O53437   2.246   9.341   8.667
17732WAT     H153438   2.322   9.310   8.724
17732WAT     H253439   2.174   9.273   8.667
17733WAT      O53440   7.643   2.317   7.458
17733WAT     H153441   7.562   2.260   7.475
17733WAT     H253442   7.712   2.298   7.528
17734WAT      O53443   5.259   3.506   7.287
17734WAT     H153444   5.258   3.606   7.288
17734WAT     H253445   5.351   3.474   7.265
17735WAT      O53446   8.351   0.107   7.150
17735WAT     H153447   8.315   0.169   7.081
17735WAT     H253448   8.443   0.077   7.125
17736WAT      O53449   5.823   0.687   1.330
17736WAT     H153450   5.883   0.706   1.407
17736WAT     H253451   5.771   0.769   1.306
17737WAT      O53452   2.689   0.535   2.106
17737WAT     H153453   2.645   0.609   2.159
17737WAT     H253454   2.788   0.539   2.119
17738WAT      O53455   1.589   5.765   2.325
17738WAT     H153456   1.595   5.673   2.364
17738WAT     H253457   1.579   5.759   2.226
17739WAT      O53458   4.427   3.040   6.811
17739WAT     H153459   4.439   2.947   6.776
17739WAT     H253460   4.346   3.043   6.870
17740WAT      O53461   8.449   0.463   5.808
17740WAT     H153462   8.423   0.551   5.847
17740WAT     H253463   8.393   0.391   5.848
17741WAT      O53464   4.657   7.759   8.190
17741WAT     H153465   4.705   7.703   8.122
17741WAT     H253466   4.701   7.849   8.194
17742WAT      O53467   2.674   4.763   4.122
17742WAT     H153468   2.610   4.691   4.096
17742WAT     H253469   2.707   4.809   4.040
17743WAT      O53470   8.723   0.129   2.801
17743WAT     H153471   8.672   0.049   2.832
17743WAT     H253472   8.800   0.099   2.743
17744WAT      O53473   8.862   0.901   5.099
17744WAT     H153474   8.863   0.860   5.191
17744WAT     H253475   8.821   0.837   5.035
17745WAT      O53476   7.432   8.140   4.717
17745WAT     H153477   7.520   8.097   4.697
17745WAT     H253478   7.418   8.218   4.655
17746WAT      O53479   4.660   3.717   3.424
17746WAT     H153480   4.657   3.770   3.510
17746WAT     H253481   4.580   3.657   3.420
17747WAT      O53482   5.423   4.546   2.054
17747WAT     H153483   5.500   4.483   2.060
17747WAT     H253484   5.424   4.609   2.131
17748WAT      O53485   4.259   4.689   2.583
17748WAT     H153486   4.346   4.655   2.547
17748WAT     H253487   4.276   4.761   2.650
17749WAT      O53488   3.689   7.749   2.671
17749WAT     H153489   3.700   7.650   2.684
17749WAT     H253490   3.635   7.786   2.747
17750WAT      O53491   2.800   3.823   8.909
17750WAT     H153492   2.771   3.897   8.848
17750WAT     H253493   2.720   3.782   8.952
17751WAT      O53494   8.065   7.531   2.927
17751WAT     H153495   8.054   7.463   2.855
17751WAT     H253496   8.022   7.498   3.011
17752WAT      O53497   1.590   5.793   8.782
17752WAT     H153498   1.578   5.827   8.875
17752WAT     H253499   1.570   5.866   8.717
17753WAT      O53500   0.763   5.700   3.236
17753WAT     H153501   0.790   5.685   3.141
17753WAT     H253502   0.668   5.730   3.239
17754WAT      O53503   1.865   1.979   6.277
17754WAT     H153504   1.901   1.986   6.184
17754WAT     H253505   1.930   1.929   6.335
17755WAT      O53506   8.541   0.320   3.982
17755WAT     H153507   8.634   0.332   4.017
17755WAT     H253508   8.510   0.406   3.942
17756WAT      O53509   6.023   0.907   4.279
17756WAT     H153510   6.116   0.887   4.251
17756WAT     H253511   6.023   0.982   4.346
17757WAT      O53512   3.634   0.059   2.132
17757WAT     H153513   3.598   0.062   2.038
17757WAT     H253514   3.730   0.033   2.130
17758WAT      O53515   2.448   0.147   3.113
17758WAT     H153516   2.424   0.134   3.016
17758WAT     H253517   2.393   0.086   3.170
17759WAT      O53518   3.570   1.271   0.584
17759WAT     H153519   3.581   1.177   0.552
17759WAT     H253520   3.644   1.328   0.547
17760WAT      O53521   0.822   3.749   7.507
17760WAT     H153522   0.825   3.753   7.407
17760WAT     H253523   0.784   3.835   7.543
17761WAT      O53524   8.996   6.951   8.957
17761WAT     H153525   8.943   6.870   8.932
17761WAT     H253526   9.093   6.928   8.957
17762WAT      O53527   0.341   2.192   5.717
17762WAT     H153528   0.294   2.127   5.776
17762WAT     H253529   0.369   2.147   5.633
17763WAT      O53530   1.520   1.743   9.863
17763WAT     H153531   1.608   1.777   9.897
17763WAT     H253532   1.463   1.715   9.940
17764WAT      O53533   6.763   6.440   3.720
17764WAT     H153534   6.796   6.471   3.631
17764WAT     H253535   6.693   6.503   3.753
17765WAT      O53536   8.909   3.963   5.914
17765WAT     H153537   8.902   3.867   5.885
17765WAT     H253538   9.006   3.990   5.918
17766WAT      O53539   6.304   2.901   8.500
17766WAT     H153540   6.240   2.945   8.436
17766WAT     H253541   6.264   2.899   8.591
17767WAT      O53542   0.074   2.301   0.756
17767WAT     H153543   0.118   2.286   0.844
17767WAT     H253544   0.024   2.388   0.758
17768WAT      O53545   5.261   9.206   3.330
17768WAT     H153546   5.303   9.242   3.247
17768WAT     H253547   5.246   9.280   3.395
17769WAT      O53548   5.220   9.005   1.054
17769WAT     H153549   5.158   9.022   0.977
17769WAT     H253550   5.314   8.996   1.020
17770WAT      O53551   4.058   8.128   4.763
17770WAT     H153552   4.126   8.196   4.791
17770WAT     H253553   4.074   8.042   4.812
17771WAT      O53554   5.851   2.400   1.550
17771WAT     H153555   5.930   2.442   1.506
17771WAT     H253556   5.796   2.352   1.481
17772WAT      O53557   3.493   9.337   1.833
17772WAT     H153558   3.535   9.339   1.743
17772WAT     H253559   3.483   9.431   1.867
17773WAT      O53560   8.449   5.997   1.353
17773WAT     H153561   8.485   5.913   1.393
17773WAT     H253562   8.364   5.976   1.303
17774WAT      O53563   1.512   4.042   7.449
17774WAT     H153564   1.497   4.131   7.492
17774WAT     H253565   1.510   4.053   7.349
17775WAT      O53566   6.765   8.681   8.178
17775WAT     H153567   6.684   8.630   8.206
17775WAT     H253568   6.793   8.743   8.252
17776WAT      O53569   5.063   1.209   8.554
17776WAT     H153570   5.052   1.305   8.578
17776WAT     H253571   5.132   1.200   8.482
17777WAT      O53572   8.861   2.186   9.471
17777WAT     H153573   8.920   2.155   9.396
17777WAT     H253574   8.883   2.136   9.554
17778WAT      O53575   2.843   8.252   9.106
17778WAT     H153576   2.933   8.253   9.149
17778WAT     H253577   2.788   8.328   9.142
17779WAT      O53578   6.219   0.611   9.712
17779WAT     H153579   6.221   0.711   9.714
17779WAT     H253580   6.139   0.578   9.760
17780WAT      O53581   8.168   8.587   2.798
17780WAT     H153582   8.072   8.610   2.784
17780WAT     H253583   8.176   8.516   2.867
17781WAT      O53584   4.313   6.880   1.484
17781WAT     H153585   4.347   6.974   1.483
17781WAT     H253586   4.381   6.821   1.527
17782WAT      O53587   4.553   1.652   5.070
17782WAT     H153588   4.562   1.677   5.166
17782WAT     H253589   4.586   1.726   5.012
17783WAT      O53590   3.786   4.719   2.784
17783WAT     H153591   3.711   4.741   2.723
17783WAT     H253592   3.871   4.756   2.748
17784WAT      O53593   3.798   4.203   0.262
17784WAT     H153594   3.703   4.182   0.236
17784WAT     H253595   3.827   4.287   0.216
17785WAT      O53596   1.402   1.079   6.098
17785WAT     H153597   1.370   1.140   6.171
17785WAT     H253598   1.394   0.984   6.128
17786WAT      O53599   3.345   8.108   4.870
17786WAT     H153600   3.281   8.167   4.822
17786WAT     H253601   3.375   8.152   4.955
17787WAT      O53602   6.480   1.219   8.180
17787WAT     H153603   6.391   1.259   8.158
17787WAT     H253604   6.540   1.226   8.101
17788WAT      O53605   8.545   7.518   5.138
17788WAT     H153606   8.575   7.435   5.090
17788WAT     H253607   8.597   7.596   5.105
17789WAT      O53608   3.638   7.005   3.077
17789WAT     H153609   3.673   7.004   3.171
17789WAT     H253610   3.558   6.945   3.072
17790WAT      O53611   2.117   0.743   1.539
17790WAT     H153612   2.020   0.731   1.561
17790WAT     H253613   2.129   0.827   1.486
17791WAT      O53614   7.933   0.438   5.548
17791WAT     H153615   7.982   0.375   5.488
17791WAT     H253616   7.925   0.527   5.503
17792WAT      O53617   2.752   3.284   6.039
17792WAT     H153618   2.657   3.279   6.007
17792WAT     H253619   2.802   3.352   5.984
17793WAT      O53620   2.858   1.552   6.258
17793WAT     H153621   2.781   1.609   6.227
17793WAT     H253622   2.918   1.606   6.317
17794WAT      O53623   9.287   2.239   8.728
17794WAT     H153624   9.350   2.181   8.778
17794WAT     H253625   9.225   2.284   8.793
17795WAT      O53626   4.109   7.023   7.227
17795WAT     H153627   4.197   7.053   7.191
17795WAT     H253628   4.043   7.098   7.219
17796WAT      O53629   1.353   9.005   6.415
17796WAT     H153630   1.253   8.998   6.420
17796WAT     H253631   1.386   8.947   6.340
17797WAT      O53632   4.212   2.351   1.758
17797WAT     H153633   4.114   2.353   1.738
17797WAT     H253634   4.239   2.257   1.781
17798WAT      O53635   1.521   9.627   6.793
17798WAT     H153636   1.530   9.719   6.829
17798WAT     H253637   1.427   9.613   6.761
17799WAT      O53638   2.091   9.501   7.021
17799WAT     H153639   2.017   9.451   6.976
17799WAT     H253640   2.171   9.442   7.029
17800WAT      O53641   7.868   2.850   8.255
17800WAT     H153642   7.822   2.770   8.216
17800WAT     H253643   7.960   2.825   8.285
17801WAT      O53644   2.353   1.398   3.540
17801WAT     H153645   2.402   1.432   3.460
17801WAT     H253646   2.352   1.298   3.538
17802WAT      O53647   6.916   2.936   6.539
17802WAT     H153648   6.924   2.873   6.616
17802WAT     H253649   6.956   3.024   6.564
17803WAT      O53650   8.719   4.557   7.755
17803WAT     H153651   8.792   4.491   7.739
17803WAT     H253652   8.728   4.595   7.847
17804WAT      O53653   5.633   5.547   4.535
17804WAT     H153654   5.657   5.625   4.594
17804WAT     H253655   5.666   5.565   4.442
17805WAT      O53656   8.925   1.260   0.313
17805WAT     H153657   8.953   1.237   0.220
17805WAT     H253658   8.829   1.290   0.313
17806WAT      O53659   1.209   0.495   6.940
17806WAT     H153660   1.127   0.529   6.894
17806WAT     H253661   1.265   0.572   6.970
17807WAT      O53662   3.046   9.225   0.553
17807WAT     H153663   2.955   9.231   0.513
17807WAT     H253664   3.043   9.253   0.649
17808WAT      O53665   1.300   9.381   0.321
17808WAT     H153666   1.312   9.289   0.358
17808WAT     H253667   1.259   9.375   0.230
17809WAT      O53668   8.424   8.992   3.168
17809WAT     H153669   8.432   9.069   3.105
17809WAT     H253670   8.503   8.931   3.155
17810WAT      O53671   7.251   5.131   7.335
17810WAT     H153672   7.284   5.116   7.428
17810WAT     H253673   7.221   5.043   7.297
17811WAT      O53674   0.743   6.315   4.725
17811WAT     H153675   0.801   6.249   4.678
17811WAT     H253676   0.794   6.400   4.739
17812WAT      O53677   0.369   3.260   8.344
17812WAT     H153678   0.428   3.219   8.275
17812WAT     H253679   0.325   3.341   8.307
17813WAT      O53680   0.940   7.093   5.567
17813WAT     H153681   0.850   7.105   5.527
17813WAT     H253682   0.972   6.999   5.550
17814WAT      O53683   8.978   2.519   9.018
17814WAT     H153684   8.974   2.518   9.118
17814WAT     H253685   8.902   2.573   8.983
17815WAT      O53686   2.320   6.004   9.883
17815WAT     H153687   2.308   6.103   9.891
17815WAT     H253688   2.270   5.970   9.804
17816WAT      O53689   1.797   0.493   7.494
17816WAT     H153690   1.893   0.471   7.514
17816WAT     H253691   1.754   0.531   7.576
17817WAT      O53692   8.081   1.818   4.404
17817WAT     H153693   8.151   1.749   4.383
17817WAT     H253694   8.114   1.908   4.376
17818WAT      O53695   8.434   5.670   6.626
17818WAT     H153696   8.450   5.750   6.569
17818WAT     H253697   8.489   5.677   6.710
17819WAT      O53698   8.970   3.820   4.124
17819WAT     H153699   8.932   3.817   4.032
17819WAT     H253700   8.930   3.897   4.174
17820WAT      O53701   9.543   7.272   1.323
17820WAT     H153702   9.480   7.327   1.268
17820WAT     H253703   9.592   7.208   1.264
17821WAT      O53704   5.564   1.517   0.509
17821WAT     H153705   5.478   1.556   0.541
17821WAT     H253706   5.623   1.590   0.473
17822WAT      O53707   6.139   3.551   3.866
17822WAT     H153708   6.099   3.512   3.783
17822WAT     H253709   6.117   3.493   3.944
17823WAT      O53710   7.314   6.486   1.506
17823WAT     H153711   7.246   6.441   1.564
17823WAT     H253712   7.357   6.420   1.446
17824WAT      O53713   6.129   7.042   1.135
17824WAT     H153714   6.076   6.970   1.091
17824WAT     H253715   6.140   7.021   1.232
17825WAT      O53716   9.476   0.675   0.773
17825WAT     H153717   9.547   0.743   0.794
17825WAT     H253718   9.390   0.722   0.752
17826WAT      O53719   8.499   8.671   3.729
17826WAT     H153720   8.494   8.766   3.760
17826WAT     H253721   8.480   8.610   3.806
17827WAT      O53722   1.258   3.738   8.760
17827WAT     H153723   1.288   3.755   8.854
17827WAT     H253724   1.209   3.651   8.756
17828WAT      O53725   3.073   3.465   8.802
17828WAT     H153726   3.082   3.564   8.791
17828WAT     H253727   2.993   3.432   8.752
17829WAT      O53728   3.912   1.414   6.280
17829WAT     H153729   3.912   1.513   6.271
17829WAT     H253730   3.884   1.389   6.373
17830WAT      O53731   4.987   3.032   3.922
17830WAT     H153732   4.960   2.944   3.963
17830WAT     H253733   4.912   3.066   3.865
17831WAT      O53734   4.654   8.353   3.906
17831WAT     H153735   4.692   8.430   3.855
17831WAT     H253736   4.614   8.288   3.841
17832WAT      O53737   7.628   2.995   1.889
17832WAT     H153738   7.574   2.920   1.928
17832WAT     H253739   7.705   3.016   1.948
17833WAT      O53740   0.689   7.651   1.127
17833WAT     H153741   0.651   7.735   1.166
17833WAT     H253742   0.705   7.664   1.029
17834WAT      O53743   9.770   3.693   9.865
17834WAT     H153744   9.854   3.699   9.811
17834WAT     H253745   9.752   3.598   9.889
17835WAT      O53746   8.864   3.108   0.379
17835WAT     H153747   8.956   3.138   0.355
17835WAT     H253748   8.799   3.182   0.359
17836WAT      O53749   0.829   3.837   1.788
17836WAT     H153750   0.876   3.880   1.864
17836WAT     H253751   0.845   3.890   1.704
17837WAT      O53752   2.116   6.222   4.754
17837WAT     H153753   2.185   6.201   4.823
17837WAT     H253754   2.161   6.240   4.666
17838WAT      O53755   0.799   0.365   8.502
17838WAT     H153756   0.837   0.450   8.539
17838WAT     H253757   0.872   0.298   8.491
17839WAT      O53758   7.209   5.595   8.656
17839WAT     H153759   7.262   5.628   8.577
17839WAT     H253760   7.126   5.649   8.665
17840WAT      O53761   5.181   5.665   8.098
17840WAT     H153762   5.252   5.596   8.116
17840WAT     H253763   5.219   5.737   8.040
17841WAT      O53764   1.225   0.000   6.864
17841WAT     H153765   1.143   0.055   6.844
17841WAT     H253766   1.282  -0.005   6.782
17842WAT      O53767   0.285   4.809   1.853
17842WAT     H153768   0.318   4.736   1.913
17842WAT     H253769   0.271   4.892   1.907
17843WAT      O53770   6.304   2.626   4.660
17843WAT     H153771   6.228   2.689   4.674
17843WAT     H253772   6.327   2.581   4.746
17844WAT      O53773   6.689   4.029   5.882
17844WAT     H153774   6.750   3.950   5.892
17844WAT     H253775   6.595   3.998   5.874
17845WAT      O53776   3.403   6.957   9.081
17845WAT     H153777   3.472   6.895   9.045
17845WAT     H253778   3.347   6.910   9.149
17846WAT      O53779   5.899   1.841   6.992
17846WAT     H153780   5.995   1.832   7.016
17846WAT     H253781   5.892   1.880   6.900
17847WAT      O53782   7.046   7.460   4.794
17847WAT     H153783   7.146   7.468   4.791
17847WAT     H253784   7.005   7.532   4.738
17848WAT      O53785   7.266   5.898   3.657
17848WAT     H153786   7.356   5.940   3.648
17848WAT     H253787   7.275   5.798   3.653
17849WAT      O53788   1.295   9.817   1.168
17849WAT     H153789   1.260   9.904   1.133
17849WAT     H253790   1.331   9.830   1.260
17850WAT      O53791   4.923   7.383   8.815
17850WAT     H153792   4.939   7.286   8.796
17850WAT     H253793   4.930   7.435   8.731
17851WAT      O53794   6.683   0.497   7.550
17851WAT     H153795   6.622   0.439   7.497
17851WAT     H253796   6.639   0.523   7.636
17852WAT      O53797   8.201   0.000   5.189
17852WAT     H153798   8.110  -0.002   5.147
17852WAT     H253799   8.238   0.093   5.184
17853WAT      O53800   1.741   4.727   3.472
17853WAT     H153801   1.644   4.752   3.469
17853WAT     H253802   1.793   4.787   3.411
17854WAT      O53803   4.313   1.615   8.701
17854WAT     H153804   4.408   1.604   8.733
17854WAT     H253805   4.253   1.631   8.779
17855WAT      O53806   0.951   2.312   0.045
17855WAT     H153807   0.977   2.378   0.116
17855WAT     H253808   1.032   2.288  -0.008
17856WAT      O53809   2.226   7.363   7.103
17856WAT     H153810   2.223   7.463   7.107
17856WAT     H253811   2.231   7.334   7.007
17857WAT      O53812   5.261   9.833   3.168
17857WAT     H153813   5.326   9.907   3.151
17857WAT     H253814   5.282   9.755   3.109
17858WAT      O53815   1.603   0.584   0.224
17858WAT     H153816   1.553   0.562   0.308
17858WAT     H253817   1.689   0.629   0.247
17859WAT      O53818   8.539   0.122   4.615
17859WAT     H153819   8.554   0.090   4.522
17859WAT     H253820   8.571   0.054   4.680
17860WAT      O53821   9.526   6.387   3.113
17860WAT     H153822   9.525   6.313   3.046
17860WAT     H253823   9.518   6.349   3.205
17861WAT      O53824   7.229   0.866   4.642
17861WAT     H153825   7.154   0.930   4.632
17861WAT     H253826   7.209   0.802   4.717
17862WAT      O53827   6.270   2.398   6.391
17862WAT     H153828   6.263   2.364   6.298
17862WAT     H253829   6.366   2.393   6.421
17863WAT      O53830   9.160   0.138   4.455
17863WAT     H153831   9.094   0.069   4.486
17863WAT     H253832   9.117   0.227   4.450
17864WAT      O53833   6.707   5.260   1.446
17864WAT     H153834   6.617   5.302   1.460
17864WAT     H253835   6.767   5.327   1.402
17865WAT      O53836   2.261   3.971   0.793
17865WAT     H153837   2.347   4.019   0.812
17865WAT     H253838   2.252   3.956   0.695
17866WAT      O53839   6.011   9.547   5.801
17866WAT     H153840   6.021   9.464   5.856
17866WAT     H253841   6.065   9.539   5.718
17867WAT      O53842   4.306   7.069   9.302
17867WAT     H153843   4.329   7.162   9.275
17867WAT     H253844   4.220   7.042   9.259
17868WAT      O53845   3.999   7.307   8.433
17868WAT     H153846   3.968   7.261   8.350
17868WAT     H253847   3.969   7.402   8.432
17869WAT      O53848   6.393   2.169   7.342
17869WAT     H153849   6.367   2.225   7.264
17869WAT     H253850   6.430   2.081   7.310
17870WAT      O53851   4.364   1.752   8.469
17870WAT     H153852   4.353   1.846   8.501
17870WAT     H253853   4.362   1.690   8.547
17871WAT      O53854   7.482   3.228   7.885
17871WAT     H153855   7.519   3.298   7.946
17871WAT     H253856   7.498   3.255   7.790
17872WAT      O53857   5.898   0.467   4.471
17872WAT     H153858   5.953   0.384   4.481
17872WAT     H253859   5.802   0.443   4.460
17873WAT      O53860   2.617   5.495   6.021
17873WAT     H153861   2.536   5.529   5.973
17873WAT     H253862   2.697   5.550   5.997
17874WAT      O53863   2.393   4.538   2.617
17874WAT     H153864   2.425   4.537   2.522
17874WAT     H253865   2.302   4.580   2.621
17875WAT      O53866   0.515   0.805   0.104
17875WAT     H153867   0.554   0.894   0.079
17875WAT     H253868   0.582   0.733   0.089
17876WAT      O53869   9.026   1.025   0.400
17876WAT     H153870   8.974   1.103   0.364
17876WAT     H253871   9.016   0.947   0.339
17877WAT      O53872   9.156   6.720   0.732
17877WAT     H153873   9.190   6.795   0.675
17877WAT     H253874   9.057   6.732   0.746
17878WAT      O53875   7.654   4.100   4.553
17878WAT     H153876   7.753   4.111   4.558
17878WAT     H253877   7.632   4.030   4.485
17879WAT      O53878   6.274   8.973   2.966
17879WAT     H153879   6.340   8.899   2.955
17879WAT     H253880   6.182   8.936   2.975
17880WAT      O53881   3.521   8.922   9.498
17880WAT     H153882   3.506   8.835   9.545
17880WAT     H253883   3.555   8.989   9.564
17881WAT      O53884   8.195   6.024   9.281
17881WAT     H153885   8.128   6.067   9.221
17881WAT     H253886   8.160   6.023   9.375
17882WAT      O53887   5.228   8.378   0.427
17882WAT     H153888   5.314   8.418   0.460
17882WAT     H253889   5.154   8.406   0.488
17883WAT      O53890   8.708   4.758   3.748
17883WAT     H153891   8.803   4.727   3.751
17883WAT     H253892   8.698   4.841   3.804
17884WAT      O53893   5.000   2.157   8.669
17884WAT     H153894   4.965   2.176   8.761
17884WAT     H253895   4.988   2.238   8.612
17885WAT      O53896   9.298   4.437   2.175
17885WAT     H153897   9.358   4.388   2.112
17885WAT     H253898   9.203   4.410   2.159
17886WAT      O53899   2.110   9.397   5.903
17886WAT     H153900   2.108   9.467   5.975
17886WAT     H253901   2.017   9.361   5.890
17887WAT      O53902   3.511   2.232   2.920
17887WAT     H153903   3.461   2.244   3.006
17887WAT     H253904   3.582   2.162   2.932
17888WAT      O53905   7.014   6.081   9.052
17888WAT     H153906   7.015   6.171   9.096
17888WAT     H253907   7.043   6.089   8.957
17889WAT      O53908   9.223   1.740   8.697
17889WAT     H153909   9.323   1.734   8.693
17889WAT     H253910   9.195   1.834   8.676
17890WAT      O53911   3.457   8.903   0.024
17890WAT     H153912   3.484   8.963  -0.051
17890WAT     H253913   3.486   8.809   0.004
17891WAT      O53914   1.329   5.868   3.501
17891WAT     H153915   1.360   5.917   3.419
17891WAT     H253916   1.236   5.896   3.524
17892WAT      O53917   9.109   9.462   4.049
17892WAT     H153918   9.010   9.462   4.064
17892WAT     H253919   9.128   9.460   3.951
17893WAT      O53920   4.918   0.332   4.954
17893WAT     H153921   4.956   0.284   4.875
17893WAT     H253922   4.839   0.282   4.990
17894WAT      O53923   8.406   8.791   4.065
17894WAT     H153924   8.309   8.799   4.042
17894WAT     H253925   8.461   8.841   3.998
17895WAT      O53926   9.429   1.416   8.248
17895WAT     H153927   9.339   1.427   8.206
17895WAT     H253928   9.476   1.505   8.248
17896WAT      O53929   8.896   7.984   2.184
17896WAT     H153930   8.932   8.048   2.252
17896WAT     H253931   8.973   7.939   2.138
17897WAT      O53932   2.738   9.064   2.534
17897WAT     H153933   2.681   9.089   2.455
17897WAT     H253934   2.790   8.982   2.512
17898WAT      O53935   7.586   4.827   7.868
17898WAT     H153936   7.676   4.805   7.830
17898WAT     H253937   7.534   4.742   7.881
17899WAT      O53938   5.414   8.050   2.301
17899WAT     H153939   5.352   8.036   2.223
17899WAT     H253940   5.408   7.971   2.362
17900WAT      O53941   6.751   9.750   7.181
17900WAT     H153942   6.754   9.818   7.108
17900WAT     H253943   6.670   9.765   7.237
17901WAT      O53944   2.776   3.970   4.339
17901WAT     H153945   2.713   4.022   4.282
17901WAT     H253946   2.733   3.948   4.427
17902WAT      O53947   3.894   0.701   7.416
17902WAT     H153948   3.881   0.800   7.423
17902WAT     H253949   3.992   0.680   7.419
17903WAT      O53950   2.440   6.533   3.593
17903WAT     H153951   2.492   6.452   3.619
17903WAT     H253952   2.492   6.615   3.618
17904WAT      O53953   6.205   5.193   5.518
17904WAT     H153954   6.275   5.262   5.538
17904WAT     H253955   6.244   5.102   5.525
17905WAT      O53956   1.137   1.829   9.011
17905WAT     H153957   1.046   1.799   8.982
17905WAT     H253958   1.133   1.861   9.105
17906WAT      O53959   9.576   4.664   6.341
17906WAT     H153960   9.655   4.645   6.282
17906WAT     H253961   9.503   4.705   6.287
17907WAT      O53962   2.149   1.216   0.709
17907WAT     H153963   2.077   1.154   0.678
17907WAT     H253964   2.119   1.311   0.695
17908WAT      O53965   9.329   4.584   0.416
17908WAT     H153966   9.233   4.609   0.402
17908WAT     H253967   9.353   4.508   0.355
17909WAT      O53968   3.431   3.312   9.385
17909WAT     H153969   3.466   3.284   9.474
17909WAT     H253970   3.333   3.330   9.392
17910WAT      O53971   9.753   9.518   4.656
17910WAT     H153972   9.768   9.478   4.565
17910WAT     H253973   9.753   9.445   4.724
17911WAT      O53974   2.066   3.022   5.964
17911WAT     H153975   2.094   3.094   5.901
17911WAT     H253976   2.089   3.048   6.058
17912WAT      O53977   0.262   7.318   5.855
17912WAT     H153978   0.348   7.369   5.848
17912WAT     H253979   0.199   7.368   5.915
17913WAT      O53980   2.067   8.012   6.189
17913WAT     H153981   2.050   8.111   6.191
17913WAT     H253982   1.983   7.964   6.164
17914WAT      O53983   2.722   1.312   0.152
17914WAT     H153984   2.713   1.378   0.226
17914WAT     H253985   2.816   1.309   0.120
17915WAT      O53986   3.233   9.365   5.074
17915WAT     H153987   3.203   9.458   5.052
17915WAT     H253988   3.157   9.314   5.113
17916WAT      O53989   9.180   3.263   7.216
17916WAT     H153990   9.203   3.177   7.170
17916WAT     H253991   9.210   3.340   7.161
17917WAT      O53992   6.694   6.392   2.777
17917WAT     H153993   6.677   6.293   2.775
17917WAT     H253994   6.728   6.422   2.687
17918WAT      O53995   3.237   9.036   3.256
17918WAT     H153996   3.220   9.065   3.162
17918WAT     H253997   3.213   8.939   3.265
17919WAT      O53998   4.095   1.071   5.991
17919WAT     H153999   4.096   1.021   5.905
17919WAT     H254000   4.007   1.117   6.002
17920WAT      O54001   5.736   9.267   1.736
17920WAT     H154002   5.714   9.169   1.738
17920WAT     H254003   5.681   9.312   1.665
17921WAT      O54004   8.347   0.287   3.375
17921WAT     H154005   8.441   0.295   3.409
17921WAT     H254006   8.346   0.236   3.289
17922WAT      O54007   0.615   6.844   5.422
17922WAT     H154008   0.584   6.872   5.513
17922WAT     H254009   0.602   6.745   5.412
17923WAT      O54010   2.825   1.795   8.538
17923WAT     H154011   2.730   1.815   8.560
17923WAT     H254012   2.868   1.877   8.498
17924WAT      O54013   0.950   6.011   3.965
17924WAT     H154014   0.860   6.000   4.008
17924WAT     H254015   0.978   6.107   3.969
17925WAT      O54016   0.727   6.674   1.548
17925WAT     H154017   0.788   6.627   1.484
17925WAT     H254018   0.675   6.606   1.601
17926WAT      O54019   4.174   4.895   2.073
17926WAT     H154020   4.217   4.982   2.050
17926WAT     H254021   4.099   4.877   2.009
17927WAT      O54022   4.449   8.159   1.417
17927WAT     H154023   4.491   8.088   1.473
17927WAT     H254024   4.455   8.135   1.321
17928WAT      O54025   3.478   9.641   6.818
17928WAT     H154026   3.566   9.597   6.836
17928WAT     H254027   3.456   9.634   6.721
17929WAT      O54028   3.411   8.990   2.527
17929WAT     H154029   3.510   9.001   2.531
17929WAT     H254030   3.384   8.953   2.438
17930WAT      O54031   8.182   4.746   2.111
17930WAT     H154032   8.255   4.756   2.178
17930WAT     H254033   8.100   4.710   2.156
17931WAT      O54034   0.170   0.819   0.878
17931WAT     H154035   0.219   0.768   0.807
17931WAT     H254036   0.119   0.755   0.935
17932WAT      O54037   4.243   1.194   9.355
17932WAT     H154038   4.326   1.143   9.335
17932WAT     H254039   4.205   1.231   9.270
17933WAT      O54040   8.704   9.602   7.935
17933WAT     H154041   8.751   9.680   7.894
17933WAT     H254042   8.606   9.611   7.922
17934WAT      O54043   3.166   2.448   0.172
17934WAT     H154044   3.112   2.431   0.254
17934WAT     H254045   3.223   2.368   0.152
17935WAT      O54046   2.647   5.739   0.663
17935WAT     H154047   2.729   5.787   0.632
17935WAT     H254048   2.573   5.754   0.597
17936WAT      O54049   7.975   6.475   7.058
17936WAT     H154050   7.883   6.514   7.058
17936WAT     H254051   8.034   6.528   6.996
17937WAT      O54052   5.171   2.651   3.879
17937WAT     H154053   5.212   2.717   3.816
17937WAT     H254054   5.093   2.693   3.924
17938WAT      O54055   8.134   4.723   9.022
17938WAT     H154056   8.114   4.809   8.974
17938WAT     H254057   8.153   4.742   9.118
17939WAT      O54058   2.159   5.444   6.144
17939WAT     H154059   2.078   5.439   6.085
17939WAT     H254060   2.184   5.539   6.158
17940WAT      O54061   5.153   1.007   7.993
17940WAT     H154062   5.185   1.093   7.954
17940WAT     H254063   5.232   0.951   8.020
17941WAT      O54064   6.964   8.572   5.276
17941WAT     H154065   6.927   8.482   5.252
17941WAT     H254066   7.034   8.598   5.210
17942WAT      O54067   3.256   9.313   4.786
17942WAT     H154068   3.255   9.322   4.886
17942WAT     H254069   3.186   9.372   4.747
17943WAT      O54070   8.190   1.992   6.815
17943WAT     H154071   8.262   1.993   6.884
17943WAT     H254072   8.134   2.074   6.823
17944WAT      O54073   6.226   3.176   5.421
17944WAT     H154074   6.275   3.258   5.392
17944WAT     H254075   6.245   3.157   5.517
17945WAT      O54076   3.752   1.967   6.146
17945WAT     H154077   3.818   2.013   6.087
17945WAT     H254078   3.801   1.923   6.222
17946WAT      O54079   3.970   3.859   1.687
17946WAT     H154080   4.030   3.935   1.710
17946WAT     H254081   3.955   3.802   1.768
17947WAT      O54082   8.244   6.374   7.045
17947WAT     H154083   8.150   6.405   7.033
17947WAT     H254084   8.248   6.275   7.035
17948WAT      O54085   0.338   5.824   3.729
17948WAT     H154086   0.352   5.846   3.826
17948WAT     H254087   0.415   5.858   3.675
17949WAT      O54088   2.903   8.962   7.721
17949WAT     H154089   2.923   8.888   7.656
17949WAT     H254090   2.841   8.928   7.792
17950WAT      O54091   9.005   8.794   4.593
17950WAT     H154092   8.959   8.713   4.628
17950WAT     H254093   9.103   8.777   4.587
17951WAT      O54094   9.793   3.992   7.112
17951WAT     H154095   9.766   4.074   7.161
17951WAT     H254096   9.888   4.002   7.080
17952WAT      O54097   3.392   8.085   5.266
17952WAT     H154098   3.480   8.098   5.220
17952WAT     H254099   3.367   8.169   5.314
17953WAT      O54100   0.560   3.905   0.530
17953WAT     H154101   0.596   3.856   0.609
17953WAT     H254102   0.619   3.982   0.508
17954WAT      O54103   6.401   8.294   1.649
17954WAT     H154104   6.373   8.283   1.554
17954WAT     H254105   6.423   8.204   1.688
17955WAT      O54106   7.307   6.958   4.963
17955WAT     H154107   7.237   6.992   5.025
17955WAT     H254108   7.281   6.978   4.869
17956WAT      O54109   3.372   4.649   3.648
17956WAT     H154110   3.413   4.647   3.556
17956WAT     H254111   3.411   4.577   3.704
17957WAT      O54112   0.909   9.314   1.768
17957WAT     H154113   0.896   9.396   1.712
17957WAT     H254114   0.825   9.260   1.767
17958WAT      O54115   5.149   1.084   3.957
17958WAT     H154116   5.119   1.012   3.894
17958WAT     H254117   5.158   1.046   4.049
17959WAT      O54118   4.889   4.618   6.723
17959WAT     H154119   4.933   4.530   6.743
17959WAT     H254120   4.960   4.687   6.706
17960WAT      O54121   7.182   6.392   6.916
17960WAT     H154122   7.223   6.460   6.855
17960WAT     H254123   7.251   6.326   6.946
17961WAT      O54124   5.837   1.540   3.998
17961WAT     H154125   5.800   1.626   3.964
17961WAT     H254126   5.818   1.467   3.932
17962WAT      O54127   7.757   3.891   8.740
17962WAT     H154128   7.788   3.830   8.813
17962WAT     H254129   7.833   3.950   8.712
17963WAT      O54130   2.449   6.586   0.717
17963WAT     H154131   2.404   6.580   0.806
17963WAT     H254132   2.507   6.668   0.715
17964WAT      O54133   6.452   6.427   2.194
17964WAT     H154134   6.390   6.351   2.175
17964WAT     H254135   6.407   6.493   2.254
17965WAT      O54136   8.289   2.647   0.690
17965WAT     H154137   8.298   2.717   0.619
17965WAT     H254138   8.209   2.667   0.746
17966WAT      O54139   4.623   8.628   1.071
17966WAT     H154140   4.605   8.546   1.015
17966WAT     H254141   4.564   8.627   1.151
17967WAT      O54142   8.414   0.232   8.544
17967WAT     H154143   8.508   0.263   8.562
17967WAT     H254144   8.363   0.305   8.499
17968WAT      O54145   4.404   8.236   6.456
17968WAT     H154146   4.304   8.239   6.463
17968WAT     H254147   4.445   8.271   6.541
17969WAT      O54148   1.278   3.267   6.958
17969WAT     H154149   1.253   3.252   6.862
17969WAT     H254150   1.220   3.338   6.997
17970WAT      O54151   4.645   5.415   9.073
17970WAT     H154152   4.693   5.329   9.058
17970WAT     H254153   4.702   5.476   9.128
17971WAT      O54154   9.378   6.649   1.738
17971WAT     H154155   9.398   6.551   1.744
17971WAT     H254156   9.344   6.670   1.646
17972WAT      O54157   9.698   0.537   0.617
17972WAT     H154158   9.627   0.599   0.651
17972WAT     H254159   9.743   0.492   0.695
17973WAT      O54160   9.600   3.973   2.224
17973WAT     H154161   9.628   4.069   2.215
17973WAT     H254162   9.550   3.945   2.143
17974WAT      O54163   9.663   6.964   7.918
17974WAT     H154164   9.599   6.896   7.883
17974WAT     H254165   9.720   6.998   7.843
17975WAT      O54166   0.328   0.687   1.968
17975WAT     H154167   0.379   0.770   1.991
17975WAT     H254168   0.344   0.618   2.039
17976WAT      O54169   0.838   1.536   7.251
17976WAT     H154170   0.937   1.551   7.241
17976WAT     H254171   0.802   1.502   7.164
17977WAT      O54172   2.696   4.581   3.626
17977WAT     H154173   2.638   4.608   3.703
17977WAT     H254174   2.650   4.512   3.572
17978WAT      O54175   0.920   1.774   0.544
17978WAT     H154176   0.942   1.828   0.625
17978WAT     H254177   0.981   1.801   0.468
17979WAT      O54178   5.456   3.814   7.574
17979WAT     H154179   5.511   3.892   7.603
17979WAT     H254180   5.375   3.808   7.632
17980WAT      O54181   2.941   8.245   0.758
17980WAT     H154182   2.887   8.272   0.678
17980WAT     H254183   2.959   8.325   0.815
17981WAT      O54184   7.930   4.591   8.896
17981WAT     H154185   8.003   4.632   8.951
17981WAT     H254186   7.955   4.596   8.799
17982WAT      O54187   5.009   8.609   2.148
17982WAT     H154188   5.062   8.550   2.208
17982WAT     H254189   5.018   8.704   2.178
17983WAT      O54190   4.062   9.216   8.100
17983WAT     H154191   4.108   9.150   8.040
17983WAT     H254192   4.125   9.289   8.124
17984WAT      O54193   6.490   1.638   1.144
17984WAT     H154194   6.442   1.722   1.118
17984WAT     H254195   6.504   1.637   1.243
17985WAT      O54196   8.028   7.037   3.773
17985WAT     H154197   8.015   7.132   3.744
17985WAT     H254198   7.939   6.993   3.783
17986WAT      O54199   6.148   1.982   4.758
17986WAT     H154200   6.152   2.079   4.735
17986WAT     H254201   6.219   1.960   4.824
17987WAT      O54202   7.733   1.961   1.742
17987WAT     H154203   7.698   1.917   1.824
17987WAT     H254204   7.711   2.059   1.744
17988WAT      O54205   0.960   0.635   4.657
17988WAT     H154206   0.985   0.731   4.668
17988WAT     H254207   0.947   0.615   4.560
17989WAT      O54208   6.535   4.943   7.856
17989WAT     H154209   6.601   4.969   7.926
17989WAT     H254210   6.584   4.914   7.773
17990WAT      O54211   1.148   0.511   8.482
17990WAT     H154212   1.077   0.564   8.436
17990WAT     H254213   1.167   0.428   8.429
17991WAT      O54214   7.257   5.010   9.779
17991WAT     H154215   7.320   5.025   9.703
17991WAT     H254216   7.163   5.019   9.745
17992WAT      O54217   2.212   1.227   6.721
17992WAT     H154218   2.251   1.163   6.787
17992WAT     H254219   2.276   1.302   6.705
17993WAT      O54220   9.820   4.185   0.422
17993WAT     H154221   9.913   4.198   0.457
17993WAT     H254222   9.788   4.093   0.446
17994WAT      O54223   3.505   2.599   0.876
17994WAT     H154224   3.605   2.596   0.873
17994WAT     H254225   3.473   2.541   0.950
17995WAT      O54226   1.599   0.133   8.830
17995WAT     H154227   1.617   0.035   8.823
17995WAT     H254228   1.525   0.149   8.896
17996WAT      O54229   6.662   3.412   0.247
17996WAT     H154230   6.678   3.321   0.284
17996WAT     H254231   6.612   3.405   0.161
17997WAT      O54232   5.182   8.372   6.511
17997WAT     H154233   5.148   8.341   6.422
17997WAT     H254234   5.123   8.443   6.547
17998WAT      O54235   7.408   6.951   7.593
17998WAT     H154236   7.377   6.868   7.547
17998WAT     H254237   7.403   7.028   7.529
17999WAT      O54238   9.046   7.949   3.906
17999WAT     H154239   9.051   7.856   3.870
17999WAT     H254240   9.115   7.961   3.977
18000WAT      O54241   5.925   6.945   4.997
18000WAT     H154242   5.849   6.926   5.059
18000WAT     H254243   6.011   6.932   5.046
18001WAT      O54244   1.204   8.367   4.798
18001WAT     H154245   1.283   8.418   4.762
18001WAT     H254246   1.233   8.276   4.825
18002WAT      O54247   9.602   3.959   3.989
18002WAT     H154248   9.514   3.910   3.987
18002WAT     H254249   9.590   4.048   4.033
18003WAT      O54250   9.240   1.934   2.961
18003WAT     H154251   9.176   1.858   2.965
18003WAT     H254252   9.313   1.914   2.895
18004WAT      O54253   4.685   5.347   7.316
18004WAT     H154254   4.736   5.387   7.392
18004WAT     H254255   4.635   5.419   7.268
18005WAT      O54256   4.800   3.779   6.381
18005WAT     H154257   4.710   3.771   6.423
18005WAT     H254258   4.841   3.688   6.370
18006WAT      O54259   8.513   9.289   1.975
18006WAT     H154260   8.493   9.271   1.879
18006WAT     H254261   8.580   9.362   1.982
18007WAT      O54262   6.666   9.559   9.150
18007WAT     H154263   6.749   9.582   9.101
18007WAT     H254264   6.596   9.528   9.085
18008WAT      O54265   3.795   1.138   2.061
18008WAT     H154266   3.808   1.214   1.998
18008WAT     H254267   3.848   1.154   2.144
18009WAT      O54268   8.236   1.578   1.787
18009WAT     H154269   8.286   1.536   1.712
18009WAT     H254270   8.281   1.557   1.873
18010WAT      O54271   8.879   8.763   1.225
18010WAT     H154272   8.892   8.678   1.175
18010WAT     H254273   8.967   8.809   1.235
18011WAT      O54274   9.813   8.046   2.568
18011WAT     H154275   9.866   8.088   2.642
18011WAT     H254276   9.861   8.061   2.481
18012WAT      O54277   3.707   0.151   7.069
18012WAT     H154278   3.703   0.051   7.077
18012WAT     H254279   3.690   0.178   6.974
18013WAT      O54280   2.202   5.878   6.818
18013WAT     H154281   2.239   5.953   6.873
18013WAT     H254282   2.102   5.885   6.817
18014WAT      O54283   5.435   4.049   2.509
18014WAT     H154284   5.383   3.965   2.495
18014WAT     H254285   5.376   4.118   2.551
18015WAT      O54286   1.606   4.334   9.251
18015WAT     H154287   1.552   4.348   9.169
18015WAT     H254288   1.639   4.422   9.286
18016WAT      O54289   5.399   3.185   2.101
18016WAT     H154290   5.407   3.239   2.017
18016WAT     H254291   5.479   3.201   2.159
18017WAT      O54292   4.806   2.797   8.725
18017WAT     H154293   4.769   2.842   8.806
18017WAT     H254294   4.864   2.721   8.752
18018WAT      O54295   2.349   3.065   0.371
18018WAT     H154296   2.357   3.148   0.427
18018WAT     H254297   2.413   3.071   0.294
18019WAT      O54298   6.238   9.098   5.264
18019WAT     H154299   6.141   9.077   5.251
18019WAT     H254300   6.292   9.015   5.256
18020WAT      O54301   0.462   3.690   6.463
18020WAT     H154302   0.447   3.651   6.372
18020WAT     H254303   0.490   3.617   6.526
18021WAT      O54304   4.719   7.765   4.986
18021WAT     H154305   4.687   7.858   5.004
18021WAT     H254306   4.653   7.718   4.926
18022WAT      O54307   0.034   5.283   5.286
18022WAT     H154308  -0.006   5.263   5.197
18022WAT     H254309  -0.011   5.362   5.326
18023WAT      O54310   0.704   6.740   4.621
18023WAT     H154311   0.671   6.716   4.713
18023WAT     H254312   0.802   6.759   4.625
18024WAT      O54313   8.262   5.362   1.162
18024WAT     H154314   8.183   5.417   1.188
18024WAT     H254315   8.292   5.389   1.070
18025WAT      O54316   2.330   3.462   4.891
18025WAT     H154317   2.371   3.551   4.908
18025WAT     H254318   2.359   3.428   4.802
18026WAT      O54319   6.925   3.615   4.261
18026WAT     H154320   6.907   3.592   4.356
18026WAT     H254321   7.011   3.665   4.254
18027WAT      O54322   5.166   4.849   2.272
18027WAT     H154323   5.112   4.892   2.200
18027WAT     H254324   5.118   4.767   2.304
18028WAT      O54325   5.989   8.509   1.787
18028WAT     H154326   5.903   8.508   1.737
18028WAT     H254327   5.971   8.522   1.884
18029WAT      O54328   1.144   4.114   7.635
18029WAT     H154329   1.093   4.198   7.651
18029WAT     H254330   1.128   4.082   7.541
18030WAT      O54331   1.325   4.283   3.096
18030WAT     H154332   1.334   4.319   3.003
18030WAT     H254333   1.242   4.229   3.103
18031WAT      O54334   8.192   6.885   6.751
18031WAT     H154335   8.158   6.891   6.845
18031WAT     H254336   8.277   6.937   6.744
18032WAT      O54337   8.502   2.286   0.733
18032WAT     H154338   8.572   2.347   0.697
18032WAT     H254339   8.459   2.237   0.657
18033WAT      O54340   5.075   5.599   7.594
18033WAT     H154341   5.106   5.533   7.663
18033WAT     H254342   5.026   5.674   7.640
18034WAT      O54343   5.986   1.641   2.260
18034WAT     H154344   5.907   1.620   2.317
18034WAT     H254345   6.057   1.685   2.316
18035WAT      O54346   0.170   1.558   4.786
18035WAT     H154347   0.261   1.536   4.820
18035WAT     H254348   0.121   1.613   4.854
18036WAT      O54349   0.465   3.792   5.527
18036WAT     H154350   0.464   3.845   5.612
18036WAT     H254351   0.421   3.846   5.455
18037WAT      O54352   1.565   7.766   7.672
18037WAT     H154353   1.562   7.682   7.618
18037WAT     H254354   1.546   7.844   7.613
18038WAT      O54355   5.158   7.496   2.095
18038WAT     H154356   5.161   7.593   2.120
18038WAT     H254357   5.161   7.488   1.995
18039WAT      O54358   8.645   3.990   9.645
18039WAT     H154359   8.645   3.895   9.676
18039WAT     H254360   8.732   4.032   9.668
18040WAT      O54361   9.590   4.075   9.876
18040WAT     H154362   9.623   3.999   9.820
18040WAT     H254363   9.522   4.041   9.942
18041WAT      O54364   8.253   0.757   8.331
18041WAT     H154365   8.170   0.704   8.345
18041WAT     H254366   8.319   0.737   8.404
18042WAT      O54367   3.587   6.835   2.243
18042WAT     H154368   3.605   6.739   2.223
18042WAT     H254369   3.665   6.875   2.290
18043WAT      O54370   7.305   5.962   4.843
18043WAT     H154371   7.222   5.932   4.796
18043WAT     H254372   7.314   6.061   4.835
18044WAT      O54373   8.074   0.512   2.069
18044WAT     H154374   8.044   0.535   1.977
18044WAT     H254375   8.114   0.592   2.113
18045WAT      O54376   6.039   3.632   9.763
18045WAT     H154377   5.978   3.554   9.774
18045WAT     H254378   6.107   3.630   9.837
18046WAT      O54379   9.517   6.529   8.780
18046WAT     H154380   9.547   6.471   8.856
18046WAT     H254381   9.596   6.572   8.738
18047WAT      O54382   3.785   7.338   9.377
18047WAT     H154383   3.827   7.313   9.290
18047WAT     H254384   3.838   7.411   9.420
18048WAT      O54385   7.496   2.730   0.003
18048WAT     H154386   7.521   2.823  -0.023
18048WAT     H254387   7.509   2.718   0.101
18049WAT      O54388   6.801   1.654   2.743
18049WAT     H154389   6.842   1.737   2.707
18049WAT     H254390   6.711   1.674   2.780
18050WAT      O54391   6.470   8.871   4.136
18050WAT     H154392   6.381   8.852   4.095
18050WAT     H254393   6.501   8.792   4.188
18051WAT      O54394   7.644   3.692   8.563
18051WAT     H154395   7.546   3.707   8.568
18051WAT     H254396   7.689   3.741   8.638
18052WAT      O54397   5.925   7.425   8.263
18052WAT     H154398   5.830   7.428   8.295
18052WAT     H254399   5.965   7.336   8.286
18053WAT      O54400   1.674   6.843   0.607
18053WAT     H154401   1.724   6.925   0.579
18053WAT     H254402   1.723   6.761   0.577
18054WAT      O54403   2.512   7.248   8.948
18054WAT     H154404   2.445   7.311   8.910
18054WAT     H254405   2.468   7.189   9.016
18055WAT      O54406   7.166   6.163   1.952
18055WAT     H154407   7.094   6.107   1.910
18055WAT     H254408   7.238   6.104   1.987
18056WAT      O54409   1.679   5.365   6.283
18056WAT     H154410   1.664   5.389   6.187
18056WAT     H254411   1.591   5.348   6.327
18057WAT      O54412   1.401   3.731   9.434
18057WAT     H154413   1.493   3.772   9.433
18057WAT     H254414   1.333   3.803   9.447
18058WAT      O54415   6.905   0.960   7.457
18058WAT     H154416   6.857   1.010   7.528
18058WAT     H254417   6.898   0.862   7.475
18059WAT      O54418   7.626   9.303   4.390
18059WAT     H154419   7.683   9.325   4.311
18059WAT     H254420   7.625   9.204   4.404
18060WAT      O54421   2.441   7.994   5.043
18060WAT     H154422   2.401   7.920   5.097
18060WAT     H254423   2.536   8.008   5.072
18061WAT      O54424   2.625   6.736   4.265
18061WAT     H154425   2.614   6.812   4.330
18061WAT     H254426   2.702   6.679   4.294
18062WAT      O54427   5.808   1.546   4.446
18062WAT     H154428   5.799   1.635   4.491
18062WAT     H254429   5.854   1.558   4.358
18063WAT      O54430   4.936   4.859   0.813
18063WAT     H154431   5.028   4.898   0.812
18063WAT     H254432   4.929   4.792   0.887
18064WAT      O54433   0.062   2.100   8.355
18064WAT     H154434   0.095   2.069   8.266
18064WAT     H254435   0.109   2.050   8.427
18065WAT      O54436   6.819   1.329   3.209
18065WAT     H154437   6.819   1.271   3.291
18065WAT     H254438   6.807   1.424   3.236
18066WAT      O54439   0.079   5.442   9.544
18066WAT     H154440  -0.006   5.411   9.500
18066WAT     H254441   0.094   5.539   9.521
18067WAT      O54442   7.060   5.496   7.430
18067WAT     H154443   6.976   5.540   7.397
18067WAT     H254444   7.074   5.410   7.381
18068WAT      O54445   2.804   4.464   6.864
18068WAT     H154446   2.807   4.381   6.920
18068WAT     H254447   2.766   4.442   6.774
18069WAT      O54448   3.108   3.604   3.427
18069WAT     H154449   3.093   3.630   3.331
18069WAT     H254450   3.167   3.523   3.431
18070WAT      O54451   0.794   7.525   1.345
18070WAT     H154452   0.779   7.582   1.265
18070WAT     H254453   0.828   7.582   1.421
18071WAT      O54454   2.458   8.296   7.934
18071WAT     H154455   2.555   8.294   7.909
18071WAT     H254456   2.413   8.213   7.901
18072WAT      O54457   2.237   7.433   8.458
18072WAT     H154458   2.324   7.483   8.456
18072WAT     H254459   2.256   7.335   8.471
18073WAT      O54460   2.247   7.705   6.399
18073WAT     H154461   2.185   7.783   6.398
18073WAT     H254462   2.339   7.734   6.427
18074WAT      O54463   8.957   6.825   5.810
18074WAT     H154464   9.040   6.794   5.763
18074WAT     H254465   8.885   6.757   5.797
18075WAT      O54466   8.455   8.721   0.599
18075WAT     H154467   8.548   8.683   0.605
18075WAT     H254468   8.460   8.821   0.600
18076WAT      O54469   3.060   1.664   4.869
18076WAT     H154470   3.024   1.698   4.956
18076WAT     H254471   3.148   1.707   4.850
18077WAT      O54472   5.939   6.080   6.099
18077WAT     H154473   5.867   6.022   6.135
18077WAT     H254474   5.968   6.046   6.010
18078WAT      O54475   8.105   6.794   2.232
18078WAT     H154476   8.152   6.771   2.147
18078WAT     H254477   8.139   6.735   2.306
18079WAT      O54478   8.531   3.329   5.232
18079WAT     H154479   8.573   3.272   5.303
18079WAT     H254480   8.475   3.399   5.276
18080WAT      O54481   4.310   3.778   5.838
18080WAT     H154482   4.392   3.835   5.832
18080WAT     H254483   4.281   3.752   5.746
18081WAT      O54484   1.637   2.114   5.867
18081WAT     H154485   1.732   2.144   5.863
18081WAT     H254486   1.611   2.094   5.961
18082WAT      O54487   4.698   1.774   6.723
18082WAT     H154488   4.611   1.729   6.702
18082WAT     H254489   4.770   1.737   6.665
18083WAT      O54490   8.901   1.244   5.743
18083WAT     H154491   8.941   1.312   5.681
18083WAT     H254492   8.962   1.165   5.748
18084WAT      O54493   6.412   4.205   2.984
18084WAT     H154494   6.413   4.252   3.072
18084WAT     H254495   6.428   4.107   2.997
18085WAT      O54496   8.393   4.760   3.550
18085WAT     H154497   8.483   4.743   3.511
18085WAT     H254498   8.352   4.672   3.578
18086WAT      O54499   7.740   6.896   3.834
18086WAT     H154500   7.777   6.809   3.800
18086WAT     H254501   7.685   6.939   3.762
18087WAT      O54502   5.823   0.750   8.807
18087WAT     H154503   5.838   0.703   8.895
18087WAT     H254504   5.799   0.683   8.738
18088WAT      O54505   8.736   2.960   3.119
18088WAT     H154506   8.685   2.896   3.176
18088WAT     H254507   8.679   2.989   3.042
18089WAT      O54508   8.641   2.729   7.151
18089WAT     H154509   8.593   2.759   7.069
18089WAT     H254510   8.626   2.631   7.164
18090WAT      O54511   2.346   6.711   4.519
18090WAT     H154512   2.396   6.790   4.482
18090WAT     H254513   2.318   6.651   4.445
18091WAT      O54514   6.225   6.050   4.635
18091WAT     H154515   6.222   6.121   4.705
18091WAT     H254516   6.165   6.075   4.559
18092WAT      O54517   8.030   5.079   1.812
18092WAT     H154518   8.001   4.994   1.768
18092WAT     H254519   8.103   5.060   1.878
18093WAT      O54520   5.674   3.193   1.830
18093WAT     H154521   5.685   3.292   1.840
18093WAT     H254522   5.699   3.148   1.916
18094WAT      O54523   6.415   9.221   4.476
18094WAT     H154524   6.319   9.228   4.504
18094WAT     H254525   6.452   9.312   4.460
18095WAT      O54526   5.205   0.207   8.487
18095WAT     H154527   5.237   0.293   8.447
18095WAT     H254528   5.190   0.218   8.585
18096WAT      O54529   3.406   1.832   1.708
18096WAT     H154530   3.353   1.917   1.720
18096WAT     H254531   3.489   1.837   1.765
18097WAT      O54532   5.395   9.297   2.179
18097WAT     H154533   5.343   9.353   2.114
18097WAT     H254534   5.348   9.296   2.268
18098WAT      O54535   0.146   6.926   1.451
18098WAT     H154536   0.090   6.873   1.388
18098WAT     H254537   0.205   6.988   1.400
18099WAT      O54538   6.070   8.249   8.621
18099WAT     H154539   6.132   8.215   8.550
18099WAT     H254540   5.979   8.210   8.608
18100WAT      O54541   5.730   8.608   4.708
18100WAT     H154542   5.690   8.520   4.680
18100WAT     H254543   5.754   8.604   4.805
18101WAT      O54544   7.139   9.588   5.569
18101WAT     H154545   7.063   9.541   5.525
18101WAT     H254546   7.104   9.667   5.619
18102WAT      O54547   0.999   9.525   7.768
18102WAT     H154548   0.943   9.542   7.687
18102WAT     H254549   1.028   9.429   7.768
18103WAT      O54550   9.621   4.884   3.154
18103WAT     H154551   9.587   4.790   3.144
18103WAT     H254552   9.712   4.892   3.113
18104WAT      O54553   2.238   0.458   4.978
18104WAT     H154554   2.237   0.553   5.007
18104WAT     H254555   2.245   0.398   5.058
18105WAT      O54556   2.013   9.356   7.565
18105WAT     H154557   1.930   9.367   7.510
18105WAT     H254558   2.093   9.378   7.509
18106WAT      O54559   5.360   7.297   3.010
18106WAT     H154560   5.370   7.202   3.039
18106WAT     H254561   5.293   7.302   2.935
18107WAT      O54562   4.895   0.891   2.207
18107WAT     H154563   4.923   0.904   2.112
18107WAT     H254564   4.913   0.975   2.258
18108WAT      O54565   8.277   5.127   9.786
18108WAT     H154566   8.201   5.126   9.722
18108WAT     H254567   8.244   5.154   9.877
18109WAT      O54568   6.206   9.368   9.473
18109WAT     H154569   6.255   9.319   9.400
18109WAT     H254570   6.133   9.310   9.509
18110WAT      O54571   0.243   9.009   9.473
18110WAT     H154572   0.267   8.924   9.519
18110WAT     H254573   0.239   8.994   9.374
18111WAT      O54574   7.333   1.885   2.074
18111WAT     H154575   7.337   1.854   2.169
18111WAT     H254576   7.255   1.843   2.028
18112WAT      O54577   0.285   7.979   5.717
18112WAT     H154578   0.370   8.007   5.672
18112WAT     H254579   0.304   7.958   5.813
18113WAT      O54580   1.117   8.890   8.835
18113WAT     H154581   1.156   8.851   8.918
18113WAT     H254582   1.190   8.914   8.771
18114WAT      O54583   0.702   5.738   7.684
18114WAT     H154584   0.669   5.832   7.684
18114WAT     H254585   0.773   5.727   7.754
18115WAT      O54586   1.799   9.172   7.909
18115WAT     H154587   1.792   9.116   7.827
18115WAT     H254588   1.741   9.253   7.900
18116WAT      O54589   6.178   1.741   3.786
18116WAT     H154590   6.096   1.709   3.739
18116WAT     H254591   6.216   1.668   3.842
18117WAT      O54592   6.037   5.011   2.962
18117WAT     H154593   5.984   5.087   2.999
18117WAT     H254594   6.068   4.952   3.036
18118WAT      O54595   9.853   0.415   5.946
18118WAT     H154596   9.904   0.444   5.865
18118WAT     H254597   9.755   0.427   5.931
18119WAT      O54598   9.027   9.359   5.227
18119WAT     H154599   9.027   9.411   5.312
18119WAT     H254600   8.932   9.338   5.201
18120WAT      O54601   8.751   3.277   1.700
18120WAT     H154602   8.751   3.321   1.790
18120WAT     H254603   8.768   3.346   1.629
18121WAT      O54604   8.885   7.153   4.238
18121WAT     H154605   8.794   7.128   4.272
18121WAT     H254606   8.876   7.195   4.147
18122WAT      O54607   8.278   7.666   7.813
18122WAT     H154608   8.313   7.603   7.882
18122WAT     H254609   8.179   7.671   7.820
18123WAT      O54610   9.291   7.247   7.195
18123WAT     H154611   9.264   7.342   7.215
18123WAT     H254612   9.217   7.201   7.146
18124WAT      O54613   1.414   1.310   9.700
18124WAT     H154614   1.448   1.269   9.615
18124WAT     H254615   1.314   1.300   9.704
18125WAT      O54616   1.366   2.201   1.495
18125WAT     H154617   1.444   2.154   1.536
18125WAT     H254618   1.294   2.135   1.473
18126WAT      O54619   3.682   7.101   0.239
18126WAT     H154620   3.716   7.155   0.162
18126WAT     H254621   3.582   7.108   0.243
18127WAT      O54622   4.493   7.738   1.836
18127WAT     H154623   4.445   7.680   1.901
18127WAT     H254624   4.429   7.802   1.794
18128WAT      O54625   6.412   8.749   0.656
18128WAT     H154626   6.454   8.715   0.572
18128WAT     H254627   6.369   8.673   0.705
18129WAT      O54628   6.656   4.640   6.461
18129WAT     H154629   6.615   4.690   6.385
18129WAT     H254630   6.707   4.561   6.426
18130WAT      O54631   8.787   2.697   4.168
18130WAT     H154632   8.756   2.765   4.235
18130WAT     H254633   8.827   2.744   4.089
18131WAT      O54634   9.273   7.352   5.635
18131WAT     H154635   9.304   7.323   5.544
18131WAT     H254636   9.284   7.276   5.699
18132WAT      O54637   0.884   6.486   2.333
18132WAT     H154638   0.889   6.429   2.251
18132WAT     H254639   0.969   6.537   2.343
18133WAT      O54640   2.933   7.983   7.111
18133WAT     H154641   2.856   7.989   7.047
18133WAT     H254642   2.898   7.974   7.204
18134WAT      O54643   4.779   6.210   8.941
18134WAT     H154644   4.777   6.128   8.998
18134WAT     H254645   4.809   6.185   8.848
18135WAT      O54646   5.204   9.712   0.338
18135WAT     H154647   5.237   9.805   0.358
18135WAT     H254648   5.282   9.650   0.332
18136WAT      O54649   2.281   4.822   5.158
18136WAT     H154650   2.341   4.855   5.085
18136WAT     H254651   2.206   4.886   5.171
18137WAT      O54652   2.931   3.056   1.681
18137WAT     H154653   3.012   2.998   1.690
18137WAT     H254654   2.954   3.136   1.625
18138WAT      O54655   6.732   8.439   4.809
18138WAT     H154656   6.684   8.374   4.867
18138WAT     H254657   6.793   8.496   4.865
18139WAT      O54658   5.933   3.885   2.036
18139WAT     H154659   6.017   3.842   2.001
18139WAT     H254660   5.858   3.867   1.973
18140WAT      O54661   0.585   2.564   5.818
18140WAT     H154662   0.619   2.586   5.910
18140WAT     H254663   0.493   2.526   5.825
18141WAT      O54664   2.900   8.863   3.014
18141WAT     H154665   2.940   8.868   2.922
18141WAT     H254666   2.849   8.778   3.023
18142WAT      O54667   4.227   5.541   0.325
18142WAT     H154668   4.234   5.640   0.319
18142WAT     H254669   4.259   5.501   0.239
18143WAT      O54670   2.634   0.872   1.945
18143WAT     H154671   2.619   0.839   1.852
18143WAT     H254672   2.729   0.901   1.956
18144WAT      O54673   6.168   1.395   5.102
18144WAT     H154674   6.265   1.410   5.120
18144WAT     H254675   6.156   1.307   5.057
18145WAT      O54676   3.968   4.903   3.170
18145WAT     H154677   4.003   4.997   3.170
18145WAT     H254678   4.046   4.840   3.169
18146WAT      O54679   4.094   5.697   0.093
18146WAT     H154680   4.137   5.623   0.042
18146WAT     H254681   4.156   5.729   0.165
18147WAT      O54682   0.474   6.199   1.213
18147WAT     H154683   0.469   6.109   1.257
18147WAT     H254684   0.434   6.268   1.273
18148WAT      O54685   7.344   6.400   2.576
18148WAT     H154686   7.299   6.452   2.649
18148WAT     H254687   7.294   6.316   2.559
18149WAT      O54688   2.485   8.552   0.587
18149WAT     H154689   2.500   8.481   0.657
18149WAT     H254690   2.519   8.520   0.499
18150WAT      O54691   4.117   0.991   0.249
18150WAT     H154692   4.158   0.972   0.338
18150WAT     H254693   4.143   1.083   0.219
18151WAT      O54694   4.921   1.905   8.577
18151WAT     H154695   4.841   1.900   8.637
18151WAT     H254696   4.955   1.999   8.574
18152WAT      O54697   9.144   3.742   4.914
18152WAT     H154698   9.163   3.807   4.840
18152WAT     H254699   9.198   3.659   4.899
18153WAT      O54700   2.251   8.876   1.770
18153WAT     H154701   2.225   8.905   1.679
18153WAT     H254702   2.301   8.789   1.764
18154WAT      O54703   9.212   4.963   8.357
18154WAT     H154704   9.121   5.001   8.339
18154WAT     H254705   9.275   5.039   8.377
18155WAT      O54706   2.075   9.240   3.333
18155WAT     H154707   2.069   9.145   3.365
18155WAT     H254708   2.039   9.246   3.240
18156WAT      O54709   2.372   2.397   2.828
18156WAT     H154710   2.432   2.469   2.794
18156WAT     H254711   2.341   2.340   2.753
18157WAT      O54712   9.524   4.928   7.669
18157WAT     H154713   9.521   4.915   7.570
18157WAT     H254714   9.504   5.024   7.690
18158WAT      O54715   9.236   0.471   8.143
18158WAT     H154716   9.141   0.493   8.122
18158WAT     H254717   9.296   0.541   8.104
18159WAT      O54718   1.517   1.142   2.506
18159WAT     H154719   1.474   1.181   2.425
18159WAT     H254720   1.594   1.085   2.480
18160WAT      O54721   3.748   9.065   1.074
18160WAT     H154722   3.750   9.129   1.151
18160WAT     H254723   3.835   9.015   1.071
18161WAT      O54724   7.196   0.682   3.003
18161WAT     H154725   7.151   0.720   2.923
18161WAT     H254726   7.280   0.733   3.022
18162WAT      O54727   0.205   9.381   2.445
18162WAT     H154728   0.159   9.301   2.484
18162WAT     H254729   0.189   9.460   2.502
18163WAT      O54730   9.741   9.373   2.608
18163WAT     H154731   9.661   9.317   2.628
18163WAT     H254732   9.745   9.449   2.673
18164WAT      O54733   5.633   2.266   3.336
18164WAT     H154734   5.685   2.231   3.258
18164WAT     H254735   5.692   2.268   3.417
18165WAT      O54736   1.701   2.713   8.883
18165WAT     H154737   1.643   2.771   8.826
18165WAT     H254738   1.787   2.759   8.901
18166WAT      O54739   8.296   4.540   3.646
18166WAT     H154740   8.321   4.466   3.584
18166WAT     H254741   8.207   4.520   3.688
18167WAT      O54742   6.180   7.849   8.600
18167WAT     H154743   6.212   7.765   8.555
18167WAT     H254744   6.228   7.928   8.562
18168WAT      O54745   2.912   1.972   1.772
18168WAT     H154746   2.958   2.060   1.765
18168WAT     H254747   2.813   1.985   1.774
18169WAT      O54748   5.636   4.277   4.426
18169WAT     H154749   5.636   4.377   4.424
18169WAT     H254750   5.550   4.243   4.387
18170WAT      O54751   1.554   7.729   1.782
18170WAT     H154752   1.626   7.794   1.756
18170WAT     H254753   1.584   7.636   1.762
18171WAT      O54754   8.154   8.348   2.142
18171WAT     H154755   8.082   8.413   2.165
18171WAT     H254756   8.235   8.398   2.111
18172WAT      O54757   3.560   3.204   8.137
18172WAT     H154758   3.491   3.155   8.085
18172WAT     H254759   3.527   3.220   8.230
18173WAT      O54760   0.818   4.463   4.001
18173WAT     H154761   0.843   4.453   3.905
18173WAT     H254762   0.734   4.412   4.019
18174WAT      O54763   2.487   1.671   2.569
18174WAT     H154764   2.581   1.698   2.545
18174WAT     H254765   2.489   1.586   2.622
18175WAT      O54766   9.789   2.079   1.313
18175WAT     H154767   9.776   2.144   1.239
18175WAT     H254768   9.803   1.987   1.276
18176WAT      O54769   2.350   9.101   7.815
18176WAT     H154770   2.427   9.152   7.855
18176WAT     H254771   2.265   9.131   7.858
18177WAT      O54772   8.611   0.412   9.354
18177WAT     H154773   8.527   0.368   9.321
18177WAT     H254774   8.676   0.341   9.383
18178WAT      O54775   7.174   0.617   4.184
18178WAT     H154776   7.270   0.636   4.165
18178WAT     H254777   7.150   0.653   4.274
18179WAT      O54778   8.404   6.859   5.004
18179WAT     H154779   8.498   6.893   5.003
18179WAT     H254780   8.356   6.892   4.923
18180WAT      O54781   3.156   0.863   7.286
18180WAT     H154782   3.215   0.939   7.312
18180WAT     H254783   3.061   0.885   7.307
18181WAT      O54784   3.935   0.109   9.517
18181WAT     H154785   3.840   0.083   9.534
18181WAT     H254786   3.986   0.029   9.486
18182WAT      O54787   5.024   3.419   9.146
18182WAT     H154788   5.005   3.513   9.176
18182WAT     H254789   5.056   3.366   9.224
18183WAT      O54790   1.437   9.353   8.127
18183WAT     H154791   1.393   9.393   8.047
18183WAT     H254792   1.457   9.426   8.193
18184WAT      O54793   5.821   8.454   1.432
18184WAT     H154794   5.771   8.442   1.518
18184WAT     H254795   5.787   8.389   1.365
18185WAT      O54796   9.664   7.680   8.113
18185WAT     H154797   9.730   7.619   8.157
18185WAT     H254798   9.690   7.775   8.130
18186WAT      O54799   3.826   4.996   4.459
18186WAT     H154800   3.851   4.928   4.390
18186WAT     H254801   3.886   4.986   4.538
18187WAT      O54802   3.000   2.660   7.383
18187WAT     H154803   3.072   2.730   7.385
18187WAT     H254804   2.977   2.634   7.477
18188WAT      O54805   0.876   6.188   6.351
18188WAT     H154806   0.875   6.089   6.365
18188WAT     H254807   0.916   6.233   6.430
18189WAT      O54808   8.640   5.374   0.984
18189WAT     H154809   8.661   5.443   0.915
18189WAT     H254810   8.665   5.409   1.074
18190WAT      O54811   7.191   3.540   8.876
18190WAT     H154812   7.215   3.450   8.838
18190WAT     H254813   7.169   3.530   8.973
18191WAT      O54814   8.311   9.790   2.309
18191WAT     H154815   8.332   9.739   2.225
18191WAT     H254816   8.374   9.867   2.318
18192WAT      O54817   6.537   7.083   8.466
18192WAT     H154818   6.624   7.117   8.504
18192WAT     H254819   6.504   7.148   8.398
18193WAT      O54820   4.404   2.534   7.533
18193WAT     H154821   4.405   2.448   7.482
18193WAT     H254822   4.497   2.566   7.545
18194WAT      O54823   6.748   9.564   2.006
18194WAT     H154824   6.739   9.645   1.948
18194WAT     H254825   6.677   9.498   1.984
18195WAT      O54826   1.651   1.306   7.181
18195WAT     H154827   1.630   1.363   7.261
18195WAT     H254828   1.566   1.270   7.142
18196WAT      O54829   2.935   0.837   8.893
18196WAT     H154830   2.972   0.744   8.903
18196WAT     H254831   2.841   0.832   8.861
18197WAT      O54832   9.213   0.901   5.101
18197WAT     H154833   9.153   0.981   5.105
18197WAT     H254834   9.279   0.913   5.027
18198WAT      O54835   1.036   3.431   4.066
18198WAT     H154836   1.018   3.529   4.060
18198WAT     H254837   1.111   3.407   4.005
18199WAT      O54838   3.872   4.946   8.468
18199WAT     H154839   3.849   4.863   8.519
18199WAT     H254840   3.916   4.920   8.381
18200WAT      O54841   0.316   2.947   8.145
18200WAT     H154842   0.293   2.887   8.068
18200WAT     H254843   0.255   2.927   8.222
18201WAT      O54844   0.907   8.082   7.386
18201WAT     H154845   0.823   8.100   7.438
18201WAT     H254846   0.955   8.004   7.426
18202WAT      O54847   4.953   8.551   1.117
18202WAT     H154848   4.995   8.481   1.175
18202WAT     H254849   4.967   8.641   1.159
18203WAT      O54850   9.519   8.212   2.467
18203WAT     H154851   9.427   8.249   2.477
18203WAT     H254852   9.550   8.176   2.556
18204WAT      O54853   7.340   7.730   3.880
18204WAT     H154854   7.440   7.734   3.872
18204WAT     H254855   7.313   7.640   3.915
18205WAT      O54856   6.581   7.768   7.329
18205WAT     H154857   6.650   7.711   7.374
18205WAT     H254858   6.545   7.720   7.249
18206WAT      O54859   3.093   7.996   3.998
18206WAT     H154860   3.076   7.948   4.084
18206WAT     H254861   3.067   8.092   4.008
18207WAT      O54862   5.838   7.753   1.111
18207WAT     H154863   5.915   7.696   1.139
18207WAT     H254864   5.856   7.848   1.136
18208WAT      O54865   3.896   5.645   1.712
18208WAT     H154866   3.968   5.655   1.644
18208WAT     H254867   3.809   5.627   1.666
18209WAT      O54868   1.590   4.818   3.749
18209WAT     H154869   1.682   4.842   3.717
18209WAT     H254870   1.552   4.894   3.801
18210WAT      O54871   5.944   5.130   0.581
18210WAT     H154872   5.910   5.138   0.488
18210WAT     H254873   5.867   5.121   0.644
18211WAT      O54874   0.049   4.002   0.817
18211WAT     H154875   0.031   3.911   0.854
18211WAT     H254876  -0.038   4.048   0.800
18212WAT      O54877   3.218   6.956   6.934
18212WAT     H154878   3.316   6.971   6.953
18212WAT     H254879   3.164   6.996   7.008
18213WAT      O54880   5.597   5.325   7.168
18213WAT     H154881   5.557   5.351   7.255
18213WAT     H254882   5.641   5.235   7.176
18214WAT      O54883   5.063   0.849   5.409
18214WAT     H154884   4.982   0.793   5.396
18214WAT     H254885   5.075   0.870   5.506
18215WAT      O54886   6.172   5.971   0.693
18215WAT     H154887   6.152   5.887   0.744
18215WAT     H254888   6.270   5.975   0.673
18216WAT      O54889   4.530   7.221   1.177
18216WAT     H154890   4.568   7.289   1.239
18216WAT     H254891   4.571   7.132   1.197
18217WAT      O54892   5.801   1.999   7.727
18217WAT     H154893   5.880   2.014   7.668
18217WAT     H254894   5.778   1.901   7.728
18218WAT      O54895   5.596   2.466   1.961
18218WAT     H154896   5.524   2.528   1.990
18218WAT     H254897   5.659   2.449   2.036
18219WAT      O54898   4.503   3.919   1.626
18219WAT     H154899   4.506   3.922   1.726
18219WAT     H254900   4.414   3.950   1.595
18220WAT      O54901   5.475   2.924   7.772
18220WAT     H154902   5.431   2.838   7.798
18220WAT     H254903   5.511   2.916   7.680
18221WAT      O54904   4.547   9.671   8.642
18221WAT     H154905   4.538   9.735   8.566
18221WAT     H254906   4.604   9.593   8.613
18222WAT      O54907   8.812   7.121   0.037
18222WAT     H154908   8.779   7.143   0.129
18222WAT     H254909   8.869   7.039   0.041
18223WAT      O54910   7.460   0.220   2.683
18223WAT     H154911   7.413   0.195   2.767
18223WAT     H254912   7.530   0.153   2.662
18224WAT      O54913   8.917   1.751   4.655
18224WAT     H154914   8.927   1.831   4.596
18224WAT     H254915   8.893   1.671   4.599
18225WAT      O54916   9.569   9.155   6.203
18225WAT     H154917   9.519   9.082   6.251
18225WAT     H254918   9.661   9.124   6.180
18226WAT      O54919   3.906   0.054   4.875
18226WAT     H154920   3.993   0.018   4.908
18226WAT     H254921   3.837  -0.018   4.876
18227WAT      O54922   9.577   3.311   1.017
18227WAT     H154923   9.658   3.300   1.074
18227WAT     H254924   9.597   3.280   0.924
18228WAT      O54925   9.403   1.882   1.843
18228WAT     H154926   9.379   1.928   1.758
18228WAT     H254927   9.486   1.922   1.881
18229WAT      O54928   7.923   5.800   2.918
18229WAT     H154929   7.846   5.743   2.946
18229WAT     H254930   7.982   5.749   2.856
18230WAT      O54931   3.830   9.629   7.404
18230WAT     H154932   3.916   9.673   7.379
18230WAT     H254933   3.808   9.558   7.338
18231WAT      O54934   1.678   5.442   2.962
18231WAT     H154935   1.770   5.438   3.002
18231WAT     H254936   1.658   5.356   2.916
18232WAT      O54937   5.946   0.083   9.560
18232WAT     H154938   5.897   0.030   9.629
18232WAT     H254939   5.898   0.169   9.542
18233WAT      O54940   0.628   6.631   2.251
18233WAT     H154941   0.727   6.634   2.243
18233WAT     H254942   0.602   6.638   2.348
18234WAT      O54943   2.969   7.455   1.311
18234WAT     H154944   2.973   7.375   1.371
18234WAT     H254945   2.957   7.538   1.367
18235WAT      O54946   6.269   5.512   7.760
18235WAT     H154947   6.230   5.577   7.825
18235WAT     H254948   6.203   5.439   7.743
18236WAT      O54949   3.875   0.243   8.670
18236WAT     H154950   3.884   0.184   8.750
18236WAT     H254951   3.884   0.339   8.697
18237WAT      O54952   4.337   2.506   1.358
18237WAT     H154953   4.282   2.583   1.390
18237WAT     H254954   4.409   2.539   1.297
18238WAT      O54955   2.543   6.857   5.563
18238WAT     H154956   2.458   6.910   5.563
18238WAT     H254957   2.602   6.888   5.489
18239WAT      O54958   7.932   9.492   0.586
18239WAT     H154959   7.860   9.440   0.632
18239WAT     H254960   7.990   9.430   0.533
18240WAT      O54961   9.677   1.921   1.914
18240WAT     H154962   9.753   1.895   1.854
18240WAT     H254963   9.670   1.856   1.989
18241WAT      O54964   6.332   2.458   5.374
18241WAT     H154965   6.329   2.404   5.289
18241WAT     H254966   6.365   2.550   5.354
18242WAT      O54967   2.266   3.477   8.018
18242WAT     H154968   2.167   3.493   8.015
18242WAT     H254969   2.305   3.527   8.095
18243WAT      O54970   3.294   9.433   6.329
18243WAT     H154971   3.267   9.443   6.425
18243WAT     H254972   3.279   9.519   6.281
18244WAT      O54973   8.571   8.607   1.882
18244WAT     H154974   8.553   8.540   1.954
18244WAT     H254975   8.661   8.647   1.895
18245WAT      O54976   4.968   1.684   1.477
18245WAT     H154977   4.884   1.631   1.463
18245WAT     H254978   5.001   1.718   1.389
18246WAT      O54979   7.927   9.068   3.111
18246WAT     H154980   7.906   9.118   3.026
18246WAT     H254981   7.892   9.120   3.189
18247WAT      O54982   8.047   5.313   2.528
18247WAT     H154983   8.000   5.383   2.475
18247WAT     H254984   7.993   5.230   2.530
18248WAT      O54985   5.427   4.598   2.523
18248WAT     H154986   5.446   4.682   2.574
18248WAT     H254987   5.328   4.589   2.510
18249WAT      O54988   4.241   5.224   9.888
18249WAT     H154989   4.220   5.150   9.953
18249WAT     H254990   4.157   5.272   9.864
18250WAT      O54991   2.336   0.092   0.415
18250WAT     H154992   2.304   0.032   0.488
18250WAT     H254993   2.331   0.187   0.446
18251WAT      O54994   6.164   6.072   3.163
18251WAT     H154995   6.214   6.159   3.169
18251WAT     H254996   6.138   6.042   3.255
18252WAT      O54997   2.707   3.847   5.336
18252WAT     H154998   2.798   3.854   5.294
18252WAT     H254999   2.649   3.921   5.302
18253WAT      O55000   8.461   8.800   5.871
18253WAT     H155001   8.467   8.885   5.923
18253WAT     H255002   8.368   8.763   5.878
18254WAT      O55003   4.466   2.629   6.952
18254WAT     H155004   4.482   2.652   6.856
18254WAT     H255005   4.400   2.554   6.957
18255WAT      O55006   5.612   8.102   6.495
18255WAT     H155007   5.595   8.159   6.575
18255WAT     H255008   5.672   8.026   6.519
18256WAT      O55009   2.911   3.962   1.164
18256WAT     H155010   2.887   3.999   1.254
18256WAT     H255011   2.963   4.031   1.113
18257WAT      O55012   8.569   4.522   7.155
18257WAT     H155013   8.469   4.520   7.155
18257WAT     H255014   8.604   4.431   7.179
18258WAT      O55015   5.064   2.127   4.536
18258WAT     H155016   5.081   2.149   4.440
18258WAT     H255017   5.100   2.036   4.556
18259WAT      O55018   7.783   9.067   9.142
18259WAT     H155019   7.722   9.145   9.150
18259WAT     H255020   7.833   9.054   9.228
18260WAT      O55021   5.235   9.637   4.529
18260WAT     H155022   5.284   9.718   4.498
18260WAT     H255023   5.233   9.634   4.629
18261WAT      O55024   1.680   6.161   6.981
18261WAT     H155025   1.768   6.199   6.954
18261WAT     H255026   1.665   6.074   6.934
18262WAT      O55027   7.490   5.981   1.490
18262WAT     H155028   7.512   5.952   1.397
18262WAT     H255029   7.405   6.034   1.489
18263WAT      O55030   9.658   4.675   5.086
18263WAT     H155031   9.716   4.594   5.092
18263WAT     H255032   9.715   4.756   5.077
18264WAT      O55033   0.680   5.555   6.364
18264WAT     H155034   0.644   5.461   6.367
18264WAT     H255035   0.779   5.553   6.376
18265WAT      O55036   8.891   4.476   0.884
18265WAT     H155037   8.983   4.508   0.863
18265WAT     H255038   8.896   4.406   0.956
18266WAT      O55039   5.357   0.616   5.335
18266WAT     H155040   5.372   0.540   5.272
18266WAT     H255041   5.356   0.702   5.284
18267WAT      O55042   6.032   6.392   9.590
18267WAT     H155043   6.104   6.444   9.544
18267WAT     H255044   6.019   6.304   9.542
18268WAT      O55045   6.120   8.127   2.417
18268WAT     H155046   6.066   8.207   2.443
18268WAT     H255047   6.196   8.155   2.358
18269WAT      O55048   7.562   7.423   0.001
18269WAT     H155049   7.489   7.465  -0.052
18269WAT     H255050   7.549   7.443   0.098
18270WAT      O55051   2.193   5.758   3.539
18270WAT     H155052   2.139   5.775   3.621
18270WAT     H255053   2.157   5.813   3.463
18271WAT      O55054   6.211   8.979   7.246
18271WAT     H155055   6.118   8.969   7.282
18271WAT     H255056   6.257   9.053   7.295
18272WAT      O55057   9.883   3.536   3.941
18272WAT     H155058   9.918   3.582   4.022
18272WAT     H255059   9.801   3.483   3.965
18273WAT      O55060   0.189   9.753   2.452
18273WAT     H155061   0.128   9.679   2.421
18273WAT     H255062   0.263   9.764   2.386
18274WAT      O55063   7.240   3.722   3.951
18274WAT     H155064   7.250   3.711   3.852
18274WAT     H255065   7.295   3.800   3.981
18275WAT      O55066   8.870   4.903   0.941
18275WAT     H155067   8.779   4.869   0.918
18275WAT     H255068   8.883   4.994   0.902
18276WAT      O55069   1.802   1.026   9.823
18276WAT     H155070   1.820   1.021   9.922
18276WAT     H255071   1.706   1.050   9.808
18277WAT      O55072   7.039   1.028   2.276
18277WAT     H155073   7.127   1.066   2.307
18277WAT     H255074   6.994   0.982   2.353
18278WAT      O55075   4.554   2.219   7.759
18278WAT     H155076   4.606   2.304   7.771
18278WAT     H255077   4.582   2.174   7.674
18279WAT      O55078   5.239   9.656   9.456
18279WAT     H155079   5.251   9.573   9.511
18279WAT     H255080   5.289   9.646   9.370
18280WAT      O55081   6.606   7.106   7.778
18280WAT     H155082   6.622   7.203   7.797
18280WAT     H255083   6.627   7.088   7.682
18281WAT      O55084   8.298   6.227   9.825
18281WAT     H155085   8.338   6.256   9.913
18281WAT     H255086   8.372   6.206   9.761
18282WAT      O55087   5.814   9.060   2.137
18282WAT     H155088   5.715   9.063   2.130
18282WAT     H255089   5.854   9.123   2.070
18283WAT      O55090   8.963   9.247   4.412
18283WAT     H155091   8.957   9.181   4.486
18283WAT     H255092   9.043   9.226   4.355
18284WAT      O55093   2.525   4.508   7.138
18284WAT     H155094   2.508   4.541   7.045
18284WAT     H255095   2.603   4.445   7.137
18285WAT      O55096   6.944   9.292   4.117
18285WAT     H155097   6.973   9.224   4.050
18285WAT     H255098   6.961   9.258   4.209
18286WAT      O55099   3.677   5.893   5.375
18286WAT     H155100   3.588   5.907   5.332
18286WAT     H255101   3.682   5.800   5.411
18287WAT      O55102   3.813   3.426   2.026
18287WAT     H155103   3.845   3.389   1.939
18287WAT     H255104   3.735   3.372   2.058
18288WAT      O55105   1.272   4.428   7.413
18288WAT     H155106   1.349   4.399   7.356
18288WAT     H255107   1.186   4.396   7.372
18289WAT      O55108   4.157   5.328   4.024
18289WAT     H155109   4.105   5.413   4.010
18289WAT     H255110   4.200   5.300   3.939
18290WAT      O55111   6.611   4.498   1.980
18290WAT     H155112   6.645   4.404   1.984
18290WAT     H255113   6.647   4.549   2.058
18291WAT      O55114   6.746   0.331   3.975
18291WAT     H155115   6.686   0.386   3.916
18291WAT     H255116   6.801   0.392   4.032
18292WAT      O55117   6.556   3.206   8.759
18292WAT     H155118   6.616   3.285   8.745
18292WAT     H255119   6.544   3.158   8.672
18293WAT      O55120   3.709   4.645   7.092
18293WAT     H155121   3.751   4.599   7.170
18293WAT     H255122   3.705   4.583   7.014
18294WAT      O55123   4.149   7.782   9.591
18294WAT     H155124   4.130   7.749   9.683
18294WAT     H255125   4.079   7.848   9.564
18295WAT      O55126   6.916   3.581   8.280
18295WAT     H155127   6.867   3.611   8.362
18295WAT     H255128   6.850   3.550   8.211
18296WAT      O55129   4.572   8.230   0.950
18296WAT     H155130   4.543   8.155   1.010
18296WAT     H255131   4.670   8.247   0.963
18297WAT      O55132   0.010   2.554   8.464
18297WAT     H155133   0.022   2.649   8.491
18297WAT     H255134  -0.047   2.549   8.382
18298WAT      O55135   4.971   0.862   2.949
18298WAT     H155136   4.903   0.911   3.003
18298WAT     H255137   4.962   0.888   2.853
18299WAT      O55138   0.576   7.994   5.102
18299WAT     H155139   0.508   8.065   5.085
18299WAT     H255140   0.558   7.949   5.189
18300WAT      O55141   0.114   5.840   1.800
18300WAT     H155142   0.176   5.914   1.826
18300WAT     H255143   0.166   5.759   1.776
18301WAT      O55144   9.778   4.686   1.260
18301WAT     H155145   9.697   4.633   1.282
18301WAT     H255146   9.752   4.781   1.241
18302WAT      O55147   5.999   3.035   3.248
18302WAT     H155148   6.068   2.964   3.257
18302WAT     H255149   5.947   3.020   3.164
18303WAT      O55150   2.660   8.487   1.676
18303WAT     H155151   2.722   8.421   1.635
18303WAT     H255152   2.582   8.439   1.717
18304WAT      O55153   6.942   2.354   4.908
18304WAT     H155154   7.025   2.299   4.901
18304WAT     H255155   6.937   2.417   4.830
18305WAT      O55156   6.746   1.730   4.270
18305WAT     H155157   6.649   1.715   4.285
18305WAT     H255158   6.798   1.698   4.349
18306WAT      O55159   1.756   1.714   7.738
18306WAT     H155160   1.844   1.666   7.740
18306WAT     H255161   1.732   1.736   7.643
18307WAT      O55162   2.029   6.767   3.037
18307WAT     H155163   1.946   6.720   3.006
18307WAT     H255164   2.097   6.700   3.065
18308WAT      O55165   7.924   9.240   3.578
18308WAT     H155166   7.980   9.220   3.659
18308WAT     H255167   7.830   9.259   3.608
18309WAT      O55168   9.352   0.667   2.423
18309WAT     H155169   9.325   0.710   2.337
18309WAT     H255170   9.420   0.724   2.469
18310WAT      O55171   3.726   0.834   2.814
18310WAT     H155172   3.722   0.884   2.900
18310WAT     H255173   3.821   0.806   2.797
18311WAT      O55174   4.726   8.247   5.484
18311WAT     H155175   4.770   8.162   5.509
18311WAT     H255176   4.772   8.287   5.404
18312WAT      O55177   8.629   1.299   1.890
18312WAT     H155178   8.717   1.256   1.911
18312WAT     H255179   8.578   1.242   1.826
18313WAT      O55180   2.078   9.049   5.662
18313WAT     H155181   2.102   8.967   5.713
18313WAT     H255182   1.980   9.050   5.644
18314WAT      O55183   5.285   8.701   0.054
18314WAT     H155184   5.323   8.610   0.040
18314WAT     H255185   5.186   8.698   0.044
18315WAT      O55186   0.860   8.045   1.340
18315WAT     H155187   0.931   8.017   1.405
18315WAT     H255188   0.895   8.035   1.247
18316WAT      O55189   4.627   2.481   2.352
18316WAT     H155190   4.654   2.571   2.386
18316WAT     H255191   4.595   2.489   2.258
18317WAT      O55192   0.674   2.922   2.261
18317WAT     H155193   0.717   2.978   2.190
18317WAT     H255194   0.687   2.825   2.240
18318WAT      O55195   8.905   3.610   7.223
18318WAT     H155196   8.952   3.521   7.225
18318WAT     H255197   8.812   3.599   7.189
18319WAT      O55198   8.642   2.516   9.541
18319WAT     H155199   8.621   2.567   9.624
18319WAT     H255200   8.740   2.496   9.537
18320WAT      O55201   7.012   5.739   7.154
18320WAT     H155202   6.993   5.752   7.057
18320WAT     H255203   7.111   5.728   7.168
18321WAT      O55204   7.599   9.407   5.962
18321WAT     H155205   7.610   9.464   5.881
18321WAT     H255206   7.629   9.458   6.043
18322WAT      O55207   6.413   4.526   6.307
18322WAT     H155208   6.400   4.571   6.219
18322WAT     H255209   6.412   4.594   6.381
18323WAT      O55210   3.397   9.082   6.068
18323WAT     H155211   3.354   9.092   6.157
18323WAT     H255212   3.413   9.173   6.029
18324WAT      O55213   9.205   6.103   7.634
18324WAT     H155214   9.218   6.180   7.571
18324WAT     H255215   9.290   6.085   7.683
18325WAT      O55216   2.289   3.200   8.328
18325WAT     H155217   2.323   3.215   8.235
18325WAT     H255218   2.214   3.134   8.327
18326WAT      O55219   5.554   0.220   8.223
18326WAT     H155220   5.553   0.277   8.140
18326WAT     H255221   5.587   0.128   8.200
18327WAT      O55222   5.077   1.293   1.712
18327WAT     H155223   5.123   1.302   1.624
18327WAT     H255224   4.995   1.351   1.714
18328WAT      O55225   8.841   0.611   9.618
18328WAT     H155226   8.753   0.628   9.574
18328WAT     H255227   8.844   0.517   9.651
18329WAT      O55228   1.479   1.523   6.871
18329WAT     H155229   1.457   1.456   6.800
18329WAT     H255230   1.576   1.547   6.865
18330WAT      O55231   7.101   3.738   7.776
18330WAT     H155232   7.200   3.729   7.764
18330WAT     H255233   7.064   3.653   7.814
18331WAT      O55234   0.096   6.865   2.543
18331WAT     H155235   0.162   6.937   2.563
18331WAT     H255236   0.053   6.883   2.455
18332WAT      O55237   5.158   9.228   6.099
18332WAT     H155238   5.083   9.177   6.057
18332WAT     H255239   5.194   9.176   6.176
18333WAT      O55240   5.119   4.184   4.084
18333WAT     H155241   5.067   4.112   4.131
18333WAT     H255242   5.151   4.251   4.150
18334WAT      O55243   6.074   3.723   2.757
18334WAT     H155244   6.169   3.721   2.788
18334WAT     H255245   6.035   3.813   2.775
18335WAT      O55246   3.528   7.090   1.608
18335WAT     H155247   3.535   7.006   1.661
18335WAT     H255248   3.517   7.067   1.511
18336WAT      O55249   7.728   8.639   7.561
18336WAT     H155250   7.633   8.631   7.592
18336WAT     H255251   7.746   8.570   7.491
18337WAT      O55252   2.656   1.706   6.198
18337WAT     H155253   2.614   1.651   6.126
18337WAT     H255254   2.660   1.802   6.169
18338WAT      O55255   3.539   0.144   3.837
18338WAT     H155256   3.517   0.192   3.752
18338WAT     H255257   3.572   0.051   3.815
18339WAT      O55258   8.094   7.372   1.126
18339WAT     H155259   8.022   7.441   1.130
18339WAT     H255260   8.182   7.418   1.114
18340WAT      O55261   2.877   9.680   9.660
18340WAT     H155262   2.801   9.648   9.603
18340WAT     H255263   2.907   9.606   9.719
18341WAT      O55264   6.689   5.071   9.529
18341WAT     H155265   6.659   5.104   9.618
18341WAT     H255266   6.718   5.148   9.472
18342WAT      O55267   9.022   5.633   8.292
18342WAT     H155268   9.073   5.650   8.207
18342WAT     H255269   8.926   5.658   8.278
18343WAT      O55270   1.274   7.866   4.145
18343WAT     H155271   1.224   7.831   4.066
18343WAT     H255272   1.356   7.810   4.160
18344WAT      O55273   5.933   6.294   5.273
18344WAT     H155274   5.936   6.379   5.220
18344WAT     H255275   5.846   6.247   5.256
18345WAT      O55276   9.681   5.880   6.355
18345WAT     H155277   9.599   5.822   6.352
18345WAT     H255278   9.667   5.952   6.423
18346WAT      O55279   4.918   4.688   8.663
18346WAT     H155280   4.839   4.658   8.716
18346WAT     H255281   4.912   4.787   8.648
18347WAT      O55282   1.875   8.812   5.869
18347WAT     H155283   1.966   8.806   5.912
18347WAT     H255284   1.813   8.749   5.915
18348WAT      O55285   4.534   1.732   9.033
18348WAT     H155286   4.516   1.826   9.006
18348WAT     H255287   4.622   1.702   8.994
18349WAT      O55288   7.962   8.310   1.731
18349WAT     H155289   8.048   8.343   1.690
18349WAT     H255290   7.983   8.259   1.814
18350WAT      O55291   1.128   0.855   3.155
18350WAT     H155292   1.191   0.860   3.232
18350WAT     H255293   1.175   0.884   3.072
18351WAT      O55294   1.603   1.312   3.789
18351WAT     H155295   1.657   1.259   3.724
18351WAT     H255296   1.518   1.340   3.746
18352WAT      O55297   0.772   4.708   1.791
18352WAT     H155298   0.701   4.760   1.839
18352WAT     H255299   0.756   4.712   1.692
18353WAT      O55300   4.224   5.306   9.587
18353WAT     H155301   4.245   5.209   9.574
18353WAT     H255302   4.139   5.315   9.638
18354WAT      O55303   8.847   3.221   6.101
18354WAT     H155304   8.816   3.147   6.041
18354WAT     H255305   8.883   3.296   6.045
18355WAT      O55306   9.670   8.161   9.824
18355WAT     H155307   9.657   8.063   9.807
18355WAT     H255308   9.653   8.212   9.739
18356WAT      O55309   0.755   7.835   0.228
18356WAT     H155310   0.735   7.750   0.277
18356WAT     H255311   0.740   7.821   0.130
18357WAT      O55312   2.555   7.269   5.152
18357WAT     H155313   2.647   7.235   5.173
18357WAT     H255314   2.546   7.363   5.184
18358WAT      O55315   4.820   1.808   0.612
18358WAT     H155316   4.724   1.817   0.585
18358WAT     H255317   4.838   1.867   0.691
18359WAT      O55318   6.158   7.205   5.449
18359WAT     H155319   6.236   7.158   5.409
18359WAT     H255320   6.158   7.191   5.548
18360WAT      O55321   6.503   1.129   9.443
18360WAT     H155322   6.497   1.040   9.488
18360WAT     H255323   6.565   1.122   9.365
18361WAT      O55324   3.009   3.201   7.092
18361WAT     H155325   2.909   3.205   7.092
18361WAT     H255326   3.041   3.156   7.176
18362WAT      O55327   9.889   7.307   3.214
18362WAT     H155328   9.954   7.381   3.200
18362WAT     H255329   9.809   7.340   3.265
18363WAT      O55330   0.647   9.105   0.031
18363WAT     H155331   0.681   9.033  -0.030
18363WAT     H255332   0.550   9.119   0.016
18364WAT      O55333   1.994   2.129   9.092
18364WAT     H155334   2.045   2.091   9.014
18364WAT     H255335   1.971   2.224   9.071
18365WAT      O55336   3.427   8.414   1.434
18365WAT     H155337   3.495   8.401   1.506
18365WAT     H255338   3.467   8.467   1.359
18366WAT      O55339   5.314   9.671   1.221
18366WAT     H155340   5.369   9.754   1.227
18366WAT     H255341   5.374   9.592   1.209
18367WAT      O55342   8.238   0.586   4.214
18367WAT     H155343   8.273   0.497   4.184
18367WAT     H255344   8.212   0.581   4.310
18368WAT      O55345   6.567   8.090   0.840
18368WAT     H155346   6.623   8.010   0.815
18368WAT     H255347   6.471   8.062   0.847
18369WAT      O55348   5.339   2.364   4.872
18369WAT     H155349   5.262   2.372   4.810
18369WAT     H255350   5.310   2.314   4.954
18370WAT      O55351   9.846   1.315   6.455
18370WAT     H155352   9.882   1.289   6.544
18370WAT     H255353   9.806   1.407   6.460
18371WAT      O55354   6.867   9.566   8.669
18371WAT     H155355   6.897   9.471   8.658
18371WAT     H255356   6.933   9.615   8.725
18372WAT      O55357   0.992   5.508   8.616
18372WAT     H155358   0.915   5.467   8.568
18372WAT     H255359   1.062   5.439   8.633
18373WAT      O55360   4.557   7.536   0.937
18373WAT     H155361   4.587   7.441   0.936
18373WAT     H255362   4.462   7.542   0.908
18374WAT      O55363   2.020   4.338   0.102
18374WAT     H155364   1.989   4.401   0.173
18374WAT     H255365   2.110   4.301   0.127
18375WAT      O55366   7.280   6.840   5.631
18375WAT     H155367   7.376   6.867   5.633
18375WAT     H255368   7.259   6.799   5.542
18376WAT      O55369   1.943   9.235   3.097
18376WAT     H155370   1.896   9.148   3.106
18376WAT     H255371   1.878   9.310   3.107
18377WAT      O55372   2.673   6.051   9.404
18377WAT     H155373   2.617   6.016   9.329
18377WAT     H255374   2.705   6.143   9.382
18378WAT      O55375   9.780   0.140   8.600
18378WAT     H155376   9.877   0.156   8.581
18378WAT     H255377   9.740   0.223   8.640
18379WAT      O55378   5.227   9.614   4.797
18379WAT     H155379   5.232   9.698   4.851
18379WAT     H255380   5.296   9.549   4.830
18380WAT      O55381   9.102   4.715   6.209
18380WAT     H155382   9.054   4.744   6.126
18380WAT     H255383   9.141   4.624   6.194
18381WAT      O55384   9.313   4.199   7.100
18381WAT     H155385   9.298   4.270   7.031
18381WAT     H255386   9.369   4.127   7.061
18382WAT      O55387   5.438   3.633   5.630
18382WAT     H155388   5.354   3.666   5.588
18382WAT     H255389   5.497   3.711   5.652
18383WAT      O55390   4.102   8.581   6.236
18383WAT     H155391   4.120   8.660   6.178
18383WAT     H255392   4.012   8.592   6.279
18384WAT      O55393   9.393   2.894   7.408
18384WAT     H155394   9.490   2.916   7.420
18384WAT     H255395   9.381   2.840   7.325
18385WAT      O55396   8.114   4.697   5.663
18385WAT     H155397   8.088   4.730   5.573
18385WAT     H255398   8.165   4.767   5.712
18386WAT      O55399   0.082   7.882   5.021
18386WAT     H155400   0.009   7.826   5.060
18386WAT     H255401   0.122   7.939   5.093
18387WAT      O55402   4.687   1.332   4.743
18387WAT     H155403   4.695   1.287   4.833
18387WAT     H255404   4.750   1.410   4.739
18388WAT      O55405   0.143   1.385   9.172
18388WAT     H155406   0.197   1.408   9.090
18388WAT     H255407   0.145   1.286   9.187
18389WAT      O55408   1.177   2.392   4.729
18389WAT     H155409   1.214   2.321   4.669
18389WAT     H255410   1.215   2.481   4.703
18390WAT      O55411   3.936   8.446   9.201
18390WAT     H155412   3.873   8.504   9.252
18390WAT     H255413   3.904   8.436   9.107
18391WAT      O55414   7.495   5.993   4.422
18391WAT     H155415   7.594   5.987   4.438
18391WAT     H255416   7.446   5.937   4.489
18392WAT      O55417   1.393   0.318   6.855
18392WAT     H155418   1.342   0.284   6.776
18392WAT     H255419   1.358   0.407   6.881
18393WAT      O55420   3.007   6.524   9.672
18393WAT     H155421   3.023   6.608   9.724
18393WAT     H255422   2.909   6.502   9.674
18394WAT      O55423   4.304   0.346   8.727
18394WAT     H155424   4.237   0.383   8.792
18394WAT     H255425   4.323   0.414   8.656
18395WAT      O55426   8.882   1.065   6.944
18395WAT     H155427   8.833   0.998   7.000
18395WAT     H255428   8.837   1.153   6.950
18396WAT      O55429   1.245   7.722   4.868
18396WAT     H155430   1.202   7.778   4.797
18396WAT     H255431   1.185   7.646   4.891
18397WAT      O55432   0.330   3.899   1.377
18397WAT     H155433   0.241   3.931   1.346
18397WAT     H255434   0.324   3.874   1.474
18398WAT      O55435   9.013   6.625   1.737
18398WAT     H155436   9.063   6.670   1.664
18398WAT     H255437   8.968   6.693   1.795
18399WAT      O55438   7.295   3.184   4.665
18399WAT     H155439   7.251   3.257   4.717
18399WAT     H255440   7.339   3.120   4.728
18400WAT      O55441   2.060   3.873   4.950
18400WAT     H155442   1.982   3.865   4.887
18400WAT     H255443   2.033   3.843   5.041
18401WAT      O55444   0.746   9.287   3.256
18401WAT     H155445   0.680   9.239   3.314
18401WAT     H255446   0.791   9.358   3.309
18402WAT      O55447   9.827   9.015   1.702
18402WAT     H155448   9.767   9.089   1.733
18402WAT     H255449   9.815   8.935   1.760
18403WAT      O55450   0.066   3.182   4.362
18403WAT     H155451   0.125   3.194   4.441
18403WAT     H255452   0.008   3.101   4.375
18404WAT      O55453   4.376   8.773   8.989
18404WAT     H155454   4.386   8.830   9.071
18404WAT     H255455   4.453   8.708   8.985
18405WAT      O55456   3.864   1.640   5.220
18405WAT     H155457   3.960   1.633   5.247
18405WAT     H255458   3.851   1.722   5.165
18406WAT      O55459   6.685   0.035   8.677
18406WAT     H155460   6.717   0.128   8.695
18406WAT     H255461   6.734  -0.003   8.599
18407WAT      O55462   1.556   5.523   0.692
18407WAT     H155463   1.490   5.593   0.721
18407WAT     H255464   1.631   5.567   0.642
18408WAT      O55465   1.664   2.093   6.443
18408WAT     H155466   1.685   2.191   6.445
18408WAT     H255467   1.745   2.042   6.414
18409WAT      O55468   4.800   7.966   3.496
18409WAT     H155469   4.794   7.913   3.581
18409WAT     H255470   4.887   7.948   3.451
18410WAT      O55471   4.529   5.474   2.727
18410WAT     H155472   4.461   5.477   2.653
18410WAT     H255473   4.550   5.379   2.749
18411WAT      O55474   0.481   1.213   6.625
18411WAT     H155475   0.423   1.186   6.702
18411WAT     H255476   0.555   1.147   6.615
18412WAT      O55477   8.436   3.149   7.965
18412WAT     H155478   8.375   3.168   8.042
18412WAT     H255479   8.509   3.087   7.994
18413WAT      O55480   3.989   7.491   8.065
18413WAT     H155481   4.080   7.513   8.101
18413WAT     H255482   3.996   7.410   8.007
18414WAT      O55483   4.432   2.057   5.092
18414WAT     H155484   4.482   2.005   5.023
18414WAT     H255485   4.392   1.994   5.158
18415WAT      O55486   8.114   5.871   1.812
18415WAT     H155487   8.163   5.870   1.724
18415WAT     H255488   8.157   5.807   1.875
18416WAT      O55489   6.268   7.807   7.806
18416WAT     H155490   6.232   7.737   7.743
18416WAT     H255491   6.302   7.762   7.888
18417WAT      O55492   2.126   7.917   2.811
18417WAT     H155493   2.171   7.844   2.863
18417WAT     H255494   2.034   7.931   2.847
18418WAT      O55495   0.201   8.357   0.306
18418WAT     H155496   0.199   8.270   0.257
18418WAT     H255497   0.108   8.384   0.330
18419WAT      O55498   9.653   0.054   4.993
18419WAT     H155499   9.717   0.130   5.001
18419WAT     H255500   9.682  -0.021   5.052
18420WAT      O55501   0.534   1.878   3.248
18420WAT     H155502   0.566   1.788   3.277
18420WAT     H255503   0.612   1.940   3.239
18421WAT      O55504   1.083   2.767   0.424
18421WAT     H155505   1.173   2.797   0.392
18421WAT     H255506   1.012   2.810   0.369
18422WAT      O55507   3.412   1.969   0.477
18422WAT     H155508   3.449   1.991   0.568
18422WAT     H255509   3.403   2.053   0.424
18423WAT      O55510   3.278   8.736   3.153
18423WAT     H155511   3.208   8.696   3.213
18423WAT     H255512   3.368   8.726   3.196
18424WAT      O55513   9.419   8.892   3.195
18424WAT     H155514   9.379   8.828   3.130
18424WAT     H255515   9.377   8.982   3.184
18425WAT      O55516   2.624   9.787   5.484
18425WAT     H155517   2.550   9.756   5.544
18425WAT     H255518   2.687   9.844   5.537
18426WAT      O55519   1.929   2.217   1.918
18426WAT     H155520   1.877   2.293   1.880
18426WAT     H255521   2.026   2.240   1.919
18427WAT      O55522   5.246   1.297   1.932
18427WAT     H155523   5.251   1.386   1.977
18427WAT     H255524   5.185   1.303   1.853
18428WAT      O55525   7.601   5.647   9.510
18428WAT     H155526   7.612   5.742   9.481
18428WAT     H255527   7.505   5.628   9.528
18429WAT      O55528   8.068   3.997   2.341
18429WAT     H155529   8.050   3.976   2.437
18429WAT     H255530   8.037   4.090   2.321
18430WAT      O55531   4.360   1.353   1.292
18430WAT     H155532   4.413   1.370   1.375
18430WAT     H255533   4.420   1.362   1.212
18431WAT      O55534   6.181   6.816   4.009
18431WAT     H155535   6.115   6.839   4.080
18431WAT     H255536   6.195   6.895   3.949
18432WAT      O55537   0.043   6.950   2.301
18432WAT     H155538  -0.008   7.027   2.263
18432WAT     H255539   0.031   6.870   2.242
18433WAT      O55540   5.899   5.437   7.727
18433WAT     H155541   5.965   5.370   7.760
18433WAT     H255542   5.858   5.404   7.642
18434WAT      O55543   1.482   1.951   9.653
18434WAT     H155544   1.458   1.910   9.565
18434WAT     H255545   1.532   1.883   9.708
18435WAT      O55546   9.556   2.197   7.180
18435WAT     H155547   9.533   2.254   7.259
18435WAT     H255548   9.655   2.194   7.169
18436WAT      O55549   3.479   8.375   2.947
18436WAT     H155550   3.494   8.366   3.046
18436WAT     H255551   3.558   8.338   2.898
18437WAT      O55552   6.645   1.553   4.779
18437WAT     H155553   6.613   1.645   4.800
18437WAT     H255554   6.711   1.557   4.703
18438WAT      O55555   6.403   3.774   4.771
18438WAT     H155556   6.398   3.772   4.871
18438WAT     H255557   6.401   3.869   4.740
18439WAT      O55558   9.238   9.015   9.236
18439WAT     H155559   9.214   8.994   9.330
18439WAT     H255560   9.307   9.087   9.234
18440WAT      O55561   2.738   9.179   4.498
18440WAT     H155562   2.687   9.136   4.424
18440WAT     H255563   2.740   9.278   4.484
18441WAT      O55564   3.731   0.831   5.311
18441WAT     H155565   3.651   0.855   5.367
18441WAT     H255566   3.731   0.887   5.228
18442WAT      O55567   8.870   7.847   0.463
18442WAT     H155568   8.968   7.864   0.477
18442WAT     H255569   8.859   7.760   0.414
18443WAT      O55570   0.318   6.381   1.391
18443WAT     H155571   0.337   6.479   1.403
18443WAT     H255572   0.238   6.356   1.445
18444WAT      O55573   5.689   0.933   4.801
18444WAT     H155574   5.708   1.006   4.866
18444WAT     H255575   5.663   0.972   4.712
18445WAT      O55576   0.267   9.836   5.789
18445WAT     H155577   0.301   9.801   5.876
18445WAT     H255578   0.253   9.760   5.725
18446WAT      O55579   5.170   9.568   0.685
18446WAT     H155580   5.085   9.545   0.636
18446WAT     H255581   5.180   9.667   0.689
18447WAT      O55582   1.556   3.301   6.900
18447WAT     H155583   1.461   3.272   6.910
18447WAT     H255584   1.591   3.331   6.989
18448WAT      O55585   3.862   0.199   2.498
18448WAT     H155586   3.947   0.225   2.452
18448WAT     H255587   3.784   0.214   2.437
18449WAT      O55588   2.095   7.628   0.656
18449WAT     H155589   2.003   7.631   0.694
18449WAT     H255590   2.159   7.675   0.717
18450WAT      O55591   8.609   3.356   9.206
18450WAT     H155592   8.517   3.320   9.191
18450WAT     H255593   8.608   3.416   9.287
18451WAT      O55594   9.846   2.334   6.695
18451WAT     H155595   9.798   2.247   6.684
18451WAT     H255596   9.784   2.409   6.678
18452WAT      O55597   6.073   2.875   7.703
18452WAT     H155598   6.066   2.927   7.788
18452WAT     H255599   6.161   2.827   7.701
18453WAT      O55600   5.560   5.570   2.681
18453WAT     H155601   5.505   5.620   2.615
18453WAT     H255602   5.575   5.627   2.762
18454WAT      O55603   5.760   8.232   9.249
18454WAT     H155604   5.760   8.281   9.336
18454WAT     H255605   5.705   8.283   9.182
18455WAT      O55606   7.770   6.544   4.308
18455WAT     H155607   7.699   6.480   4.336
18455WAT     H255608   7.744   6.587   4.221
18456WAT      O55609   6.359   8.750   4.648
18456WAT     H155610   6.355   8.824   4.581
18456WAT     H255611   6.455   8.729   4.669
18457WAT      O55612   9.622   5.497   9.350
18457WAT     H155613   9.550   5.555   9.388
18457WAT     H255614   9.705   5.551   9.337
18458WAT      O55615   6.061   9.132   0.291
18458WAT     H155616   6.126   9.057   0.285
18458WAT     H255617   5.976   9.107   0.245
18459WAT      O55618   9.882   0.304   9.545
18459WAT     H155619   9.834   0.240   9.485
18459WAT     H255620   9.856   0.286   9.640
18460WAT      O55621   6.038   8.174   4.838
18460WAT     H155622   6.122   8.121   4.821
18460WAT     H255623   5.975   8.120   4.893
18461WAT      O55624   7.245   1.731   4.324
18461WAT     H155625   7.161   1.680   4.345
18461WAT     H255626   7.256   1.805   4.391
18462WAT      O55627   5.128   5.283   7.294
18462WAT     H155628   5.139   5.365   7.350
18462WAT     H255629   5.196   5.215   7.321
18463WAT      O55630   0.679   8.430   7.845
18463WAT     H155631   0.670   8.510   7.904
18463WAT     H255632   0.658   8.347   7.897
18464WAT      O55633   2.140   4.184   1.417
18464WAT     H155634   2.157   4.127   1.336
18464WAT     H255635   2.046   4.217   1.414
18465WAT      O55636   5.797   3.631   5.716
18465WAT     H155637   5.894   3.623   5.694
18465WAT     H255638   5.762   3.718   5.681
18466WAT      O55639   5.359   0.074   6.885
18466WAT     H155640   5.350   0.122   6.798
18466WAT     H255641   5.350   0.139   6.960
18467WAT      O55642   8.121   8.246   0.793
18467WAT     H155643   8.083   8.315   0.855
18467WAT     H255644   8.086   8.262   0.701
18468WAT      O55645   4.488   0.685   7.667
18468WAT     H155646   4.522   0.591   7.661
18468WAT     H255647   4.548   0.739   7.725
18469WAT      O55648   7.779   5.541   7.141
18469WAT     H155649   7.832   5.496   7.069
18469WAT     H255650   7.699   5.585   7.101
18470WAT      O55651   7.573   8.557   9.721
18470WAT     H155652   7.529   8.507   9.647
18470WAT     H255653   7.539   8.651   9.722
18471WAT      O55654   4.935   0.221   0.356
18471WAT     H155655   4.853   0.203   0.410
18471WAT     H255656   4.959   0.318   0.363
18472WAT      O55657   6.685   0.812   4.377
18472WAT     H155658   6.782   0.789   4.368
18472WAT     H255659   6.670   0.907   4.348
18473WAT      O55660   5.188   5.775   3.516
18473WAT     H155661   5.174   5.694   3.459
18473WAT     H255662   5.211   5.853   3.458
18474WAT      O55663   2.757   0.895   4.549
18474WAT     H155664   2.709   0.891   4.636
18474WAT     H255665   2.808   0.810   4.534
18475WAT      O55666   5.530   6.234   1.012
18475WAT     H155667   5.553   6.198   1.102
18475WAT     H255668   5.606   6.215   0.949
18476WAT      O55669   6.197   4.452   1.240
18476WAT     H155670   6.266   4.391   1.279
18476WAT     H255671   6.188   4.434   1.142
18477WAT      O55672   0.301   5.178   0.212
18477WAT     H155673   0.233   5.105   0.213
18477WAT     H255674   0.291   5.234   0.295
18478WAT      O55675   7.446   6.602   4.645
18478WAT     H155676   7.400   6.673   4.591
18478WAT     H255677   7.463   6.522   4.587
18479WAT      O55678   0.821   4.569   5.036
18479WAT     H155679   0.831   4.542   4.940
18479WAT     H255680   0.748   4.637   5.044
18480WAT      O55681   9.509   9.297   6.724
18480WAT     H155682   9.441   9.370   6.723
18480WAT     H255683   9.482   9.226   6.659
18481WAT      O55684   2.969   9.617   4.092
18481WAT     H155685   3.067   9.606   4.080
18481WAT     H255686   2.925   9.527   4.099
18482WAT      O55687   8.041   5.176   8.032
18482WAT     H155688   8.124   5.152   7.982
18482WAT     H255689   7.963   5.128   7.994
18483WAT      O55690   0.363   8.252   8.344
18483WAT     H155691   0.434   8.191   8.377
18483WAT     H255692   0.274   8.218   8.374
18484WAT      O55693   4.745   1.993   1.390
18484WAT     H155694   4.793   1.965   1.472
18484WAT     H255695   4.759   2.091   1.375
18485WAT      O55696   4.979   9.585   8.145
18485WAT     H155697   5.028   9.503   8.115
18485WAT     H255698   4.881   9.568   8.142
18486WAT      O55699   8.924   7.235   6.411
18486WAT     H155700   8.888   7.196   6.326
18486WAT     H255701   8.926   7.164   6.482
18487WAT      O55702   7.969   4.197   5.936
18487WAT     H155703   7.991   4.293   5.954
18487WAT     H255704   7.975   4.180   5.837
18488WAT      O55705   1.200   0.630   0.298
18488WAT     H155706   1.290   0.603   0.331
18488WAT     H255707   1.171   0.569   0.225
18489WAT      O55708   9.690   8.722   6.290
18489WAT     H155709   9.611   8.668   6.321
18489WAT     H255710   9.753   8.663   6.240
18490WAT      O55711   1.240   1.812   8.468
18490WAT     H155712   1.332   1.772   8.464
18490WAT     H255713   1.173   1.740   8.487
18491WAT      O55714   6.445   7.410   7.725
18491WAT     H155715   6.540   7.413   7.757
18491WAT     H255716   6.441   7.366   7.635
18492WAT      O55717   6.711   6.474   4.437
18492WAT     H155718   6.661   6.516   4.361
18492WAT     H255719   6.652   6.407   4.482
18493WAT      O55720   1.135   5.857   3.785
18493WAT     H155721   1.097   5.907   3.863
18493WAT     H255722   1.061   5.811   3.735
18494WAT      O55723   0.254   0.988   5.351
18494WAT     H155724   0.212   1.046   5.421
18494WAT     H255725   0.300   0.911   5.394
18495WAT      O55726   9.023   5.376   1.310
18495WAT     H155727   8.957   5.310   1.276
18495WAT     H255728   8.975   5.453   1.352
18496WAT      O55729   7.268   0.312   2.502
18496WAT     H155730   7.345   0.282   2.559
18496WAT     H255731   7.182   0.278   2.540
18497WAT      O55732   6.374   7.961   2.089
18497WAT     H155733   6.440   7.946   2.015
18497WAT     H255734   6.281   7.960   2.052
18498WAT      O55735   3.211   5.307   4.867
18498WAT     H155736   3.189   5.289   4.963
18498WAT     H255737   3.281   5.243   4.836
18499WAT      O55738   6.037   4.815   6.741
18499WAT     H155739   5.939   4.798   6.729
18499WAT     H255740   6.086   4.779   6.661
18500WAT      O55741   0.452   9.324   5.955
18500WAT     H155742   0.414   9.270   6.030
18500WAT     H255743   0.541   9.287   5.929
18501WAT      O55744   6.205   4.618   9.103
18501WAT     H155745   6.153   4.547   9.056
18501WAT     H255746   6.160   4.706   9.092
18502WAT      O55747   1.477   7.108   9.308
18502WAT     H155748   1.446   7.014   9.291
18502WAT     H255749   1.412   7.172   9.268
18503WAT      O55750   1.229   0.314   9.177
18503WAT     H155751   1.273   0.303   9.266
18503WAT     H255752   1.203   0.410   9.165
18504WAT      O55753   4.627   8.047   1.585
18504WAT     H155754   4.656   7.961   1.627
18504WAT     H255755   4.695   8.076   1.517
18505WAT      O55756   2.525   4.237   9.142
18505WAT     H155757   2.620   4.236   9.110
18505WAT     H255758   2.513   4.165   9.210
18506WAT      O55759   7.144   0.708   1.694
18506WAT     H155760   7.051   0.689   1.664
18506WAT     H255761   7.142   0.755   1.782
18507WAT      O55762   2.474   8.710   4.085
18507WAT     H155763   2.465   8.696   3.986
18507WAT     H255764   2.432   8.798   4.110
18508WAT      O55765   6.403   5.125   7.574
18508WAT     H155766   6.395   5.180   7.658
18508WAT     H255767   6.499   5.115   7.550
18509WAT      O55768   5.379   3.341   4.993
18509WAT     H155769   5.325   3.258   4.992
18509WAT     H255770   5.332   3.413   4.941
18510WAT      O55771   8.705   7.617   4.302
18510WAT     H155772   8.615   7.584   4.273
18510WAT     H255773   8.754   7.651   4.222
18511WAT      O55774   1.407   7.378   9.656
18511WAT     H155775   1.485   7.431   9.621
18511WAT     H255776   1.419   7.282   9.631
18512WAT      O55777   7.580   2.150   8.676
18512WAT     H155778   7.646   2.169   8.749
18512WAT     H255779   7.488   2.149   8.713
18513WAT      O55780   6.264   8.464   1.864
18513WAT     H155781   6.190   8.474   1.798
18513WAT     H255782   6.346   8.430   1.817
18514WAT      O55783   7.458   1.062   7.563
18514WAT     H155784   7.377   1.024   7.609
18514WAT     H255785   7.470   1.157   7.591
18515WAT      O55786   3.310   4.546   7.370
18515WAT     H155787   3.288   4.640   7.344
18515WAT     H255788   3.226   4.492   7.374
18516WAT      O55789   9.115   8.761   1.652
18516WAT     H155790   9.037   8.805   1.606
18516WAT     H255791   9.109   8.662   1.640
18517WAT      O55792   4.741   7.781   5.427
18517WAT     H155793   4.649   7.785   5.467
18517WAT     H255794   4.739   7.725   5.344
18518WAT      O55795   9.533   6.092   4.930
18518WAT     H155796   9.602   6.134   4.988
18518WAT     H255797   9.442   6.122   4.960
18519WAT      O55798   1.854   3.776   9.699
18519WAT     H155799   1.869   3.680   9.722
18519WAT     H255800   1.934   3.811   9.650
18520WAT      O55801   1.814   4.988   4.217
18520WAT     H155802   1.766   5.021   4.136
18520WAT     H255803   1.836   5.065   4.277
18521WAT      O55804   4.670   8.221   9.061
18521WAT     H155805   4.572   8.233   9.078
18521WAT     H255806   4.698   8.281   8.985
18522WAT      O55807   5.701   0.011   4.198
18522WAT     H155808   5.779  -0.039   4.160
18522WAT     H255809   5.724   0.108   4.205
18523WAT      O55810   8.801   7.459   7.717
18523WAT     H155811   8.804   7.558   7.736
18523WAT     H255812   8.739   7.443   7.641
18524WAT      O55813   3.049   5.910   1.534
18524WAT     H155814   3.064   5.945   1.441
18524WAT     H255815   2.955   5.877   1.542
18525WAT      O55816   7.312   5.061   7.592
18525WAT     H155817   7.333   5.132   7.660
18525WAT     H255818   7.236   5.006   7.625
18526WAT      O55819   3.498   7.969   0.845
18526WAT     H155820   3.464   8.045   0.790
18526WAT     H255821   3.551   8.004   0.922
18527WAT      O55822   3.369   5.681   2.155
18527WAT     H155823   3.409   5.590   2.165
18527WAT     H255824   3.296   5.678   2.086
18528WAT      O55825   5.149   5.124   0.779
18528WAT     H155826   5.189   5.087   0.695
18528WAT     H255827   5.174   5.066   0.856
18529WAT      O55828   4.026   4.422   6.146
18529WAT     H155829   4.071   4.511   6.134
18529WAT     H255830   3.987   4.417   6.238
18530WAT      O55831   3.758   0.176   7.618
18530WAT     H155832   3.850   0.214   7.625
18530WAT     H255833   3.764   0.081   7.586
18531WAT      O55834   1.410   5.770   3.770
18531WAT     H155835   1.408   5.772   3.870
18531WAT     H255836   1.330   5.817   3.734
18532WAT      O55837   2.307   7.713   1.536
18532WAT     H155838   2.316   7.645   1.608
18532WAT     H255839   2.219   7.704   1.491
18533WAT      O55840   3.037   3.126   5.238
18533WAT     H155841   3.056   3.192   5.311
18533WAT     H255842   3.011   3.176   5.155
18534WAT      O55843   2.301   8.224   2.265
18534WAT     H155844   2.289   8.198   2.170
18534WAT     H255845   2.376   8.172   2.305
18535WAT      O55846   4.961   0.909   7.363
18535WAT     H155847   4.936   0.918   7.459
18535WAT     H255848   5.042   0.850   7.355
18536WAT      O55849   4.523   6.065   9.097
18536WAT     H155850   4.622   6.063   9.086
18536WAT     H255851   4.496   5.994   9.163
18537WAT      O55852   2.180   9.718   7.660
18537WAT     H155853   2.130   9.653   7.718
18537WAT     H255854   2.150   9.708   7.565
18538WAT      O55855   9.622   6.311   0.575
18538WAT     H155856   9.678   6.229   0.592
18538WAT     H255857   9.557   6.291   0.502
18539WAT      O55858   0.142   8.144   8.844
18539WAT     H155859   0.092   8.126   8.929
18539WAT     H255860   0.096   8.218   8.794
18540WAT      O55861   2.225   1.879   7.854
18540WAT     H155862   2.142   1.895   7.799
18540WAT     H255863   2.302   1.926   7.811
18541WAT      O55864   2.133   9.057   8.298
18541WAT     H155865   2.154   9.149   8.333
18541WAT     H255866   2.216   9.015   8.263
18542WAT      O55867   6.500   8.393   3.551
18542WAT     H155868   6.428   8.417   3.616
18542WAT     H255869   6.587   8.383   3.599
18543WAT      O55870   4.817   5.737   0.894
18543WAT     H155871   4.745   5.799   0.863
18543WAT     H255872   4.822   5.738   0.994
18544WAT      O55873   6.624   8.439   1.097
18544WAT     H155874   6.650   8.535   1.086
18544WAT     H255875   6.694   8.381   1.054
18545WAT      O55876   6.850   8.002   7.855
18545WAT     H155877   6.887   7.910   7.842
18545WAT     H255878   6.911   8.069   7.812
18546WAT      O55879   5.958   3.612   6.811
18546WAT     H155880   5.886   3.542   6.815
18546WAT     H255881   5.984   3.638   6.904
18547WAT      O55882   0.485   3.926   8.818
18547WAT     H155883   0.422   4.001   8.833
18547WAT     H255884   0.472   3.889   8.726
18548WAT      O55885   4.393   6.369   4.510
18548WAT     H155886   4.455   6.445   4.490
18548WAT     H255887   4.320   6.401   4.570
18549WAT      O55888   7.383   0.494   7.648
18549WAT     H155889   7.320   0.571   7.640
18549WAT     H255890   7.474   0.521   7.616
18550WAT      O55891   4.694   6.546   3.369
18550WAT     H155892   4.702   6.580   3.275
18550WAT     H255893   4.604   6.505   3.382
18551WAT      O55894   9.210   0.797   0.742
18551WAT     H155895   9.156   0.755   0.669
18551WAT     H255896   9.241   0.887   0.711
18552WAT      O55897   5.411   6.291   1.587
18552WAT     H155898   5.504   6.306   1.554
18552WAT     H255899   5.354   6.257   1.513
18553WAT      O55900   2.019   0.058   0.442
18553WAT     H155901   2.006   0.144   0.490
18553WAT     H255902   2.082  -0.000   0.494
18554WAT      O55903   2.286   6.336   7.477
18554WAT     H155904   2.295   6.281   7.559
18554WAT     H255905   2.367   6.395   7.467
18555WAT      O55906   2.953   1.790   4.658
18555WAT     H155907   2.957   1.723   4.732
18555WAT     H255908   2.864   1.785   4.613
18556WAT      O55909   6.924   4.289   3.722
18556WAT     H155910   6.909   4.272   3.820
18556WAT     H255911   6.974   4.375   3.711
18557WAT      O55912   4.827   7.118   7.794
18557WAT     H155913   4.890   7.191   7.819
18557WAT     H255914   4.738   7.157   7.771
18558WAT      O55915   2.820   4.052   7.916
18558WAT     H155916   2.879   4.096   7.848
18558WAT     H255917   2.744   4.113   7.939
18559WAT      O55918   8.245   1.420   0.705
18559WAT     H155919   8.255   1.352   0.633
18559WAT     H255920   8.260   1.377   0.794
18560WAT      O55921   2.080   9.121   6.776
18560WAT     H155922   2.145   9.071   6.719
18560WAT     H255923   2.050   9.063   6.852
18561WAT      O55924   3.076   6.667   4.390
18561WAT     H155925   3.108   6.750   4.344
18561WAT     H255926   3.154   6.615   4.424
18562WAT      O55927   9.012   7.611   4.007
18562WAT     H155928   9.005   7.656   4.097
18562WAT     H255929   9.072   7.666   3.948
18563WAT      O55930   5.604   9.800   6.081
18563WAT     H155931   5.559   9.816   5.993
18563WAT     H255932   5.688   9.748   6.066
18564WAT      O55933   0.592   3.771   1.372
18564WAT     H155934   0.493   3.786   1.365
18564WAT     H255935   0.636   3.798   1.287
18565WAT      O55936   3.818   3.457   1.109
18565WAT     H155937   3.742   3.493   1.162
18565WAT     H255938   3.865   3.533   1.063
18566WAT      O55939   1.996   8.769   9.101
18566WAT     H155940   2.000   8.845   9.167
18566WAT     H255941   2.084   8.722   9.101
18567WAT      O55942   5.052   2.806   4.505
18567WAT     H155943   5.054   2.721   4.558
18567WAT     H255944   5.081   2.882   4.564
18568WAT      O55945   7.225   3.527   0.380
18568WAT     H155946   7.169   3.548   0.300
18568WAT     H255947   7.169   3.534   0.463
18569WAT      O55948   7.342   8.526   2.002
18569WAT     H155949   7.409   8.498   2.072
18569WAT     H255950   7.254   8.542   2.046
18570WAT      O55951   3.850   7.952   2.558
18570WAT     H155952   3.808   7.865   2.584
18570WAT     H255953   3.854   8.012   2.637
18571WAT      O55954   6.234   1.722   1.962
18571WAT     H155955   6.195   1.792   1.902
18571WAT     H255956   6.328   1.703   1.934
18572WAT      O55957   5.282   4.284   0.149
18572WAT     H155958   5.184   4.263   0.147
18572WAT     H255959   5.295   4.382   0.162
18573WAT      O55960   0.547   8.954   4.410
18573WAT     H155961   0.602   9.026   4.367
18573WAT     H255962   0.505   8.989   4.494
18574WAT      O55963   9.541   3.200   6.888
18574WAT     H155964   9.535   3.219   6.986
18574WAT     H255965   9.566   3.284   6.840
18575WAT      O55966   5.904   8.150   1.964
18575WAT     H155967   5.976   8.219   1.963
18575WAT     H255968   5.839   8.169   1.891
18576WAT      O55969   8.324   0.336   4.160
18576WAT     H155970   8.262   0.259   4.175
18576WAT     H255971   8.396   0.309   4.096
18577WAT      O55972   9.547   2.783   7.768
18577WAT     H155973   9.500   2.721   7.705
18577WAT     H255974   9.590   2.857   7.716
18578WAT      O55975   0.360   5.689   5.994
18578WAT     H155976   0.383   5.666   6.088
18578WAT     H255977   0.283   5.754   5.994
18579WAT      O55978   2.935   3.074   8.326
18579WAT     H155979   2.870   3.149   8.319
18579WAT     H255980   3.023   3.103   8.290
18580WAT      O55981   7.391   0.829   6.546
18580WAT     H155982   7.303   0.821   6.593
18580WAT     H255983   7.458   0.769   6.591
18581WAT      O55984   5.166   3.921   3.123
18581WAT     H155985   5.209   4.000   3.166
18581WAT     H255986   5.215   3.838   3.148
18582WAT      O55987   7.067   4.493   0.670
18582WAT     H155988   7.078   4.561   0.742
18582WAT     H255989   7.094   4.531   0.582
18583WAT      O55990   4.961   8.555   5.932
18583WAT     H155991   4.950   8.477   5.871
18583WAT     H255992   4.953   8.526   6.027
18584WAT      O55993   4.201   2.783   6.837
18584WAT     H155994   4.132   2.712   6.847
18584WAT     H255995   4.287   2.752   6.876
18585WAT      O55996   0.676   2.302   8.174
18585WAT     H155997   0.771   2.278   8.190
18585WAT     H255998   0.661   2.398   8.199
18586WAT      O55999   2.622   4.320   4.023
18586WAT     H156000   2.544   4.309   3.960
18586WAT     H256001   2.707   4.314   3.971
18587WAT      O56002   8.015   6.430   1.056
18587WAT     H156003   7.930   6.378   1.067
18587WAT     H256004   8.058   6.405   0.969
18588WAT      O56005   0.280   4.305   6.739
18588WAT     H156006   0.263   4.349   6.828
18588WAT     H256007   0.193   4.294   6.690
18589WAT      O56008   2.618   6.568   1.953
18589WAT     H156009   2.658   6.607   2.036
18589WAT     H256010   2.665   6.604   1.873
18590WAT      O56011   7.773   1.331   2.369
18590WAT     H156012   7.816   1.409   2.414
18590WAT     H256013   7.677   1.325   2.396
18591WAT      O56014   3.023   9.460   3.228
18591WAT     H156015   3.088   9.427   3.297
18591WAT     H256016   2.980   9.381   3.183
18592WAT      O56017   0.300   6.676   6.886
18592WAT     H156018   0.374   6.743   6.893
18592WAT     H256019   0.264   6.656   6.977
18593WAT      O56020   2.962   3.810   4.205
18593WAT     H156021   3.000   3.726   4.244
18593WAT     H256022   2.908   3.857   4.274
18594WAT      O56023   6.828   8.961   8.635
18594WAT     H156024   6.823   9.048   8.684
18594WAT     H256025   6.920   8.922   8.646
18595WAT      O56026   0.229   7.697   7.196
18595WAT     H156027   0.213   7.702   7.294
18595WAT     H256028   0.322   7.727   7.175
18596WAT      O56029   0.241   6.115   3.478
18596WAT     H156030   0.328   6.076   3.449
18596WAT     H256031   0.173   6.043   3.486
18597WAT      O56032   0.687   4.475   8.982
18597WAT     H156033   0.720   4.457   9.075
18597WAT     H256034   0.740   4.421   8.917
18598WAT      O56035   3.475   2.794   4.772
18598WAT     H156036   3.421   2.877   4.762
18598WAT     H256037   3.425   2.728   4.827
18599WAT      O56038   9.726   3.282   4.882
18599WAT     H156039   9.659   3.228   4.933
18599WAT     H256040   9.799   3.222   4.848
18600WAT      O56041   8.694   4.561   3.028
18600WAT     H156042   8.695   4.540   3.126
18600WAT     H256043   8.718   4.657   3.014
18601WAT      O56044   8.694   8.890   6.105
18601WAT     H156045   8.769   8.922   6.163
18601WAT     H256046   8.618   8.860   6.163
18602WAT      O56047   0.288   2.742   2.199
18602WAT     H156048   0.355   2.750   2.126
18602WAT     H256049   0.287   2.827   2.253
18603WAT      O56050   8.719   9.133   4.058
18603WAT     H156051   8.742   9.189   3.978
18603WAT     H256052   8.731   9.037   4.035
18604WAT      O56053   8.378   4.608   9.015
18604WAT     H156054   8.412   4.559   8.935
18604WAT     H256055   8.292   4.654   8.993
18605WAT      O56056   6.858   5.251   5.669
18605WAT     H156057   6.801   5.303   5.732
18605WAT     H256058   6.954   5.276   5.683
18606WAT      O56059   5.196   9.153   6.404
18606WAT     H156060   5.177   9.212   6.483
18606WAT     H256061   5.198   9.058   6.434
18607WAT      O56062   7.585   4.529   1.587
18607WAT     H156063   7.539   4.596   1.646
18607WAT     H256064   7.631   4.461   1.644
18608WAT      O56065   3.962   7.250   7.140
18608WAT     H156066   4.047   7.301   7.153
18608WAT     H256067   3.895   7.279   7.207
18609WAT      O56068   1.574   7.487   4.442
18609WAT     H156069   1.613   7.554   4.506
18609WAT     H256070   1.550   7.404   4.491
18610WAT      O56071   5.860   9.217   6.890
18610WAT     H156072   5.816   9.262   6.813
18610WAT     H256073   5.868   9.281   6.966
18611WAT      O56074   3.088   3.699   0.049
18611WAT     H156075   3.040   3.782   0.079
18611WAT     H256076   3.060   3.622   0.108
18612WAT      O56077   1.758   6.104   0.971
18612WAT     H156078   1.820   6.103   1.050
18612WAT     H256079   1.738   6.010   0.944
18613WAT      O56080   0.343   3.943   5.341
18613WAT     H156081   0.294   4.029   5.336
18613WAT     H256082   0.291   3.872   5.294
18614WAT      O56083   2.991   5.182   7.673
18614WAT     H156084   3.017   5.276   7.693
18614WAT     H256085   2.904   5.180   7.625
18615WAT      O56086   8.783   3.703   5.144
18615WAT     H156087   8.702   3.753   5.113
18615WAT     H256088   8.858   3.767   5.160
18616WAT      O56089   0.749   6.290   0.520
18616WAT     H156090   0.703   6.379   0.512
18616WAT     H256091   0.818   6.283   0.448
18617WAT      O56092   5.718   7.645   3.490
18617WAT     H156093   5.702   7.730   3.541
18617WAT     H256094   5.701   7.567   3.550
18618WAT      O56095   4.432   0.522   1.888
18618WAT     H156096   4.508   0.483   1.837
18618WAT     H256097   4.383   0.450   1.937
18619WAT      O56098   5.342   0.200   6.658
18619WAT     H156099   5.368   0.295   6.638
18619WAT     H256100   5.312   0.155   6.574
18620WAT      O56101   5.203   0.029   5.375
18620WAT     H156102   5.222   0.093   5.301
18620WAT     H256103   5.198  -0.064   5.339
18621WAT      O56104   5.121   8.698   4.288
18621WAT     H156105   5.055   8.684   4.361
18621WAT     H256106   5.098   8.782   4.238
18622WAT      O56107   4.329   7.090   3.646
18622WAT     H156108   4.418   7.045   3.657
18622WAT     H256109   4.257   7.021   3.651
18623WAT      O56110   3.226   0.142   3.559
18623WAT     H156111   3.166   0.186   3.493
18623WAT     H256112   3.311   0.194   3.566
18624WAT      O56113   4.955   9.363   6.269
18624WAT     H156114   4.985   9.302   6.342
18624WAT     H256115   4.998   9.335   6.183
18625WAT      O56116   8.929   9.181   6.720
18625WAT     H156117   9.022   9.194   6.687
18625WAT     H256118   8.923   9.094   6.768
18626WAT      O56119   2.639   8.689   7.193
18626WAT     H156120   2.549   8.687   7.235
18626WAT     H256121   2.704   8.734   7.255
18627WAT      O56122   4.644   1.541   1.206
18627WAT     H156123   4.593   1.472   1.155
18627WAT     H256124   4.590   1.625   1.211
18628WAT      O56125   4.313   5.948   3.282
18628WAT     H156126   4.254   5.991   3.213
18628WAT     H256127   4.398   6.001   3.291
18629WAT      O56128   7.043   5.359   8.708
18629WAT     H156129   6.974   5.375   8.638
18629WAT     H256130   7.122   5.419   8.693
18630WAT      O56131   6.718   0.343   0.620
18630WAT     H156132   6.797   0.293   0.653
18630WAT     H256133   6.731   0.367   0.523
18631WAT      O56134   1.447   0.550   0.431
18631WAT     H156135   1.511   0.602   0.488
18631WAT     H256136   1.372   0.517   0.488
18632WAT      O56137   3.770   5.485   0.470
18632WAT     H156138   3.800   5.543   0.395
18632WAT     H256139   3.690   5.432   0.441
18633WAT      O56140   2.696   4.922   1.079
18633WAT     H156141   2.764   4.966   1.139
18633WAT     H256142   2.729   4.832   1.053
18634WAT      O56143   3.386   3.093   4.493
18634WAT     H156144   3.315   3.163   4.495
18634WAT     H256145   3.476   3.136   4.480
18635WAT      O56146   5.864   2.335   3.496
18635WAT     H156147   5.847   2.392   3.576
18635WAT     H256148   5.888   2.393   3.419
18636WAT      O56149   8.957   9.295   0.209
18636WAT     H156150   8.913   9.372   0.257
18636WAT     H256151   8.893   9.257   0.143
18637WAT      O56152   3.970   3.847   2.959
18637WAT     H156153   4.065   3.875   2.966
18637WAT     H256154   3.957   3.761   3.009
18638WAT      O56155   9.606   6.027   9.335
18638WAT     H156156   9.668   6.008   9.260
18638WAT     H256157   9.533   5.958   9.337
18639WAT      O56158   6.184   7.444   2.270
18639WAT     H156159   6.123   7.412   2.342
18639WAT     H256160   6.138   7.436   2.181
18640WAT      O56161   0.738   9.252   8.321
18640WAT     H156162   0.767   9.340   8.284
18640WAT     H256163   0.638   9.248   8.323
18641WAT      O56164   6.540   2.188   5.188
18641WAT     H156165   6.608   2.132   5.236
18641WAT     H256166   6.586   2.247   5.122
18642WAT      O56167   8.513   0.872   8.508
18642WAT     H156168   8.487   0.781   8.540
18642WAT     H256169   8.526   0.870   8.409
18643WAT      O56170   4.135   8.028   0.605
18643WAT     H156171   4.065   7.958   0.592
18643WAT     H256172   4.177   8.017   0.695
18644WAT      O56173   5.539   0.039   0.722
18644WAT     H156174   5.637   0.019   0.728
18644WAT     H256175   5.509   0.033   0.627
18645WAT      O56176   9.487   1.431   8.753
18645WAT     H156177   9.455   1.391   8.667
18645WAT     H256178   9.575   1.392   8.777
18646WAT      O56179   5.510   6.719   8.935
18646WAT     H156180   5.492   6.671   9.021
18646WAT     H256181   5.433   6.707   8.873
18647WAT      O56182   1.697   2.297   7.187
18647WAT     H156183   1.637   2.226   7.223
18647WAT     H256184   1.792   2.274   7.209
18648WAT      O56185   4.747   4.648   9.583
18648WAT     H156186   4.829   4.662   9.527
18648WAT     H256187   4.670   4.696   9.541
18649WAT      O56188   2.992   5.846   6.053
18649WAT     H156189   3.051   5.865   6.132
18649WAT     H256190   3.049   5.821   5.975
18650WAT      O56191   1.745   0.054   2.383
18650WAT     H156192   1.819   0.059   2.315
18650WAT     H256193   1.721   0.147   2.411
18651WAT      O56194   7.468   8.974   2.512
18651WAT     H156195   7.396   8.910   2.487
18651WAT     H256196   7.549   8.957   2.456
18652WAT      O56197   8.007   6.050   2.239
18652WAT     H156198   7.942   6.089   2.305
18652WAT     H256199   8.079   6.001   2.289
18653WAT      O56200   2.530   6.666   8.718
18653WAT     H156201   2.592   6.622   8.653
18653WAT     H256202   2.564   6.757   8.740
18654WAT      O56203   7.262   8.318   6.850
18654WAT     H156204   7.179   8.265   6.835
18654WAT     H256205   7.253   8.371   6.934
18655WAT      O56206   4.020   6.808   5.538
18655WAT     H156207   3.940   6.859   5.570
18655WAT     H256208   4.091   6.812   5.608
18656WAT      O56209   4.306   1.296   5.752
18656WAT     H156210   4.217   1.317   5.793
18656WAT     H256211   4.308   1.331   5.658
18657WAT      O56212   1.588   7.179   0.675
18657WAT     H156213   1.561   7.240   0.601
18657WAT     H256214   1.522   7.104   0.682
18658WAT      O56215   7.347   9.090   9.404
18658WAT     H156216   7.257   9.053   9.382
18658WAT     H256217   7.337   9.180   9.447
18659WAT      O56218   4.032   0.843   0.015
18659WAT     H156219   4.066   0.750   0.027
18659WAT     H256220   4.023   0.888   0.104
18660WAT      O56221   7.990   2.694   6.752
18660WAT     H156222   8.083   2.704   6.786
18660WAT     H256223   7.984   2.613   6.693
18661WAT      O56224   1.927   2.380   8.680
18661WAT     H156225   1.986   2.300   8.692
18661WAT     H256226   1.956   2.453   8.742
18662WAT      O56227   0.338   2.564   1.911
18662WAT     H156228   0.354   2.517   1.824
18662WAT     H256229   0.266   2.517   1.962
18663WAT      O56230   2.414   0.892   0.869
18663WAT     H156231   2.383   0.987   0.872
18663WAT     H256232   2.422   0.857   0.962
18664WAT      O56233   5.893   3.603   7.366
18664WAT     H156234   5.915   3.601   7.463
18664WAT     H256235   5.797   3.580   7.353
18665WAT      O56236   4.502   6.281   8.873
18665WAT     H156237   4.578   6.249   8.931
18665WAT     H256238   4.531   6.283   8.778
18666WAT      O56239   0.691   8.206   5.322
18666WAT     H156240   0.648   8.117   5.303
18666WAT     H256241   0.790   8.198   5.309
18667WAT      O56242   4.732   3.622   4.373
18667WAT     H156243   4.653   3.627   4.312
18667WAT     H256244   4.708   3.663   4.461
18668WAT      O56245   8.407   1.565   2.566
18668WAT     H156246   8.412   1.515   2.480
18668WAT     H256247   8.473   1.527   2.631
18669WAT      O56248   5.145   8.306   0.796
18669WAT     H156249   5.244   8.290   0.793
18669WAT     H256250   5.101   8.255   0.723
18670WAT      O56251   5.236   3.931   5.984
18670WAT     H156252   5.213   3.936   5.887
18670WAT     H256253   5.194   4.008   6.032
18671WAT      O56254   4.849   3.760   3.802
18671WAT     H156255   4.788   3.729   3.875
18671WAT     H256256   4.795   3.805   3.731
18672WAT      O56257   6.980   7.591   0.629
18672WAT     H156258   7.039   7.512   0.647
18672WAT     H256259   6.974   7.647   0.712
18673WAT      O56260   6.791   2.872   7.822
18673WAT     H156261   6.703   2.894   7.865
18673WAT     H256262   6.792   2.776   7.796
18674WAT      O56263   3.332   0.927   6.771
18674WAT     H156264   3.354   0.882   6.684
18674WAT     H256265   3.372   0.875   6.846
18675WAT      O56266   7.319   7.835   4.399
18675WAT     H156267   7.234   7.820   4.348
18675WAT     H256268   7.299   7.876   4.488
18676WAT      O56269   9.103   0.097   8.436
18676WAT     H156270   9.083   0.010   8.480
18676WAT     H256271   9.068   0.096   8.342
18677WAT      O56272   4.685   1.143   5.421
18677WAT     H156273   4.686   1.175   5.515
18677WAT     H256274   4.591   1.144   5.387
18678WAT      O56275   5.679   9.442   3.156
18678WAT     H156276   5.586   9.472   3.177
18678WAT     H256277   5.705   9.475   3.066
18679WAT      O56278   5.752   9.015   0.953
18679WAT     H156279   5.749   9.109   0.986
18679WAT     H256280   5.792   9.013   0.861
18680WAT      O56281   8.109   0.833   3.640
18680WAT     H156282   8.083   0.789   3.554
18680WAT     H256283   8.121   0.762   3.711
18681WAT      O56284   1.229   0.838   2.037
18681WAT     H156285   1.298   0.846   1.965
18681WAT     H256286   1.158   0.907   2.024
18682WAT      O56287   4.742   7.233   6.869
18682WAT     H156288   4.805   7.304   6.838
18682WAT     H256289   4.751   7.152   6.811
18683WAT      O56290   4.374   0.355   4.259
18683WAT     H156291   4.318   0.323   4.182
18683WAT     H256292   4.443   0.285   4.281
18684WAT      O56293   9.219   7.968   0.318
18684WAT     H156294   9.308   8.006   0.343
18684WAT     H256295   9.181   7.919   0.396
18685WAT      O56296   8.086   0.416   3.837
18685WAT     H156297   8.126   0.485   3.898
18685WAT     H256298   8.132   0.419   3.748
18686WAT      O56299   0.591   5.676   4.330
18686WAT     H156300   0.655   5.751   4.344
18686WAT     H256301   0.571   5.633   4.419
18687WAT      O56302   4.539   4.785   6.142
18687WAT     H156303   4.619   4.729   6.119
18687WAT     H256304   4.558   4.881   6.121
18688WAT      O56305   5.313   1.054   3.477
18688WAT     H156306   5.225   1.076   3.518
18688WAT     H256307   5.326   1.109   3.394
18689WAT      O56308   3.624   6.480   3.508
18689WAT     H156309   3.708   6.436   3.541
18689WAT     H256310   3.582   6.532   3.582
18690WAT      O56311   8.727   5.509   2.462
18690WAT     H156312   8.718   5.421   2.415
18690WAT     H256313   8.824   5.529   2.476
18691WAT      O56314   3.625   3.263   9.163
18691WAT     H156315   3.630   3.339   9.099
18691WAT     H256316   3.576   3.291   9.245
18692WAT      O56317   3.576   7.261   6.665
18692WAT     H156318   3.592   7.168   6.633
18692WAT     H256319   3.664   7.307   6.677
18693WAT      O56320   4.659   1.058   3.364
18693WAT     H156321   4.645   1.153   3.334
18693WAT     H256322   4.750   1.049   3.404
18694WAT      O56323   7.528   9.731   1.777
18694WAT     H156324   7.613   9.776   1.803
18694WAT     H256325   7.540   9.688   1.687
18695WAT      O56326   3.561   5.368   1.566
18695WAT     H156327   3.521   5.305   1.499
18695WAT     H256328   3.614   5.315   1.633
18696WAT      O56329   9.089   6.176   6.729
18696WAT     H156330   9.082   6.201   6.826
18696WAT     H256331   9.165   6.227   6.688
18697WAT      O56332   4.029   2.703   6.075
18697WAT     H156333   4.005   2.788   6.122
18697WAT     H256334   4.077   2.643   6.139
18698WAT      O56335   2.088   7.960   0.607
18698WAT     H156336   2.160   7.935   0.672
18698WAT     H256337   2.122   8.032   0.546
18699WAT      O56338   3.820   4.484   7.297
18699WAT     H156339   3.735   4.432   7.287
18699WAT     H256340   3.897   4.421   7.307
18700WAT      O56341   0.335   5.632   9.466
18700WAT     H156342   0.325   5.566   9.391
18700WAT     H256343   0.246   5.649   9.507
18701WAT      O56344   2.483   0.376   2.203
18701WAT     H156345   2.577   0.385   2.170
18701WAT     H256346   2.420   0.393   2.127
18702WAT      O56347   6.380   4.306   3.266
18702WAT     H156348   6.298   4.363   3.262
18702WAT     H256349   6.356   4.215   3.299
18703WAT      O56350   3.947   5.506   9.475
18703WAT     H156351   3.909   5.465   9.393
18703WAT     H256352   3.961   5.436   9.545
18704WAT      O56353   3.215   1.474   0.776
18704WAT     H156354   3.145   1.468   0.848
18704WAT     H256355   3.170   1.470   0.687
18705WAT      O56356   5.388   8.239   5.355
18705WAT     H156357   5.413   8.153   5.400
18705WAT     H256358   5.329   8.293   5.415
18706WAT      O56359   7.458   8.089   9.265
18706WAT     H156360   7.437   7.992   9.258
18706WAT     H256361   7.451   8.118   9.361
18707WAT      O56362   3.723   4.633   3.715
18707WAT     H156363   3.654   4.564   3.738
18707WAT     H256364   3.686   4.725   3.732
18708WAT      O56365   7.769   1.262   8.504
18708WAT     H156366   7.787   1.246   8.601
18708WAT     H256367   7.735   1.355   8.491
18709WAT      O56368   5.774   8.567   3.023
18709WAT     H156369   5.769   8.475   2.983
18709WAT     H256370   5.750   8.635   2.954
18710WAT      O56371   7.770   4.251   9.248
18710WAT     H156372   7.812   4.161   9.236
18710WAT     H256373   7.702   4.247   9.322
18711WAT      O56374   3.189   4.574   9.390
18711WAT     H156375   3.089   4.571   9.379
18711WAT     H256376   3.211   4.569   9.487
18712WAT      O56377   0.619   9.247   5.545
18712WAT     H156378   0.633   9.192   5.463
18712WAT     H256379   0.543   9.310   5.530
18713WAT      O56380   4.869   6.280   1.088
18713WAT     H156381   4.856   6.184   1.064
18713WAT     H256382   4.952   6.290   1.143
18714WAT      O56383   2.053   6.494   1.171
18714WAT     H156384   2.037   6.444   1.256
18714WAT     H256385   2.047   6.431   1.093
18715WAT      O56386   1.039   3.488   2.224
18715WAT     H156387   0.992   3.400   2.226
18715WAT     H256388   0.971   3.562   2.228
18716WAT      O56389   9.434   0.424   2.340
18716WAT     H156390   9.531   0.423   2.367
18716WAT     H256391   9.398   0.516   2.352
18717WAT      O56392   0.703   7.109   5.404
18717WAT     H156393   0.706   7.010   5.417
18717WAT     H256394   0.726   7.130   5.309
18718WAT      O56395   1.870   3.216   7.941
18718WAT     H156396   1.874   3.190   7.844
18718WAT     H256397   1.780   3.193   7.978
18719WAT      O56398   7.602   6.016   9.251
18719WAT     H156399   7.507   6.016   9.220
18719WAT     H256400   7.648   5.934   9.216
18720WAT      O56401   5.382   5.239   6.981
18720WAT     H156402   5.406   5.282   6.894
18720WAT     H256403   5.446   5.270   7.052
18721WAT      O56404   8.276   6.132   4.648
18721WAT     H156405   8.317   6.211   4.601
18721WAT     H256406   8.218   6.082   4.584
18722WAT      O56407   0.983   4.844   3.097
18722WAT     H156408   0.891   4.809   3.117
18722WAT     H256409   1.051   4.774   3.119
18723WAT      O56410   0.999   3.933   0.129
18723WAT     H156411   1.032   3.893   0.214
18723WAT     H256412   1.037   3.882   0.052
18724WAT      O56413   5.372   0.692   0.856
18724WAT     H156414   5.292   0.652   0.813
18724WAT     H256415   5.350   0.718   0.950
18725WAT      O56416   4.372   4.932   8.517
18725WAT     H156417   4.336   5.021   8.547
18725WAT     H256418   4.296   4.868   8.507
18726WAT      O56419   5.937   5.913   2.675
18726WAT     H156420   5.935   5.910   2.775
18726WAT     H256421   5.994   5.838   2.641
18727WAT      O56422   7.321   5.584   8.925
18727WAT     H156423   7.282   5.626   9.008
18727WAT     H256424   7.264   5.606   8.846
18728WAT      O56425   1.735   6.566   6.230
18728WAT     H156426   1.723   6.509   6.312
18728WAT     H256427   1.832   6.578   6.211
18729WAT      O56428   7.088   3.625   3.565
18729WAT     H156429   7.078   3.666   3.474
18729WAT     H256430   7.072   3.527   3.559
18730WAT      O56431   2.263   1.289   4.513
18730WAT     H156432   2.292   1.198   4.544
18730WAT     H256433   2.261   1.291   4.413
18731WAT      O56434   2.246   7.761   0.845
18731WAT     H156435   2.294   7.706   0.912
18731WAT     H256436   2.280   7.855   0.848
18732WAT      O56437   8.352   7.823   3.910
18732WAT     H156438   8.281   7.764   3.871
18732WAT     H256439   8.346   7.914   3.868
18733WAT      O56440   3.524   6.562   7.422
18733WAT     H156441   3.556   6.473   7.455
18733WAT     H256442   3.558   6.578   7.330
18734WAT      O56443   4.762   6.708   1.843
18734WAT     H156444   4.787   6.682   1.936
18734WAT     H256445   4.666   6.734   1.840
18735WAT      O56446   1.902   5.976   5.576
18735WAT     H156447   1.972   5.943   5.514
18735WAT     H256448   1.945   6.011   5.659
18736WAT      O56449   6.212   3.670   0.080
18736WAT     H156450   6.179   3.721   0.159
18736WAT     H256451   6.230   3.575   0.107
18737WAT      O56452   8.091   6.818   4.493
18737WAT     H156453   8.151   6.783   4.421
18737WAT     H256454   8.040   6.742   4.534
18738WAT      O56455   6.801   8.391   8.722
18738WAT     H156456   6.825   8.488   8.723
18738WAT     H256457   6.702   8.381   8.727
18739WAT      O56458   3.039   8.981   9.457
18739WAT     H156459   3.111   9.024   9.403
18739WAT     H256460   3.065   8.887   9.478
18740WAT      O56461   3.530   4.359   7.311
18740WAT     H156462   3.494   4.452   7.310
18740WAT     H256463   3.485   4.307   7.384
18741WAT      O56464   0.908   3.474   9.162
18741WAT     H156465   0.909   3.375   9.148
18741WAT     H256466   0.981   3.516   9.108
18742WAT      O56467   5.984   1.522   6.053
18742WAT     H156468   5.982   1.438   5.998
18742WAT     H256469   5.891   1.550   6.074
18743WAT      O56470   7.713   3.528   7.197
18743WAT     H156471   7.726   3.467   7.275
18743WAT     H256472   7.786   3.597   7.196
18744WAT      O56473   8.668   1.511   7.519
18744WAT     H156474   8.715   1.590   7.559
18744WAT     H256475   8.725   1.429   7.531
18745WAT      O56476   7.940   4.629   8.592
18745WAT     H156477   7.963   4.532   8.593
18745WAT     H256478   7.997   4.676   8.525
18746WAT      O56479   5.244   3.747   5.326
18746WAT     H156480   5.304   3.824   5.301
18746WAT     H256481   5.220   3.754   5.423
18747WAT      O56482   0.542   6.590   9.614
18747WAT     H156483   0.601   6.656   9.567
18747WAT     H256484   0.565   6.498   9.583
18748WAT      O56485   6.830   9.174   2.076
18748WAT     H156486   6.782   9.153   1.990
18748WAT     H256487   6.813   9.101   2.142
18749WAT      O56488   3.271   6.517   4.007
18749WAT     H156489   3.327   6.589   3.966
18749WAT     H256490   3.182   6.555   4.032
18750WAT      O56491   3.338   7.472   0.494
18750WAT     H156492   3.404   7.546   0.484
18750WAT     H256493   3.324   7.454   0.591
18751WAT      O56494   3.576   3.937   2.800
18751WAT     H156495   3.520   3.966   2.723
18751WAT     H256496   3.668   3.914   2.767
18752WAT      O56497   3.654   7.796   4.655
18752WAT     H156498   3.675   7.711   4.703
18752WAT     H256499   3.560   7.792   4.620
18753WAT      O56500   5.381   1.582   3.264
18753WAT     H156501   5.312   1.608   3.331
18753WAT     H256502   5.435   1.505   3.298
18754WAT      O56503   8.835   9.459   4.107
18754WAT     H156504   8.834   9.391   4.033
18754WAT     H256505   8.788   9.541   4.076
18755WAT      O56506   1.330   6.079   2.980
18755WAT     H156507   1.424   6.057   3.006
18755WAT     H256508   1.313   6.046   2.887
18756WAT      O56509   3.337   1.200   9.516
18756WAT     H156510   3.249   1.176   9.557
18756WAT     H256511   3.381   1.118   9.481
18757WAT      O56512   2.266   6.629   9.785
18757WAT     H156513   2.181   6.632   9.732
18757WAT     H256514   2.338   6.588   9.728
18758WAT      O56515   8.139   1.626   9.792
18758WAT     H156516   8.140   1.543   9.736
18758WAT     H256517   8.150   1.706   9.733
18759WAT      O56518   3.079   3.065   6.498
18759WAT     H156519   3.150   3.108   6.554
18759WAT     H256520   3.060   2.974   6.534
18760WAT      O56521   8.944   7.586   1.954
18760WAT     H156522   8.891   7.562   1.872
18760WAT     H256523   8.994   7.505   1.985
18761WAT      O56524   2.815   2.257   9.714
18761WAT     H156525   2.733   2.250   9.657
18761WAT     H256526   2.806   2.197   9.793
18762WAT      O56527   7.925   8.345   5.308
18762WAT     H156528   7.844   8.382   5.262
18762WAT     H256529   7.992   8.418   5.321
18763WAT      O56530   0.121   4.974   8.565
18763WAT     H156531   0.031   5.006   8.593
18763WAT     H256532   0.113   4.890   8.512
18764WAT      O56533   0.088   8.148   9.098
18764WAT     H156534   0.072   8.238   9.057
18764WAT     H256535   0.147   8.157   9.178
18765WAT      O56536   0.672   1.967   1.535
18765WAT     H156537   0.589   1.937   1.581
18765WAT     H256538   0.648   2.024   1.456
18766WAT      O56539   3.773   5.508   2.209
18766WAT     H156540   3.812   5.545   2.125
18766WAT     H256541   3.680   5.475   2.191
18767WAT      O56542   0.646   8.850   9.481
18767WAT     H156543   0.643   8.753   9.504
18767WAT     H256544   0.586   8.900   9.543
18768WAT      O56545   9.342   0.402   2.016
18768WAT     H156546   9.407   0.476   2.033
18768WAT     H256547   9.381   0.315   2.042
18769WAT      O56548   6.389   4.301   7.152
18769WAT     H156549   6.458   4.233   7.176
18769WAT     H256550   6.355   4.345   7.235
18770WAT      O56551   8.388   7.056   6.685
18770WAT     H156552   8.481   7.044   6.651
18770WAT     H256553   8.350   7.142   6.650
18771WAT      O56554   6.419   2.793   8.280
18771WAT     H156555   6.518   2.805   8.271
18771WAT     H256556   6.390   2.820   8.372
18772WAT      O56557   6.614   1.046   2.745
18772WAT     H156558   6.709   1.030   2.769
18772WAT     H256559   6.608   1.082   2.651
18773WAT      O56560   2.245   4.125   5.616
18773WAT     H156561   2.315   4.070   5.570
18773WAT     H256562   2.245   4.103   5.713
18774WAT      O56563   7.174   3.467   5.970
18774WAT     H156564   7.166   3.472   6.070
18774WAT     H256565   7.167   3.559   5.931
18775WAT      O56566   8.247   4.217   8.167
18775WAT     H156567   8.149   4.196   8.157
18775WAT     H256568   8.298   4.133   8.184
18776WAT      O56569   6.310   6.156   1.266
18776WAT     H156570   6.384   6.120   1.322
18776WAT     H256571   6.223   6.114   1.294
18777WAT      O56572   7.506   7.079   5.108
18777WAT     H156573   7.594   7.054   5.068
18777WAT     H256574   7.432   7.039   5.052
18778WAT      O56575   2.364   1.639   7.951
18778WAT     H156576   2.346   1.734   7.925
18778WAT     H256577   2.286   1.602   8.002
18779WAT      O56578   3.129   1.113   6.910
18779WAT     H156579   3.205   1.166   6.949
18779WAT     H256580   3.164   1.028   6.872
18780WAT      O56581   0.363   2.914   2.408
18780WAT     H156582   0.390   2.855   2.484
18780WAT     H256583   0.405   3.004   2.419
18781WAT      O56584   7.626   8.538   0.897
18781WAT     H156585   7.704   8.555   0.836
18781WAT     H256586   7.629   8.602   0.973
18782WAT      O56587   3.100   8.481   3.781
18782WAT     H156588   3.016   8.441   3.743
18782WAT     H256589   3.146   8.535   3.710
18783WAT      O56590   1.306   0.492   1.013
18783WAT     H156591   1.323   0.536   1.101
18783WAT     H256592   1.353   0.543   0.941
18784WAT      O56593   3.070   1.432   2.783
18784WAT     H156594   3.062   1.524   2.743
18784WAT     H256595   3.088   1.440   2.881
18785WAT      O56596   4.015   3.990   8.521
18785WAT     H156597   3.991   3.897   8.548
18785WAT     H256598   3.999   4.053   8.597
18786WAT      O56599   7.058   3.161   7.782
18786WAT     H156600   7.027   3.073   7.747
18786WAT     H256601   7.008   3.184   7.865
18787WAT      O56602   2.538   8.302   5.310
18787WAT     H156603   2.546   8.360   5.392
18787WAT     H256604   2.495   8.215   5.335
18788WAT      O56605   2.477   1.004   4.071
18788WAT     H156606   2.390   1.049   4.092
18788WAT     H256607   2.532   0.995   4.154
18789WAT      O56608   3.515   9.488   2.954
18789WAT     H156609   3.603   9.457   2.918
18789WAT     H256610   3.525   9.511   3.051
18790WAT      O56611   3.825   6.719   8.867
18790WAT     H156612   3.906   6.662   8.883
18790WAT     H256613   3.850   6.815   8.877
18791WAT      O56614   6.153   7.617   6.127
18791WAT     H156615   6.205   7.701   6.142
18791WAT     H256616   6.060   7.628   6.163
18792WAT      O56617   0.675   9.741   8.252
18792WAT     H156618   0.672   9.814   8.183
18792WAT     H256619   0.725   9.773   8.332
18793WAT      O56620   7.632   4.808   0.947
18793WAT     H156621   7.620   4.723   0.896
18793WAT     H256622   7.561   4.874   0.921
18794WAT      O56623   5.329   9.670   9.129
18794WAT     H156624   5.403   9.683   9.062
18794WAT     H256625   5.313   9.756   9.177
18795WAT      O56626   8.079   0.570   1.028
18795WAT     H156627   8.174   0.550   1.052
18795WAT     H256628   8.049   0.510   0.954
18796WAT      O56629   8.970   0.111   2.264
18796WAT     H156630   9.020   0.038   2.309
18796WAT     H256631   9.027   0.193   2.260
18797WAT      O56632   9.518   6.539   2.558
18797WAT     H156633   9.488   6.624   2.603
18797WAT     H256634   9.570   6.484   2.623
18798WAT      O56635   6.488   7.918   9.297
18798WAT     H156636   6.514   7.897   9.203
18798WAT     H256637   6.548   7.870   9.360
18799WAT      O56638   3.514   0.246   3.319
18799WAT     H156639   3.535   0.328   3.266
18799WAT     H256640   3.564   0.168   3.282
18800WAT      O56641   0.786   4.785   8.146
18800WAT     H156642   0.752   4.761   8.237
18800WAT     H256643   0.735   4.864   8.111
18801WAT      O56644   0.995   2.951   4.092
18801WAT     H156645   0.935   2.904   4.028
18801WAT     H256646   0.960   2.937   4.185
18802WAT      O56647   4.651   0.495   3.030
18802WAT     H156648   4.615   0.585   3.007
18802WAT     H256649   4.605   0.461   3.112
18803WAT      O56650   3.171   9.788   5.080
18803WAT     H156651   3.266   9.769   5.055
18803WAT     H256652   3.116   9.706   5.064
18804WAT      O56653   8.102   8.430   8.446
18804WAT     H156654   8.013   8.414   8.405
18804WAT     H256655   8.123   8.528   8.442
18805WAT      O56656   0.589   6.170   1.500
18805WAT     H156657   0.602   6.262   1.537
18805WAT     H256658   0.493   6.145   1.507
18806WAT      O56659   1.084   9.143   0.761
18806WAT     H156660   1.172   9.118   0.720
18806WAT     H256661   1.100   9.187   0.850
18807WAT      O56662   9.002   0.804   0.911
18807WAT     H156663   8.933   0.772   0.845
18807WAT     H256664   9.087   0.826   0.862
18808WAT      O56665   3.590   3.547   7.357
18808WAT     H156666   3.594   3.570   7.260
18808WAT     H256667   3.561   3.627   7.409
18809WAT      O56668   9.808   9.623   9.833
18809WAT     H156669   9.768   9.673   9.757
18809WAT     H256670   9.765   9.651   9.919
18810WAT      O56671   9.223   1.641   2.263
18810WAT     H156672   9.161   1.718   2.275
18810WAT     H256673   9.249   1.605   2.353
18811WAT      O56674   0.792   6.057   8.282
18811WAT     H156675   0.773   6.051   8.380
18811WAT     H256676   0.848   5.979   8.254
18812WAT      O56677   2.987   3.640   0.764
18812WAT     H156678   3.044   3.721   0.772
18812WAT     H256679   2.892   3.668   0.746
18813WAT      O56680   8.630   4.871   9.814
18813WAT     H156681   8.674   4.960   9.804
18813WAT     H256682   8.628   4.846   9.911
18814WAT      O56683   8.329   1.316   1.271
18814WAT     H156684   8.232   1.299   1.256
18814WAT     H256685   8.344   1.414   1.285
18815WAT      O56686   4.353   7.921   7.991
18815WAT     H156687   4.253   7.920   8.004
18815WAT     H256688   4.373   7.934   7.894
18816WAT      O56689   0.846   6.617   6.204
18816WAT     H156690   0.884   6.701   6.166
18816WAT     H256691   0.837   6.627   6.303
18817WAT      O56692   3.498   6.263   9.395
18817WAT     H156693   3.575   6.207   9.365
18817WAT     H256694   3.432   6.205   9.444
18818WAT      O56695   6.037   6.281   3.385
18818WAT     H156696   6.098   6.319   3.315
18818WAT     H256697   5.943   6.304   3.362
18819WAT      O56698   8.939   3.688   0.053
18819WAT     H156699   8.995   3.692   0.136
18819WAT     H256700   8.998   3.675  -0.027
18820WAT      O56701   2.779   1.445   0.373
18820WAT     H156702   2.731   1.516   0.424
18820WAT     H256703   2.806   1.371   0.434
18821WAT      O56704   4.519   9.744   5.009
18821WAT     H156705   4.613   9.718   5.033
18821WAT     H256706   4.509   9.844   5.017
18822WAT      O56707   2.942   5.937   4.093
18822WAT     H156708   3.017   5.982   4.046
18822WAT     H256709   2.896   5.873   4.031
18823WAT      O56710   9.722   7.612   7.831
18823WAT     H156711   9.755   7.690   7.779
18823WAT     H256712   9.749   7.622   7.927
18824WAT      O56713   9.452   7.761   9.216
18824WAT     H156714   9.483   7.683   9.161
18824WAT     H256715   9.357   7.747   9.245
18825WAT      O56716   6.425   8.794   6.503
18825WAT     H156717   6.471   8.706   6.499
18825WAT     H256718   6.397   8.812   6.598
18826WAT      O56719   7.787   2.426   2.776
18826WAT     H156720   7.793   2.465   2.868
18826WAT     H256721   7.739   2.338   2.781
18827WAT      O56722   1.458   9.625   1.695
18827WAT     H156723   1.448   9.579   1.784
18827WAT     H256724   1.554   9.620   1.667
18828WAT      O56725   0.205   5.314   0.654
18828WAT     H156726   0.126   5.345   0.601
18828WAT     H256727   0.176   5.244   0.719
18829WAT      O56728   4.113   1.961   8.504
18829WAT     H156729   4.206   1.996   8.511
18829WAT     H256730   4.083   1.964   8.408
18830WAT      O56731   2.643   2.930   3.268
18830WAT     H156732   2.574   2.858   3.257
18830WAT     H256733   2.721   2.911   3.208
18831WAT      O56734   7.105   3.984   7.057
18831WAT     H156735   7.018   3.950   7.094
18831WAT     H256736   7.177   3.916   7.074
18832WAT      O56737   6.386   6.358   9.696
18832WAT     H156738   6.412   6.436   9.753
18832WAT     H256739   6.383   6.275   9.752
18833WAT      O56740   1.186   5.650   1.480
18833WAT     H156741   1.137   5.624   1.563
18833WAT     H256742   1.155   5.741   1.451
18834WAT      O56743   9.099   5.914   4.162
18834WAT     H156744   9.089   5.815   4.176
18834WAT     H256745   9.183   5.932   4.110
18835WAT      O56746   5.825   9.108   1.452
18835WAT     H156747   5.859   9.077   1.363
18835WAT     H256748   5.815   9.030   1.514
18836WAT      O56749   1.733   7.618   1.455
18836WAT     H156750   1.689   7.700   1.417
18836WAT     H256751   1.700   7.603   1.548
18837WAT      O56752   1.543   1.795   2.180
18837WAT     H156753   1.445   1.781   2.188
18837WAT     H256754   1.565   1.891   2.198
18838WAT      O56755   6.978   6.798   8.913
18838WAT     H156756   6.942   6.853   8.838
18838WAT     H256757   6.902   6.757   8.963
18839WAT      O56758   9.110   0.228   1.535
18839WAT     H156759   9.113   0.320   1.496
18839WAT     H256760   9.105   0.234   1.634
18840WAT      O56761   3.893   8.535   3.517
18840WAT     H156762   3.874   8.532   3.615
18840WAT     H256763   3.939   8.451   3.490
18841WAT      O56764   3.058   5.999   8.274
18841WAT     H156765   3.005   6.053   8.340
18841WAT     H256766   3.097   6.060   8.205
18842WAT      O56767   5.199   2.670   2.996
18842WAT     H156768   5.132   2.598   2.980
18842WAT     H256769   5.176   2.719   3.081
18843WAT      O56770   8.492   9.302   9.794
18843WAT     H156771   8.555   9.373   9.763
18843WAT     H256772   8.424   9.342   9.856
18844WAT      O56773   4.301   6.279   3.329
18844WAT     H156774   4.333   6.250   3.419
18844WAT     H256775   4.364   6.346   3.291
18845WAT      O56776   1.882   0.490   1.680
18845WAT     H156777   1.891   0.424   1.605
18845WAT     H256778   1.945   0.466   1.754
18846WAT      O56779   7.806   8.910   2.554
18846WAT     H156780   7.782   9.004   2.577
18846WAT     H256781   7.738   8.848   2.594
18847WAT      O56782   9.292   4.339   4.289
18847WAT     H156783   9.351   4.384   4.356
18847WAT     H256784   9.206   4.313   4.333
18848WAT      O56785   7.619   6.887   1.715
18848WAT     H156786   7.667   6.901   1.802
18848WAT     H256787   7.622   6.791   1.690
18849WAT      O56788   9.534   6.551   2.069
18849WAT     H156789   9.462   6.620   2.079
18849WAT     H256790   9.567   6.524   2.160
18850WAT      O56791   9.225   1.841   1.314
18850WAT     H156792   9.185   1.836   1.405
18850WAT     H256793   9.318   1.803   1.317
18851WAT      O56794   7.177   8.417   7.140
18851WAT     H156795   7.244   8.484   7.171
18851WAT     H256796   7.096   8.465   7.105
18852WAT      O56797   0.253   8.169   0.608
18852WAT     H156798   0.169   8.147   0.559
18852WAT     H256799   0.330   8.165   0.545
18853WAT      O56800   7.298   8.801   2.770
18853WAT     H156801   7.282   8.891   2.729
18853WAT     H256802   7.365   8.809   2.843
18854WAT      O56803   9.297   5.999   2.537
18854WAT     H156804   9.351   6.073   2.575
18854WAT     H256805   9.206   6.032   2.512
18855WAT      O56806   0.076   7.315   6.874
18855WAT     H156807   0.065   7.383   6.802
18855WAT     H256808   0.161   7.332   6.924
18856WAT      O56809   0.691   7.132   7.986
18856WAT     H156810   0.746   7.099   7.910
18856WAT     H256811   0.724   7.091   8.071
18857WAT      O56812   4.967   7.800   8.090
18857WAT     H156813   4.903   7.733   8.052
18857WAT     H256814   5.004   7.766   8.176
18858WAT      O56815   1.876   0.799   5.219
18858WAT     H156816   1.803   0.794   5.287
18858WAT     H256817   1.907   0.893   5.210
18859WAT      O56818   9.272   3.306   3.359
18859WAT     H156819   9.186   3.334   3.315
18859WAT     H256820   9.272   3.337   3.454
18860WAT      O56821   7.114   4.659   0.868
18860WAT     H156822   7.065   4.745   0.876
18860WAT     H256823   7.130   4.621   0.960
18861WAT      O56824   5.408   9.309   8.902
18861WAT     H156825   5.461   9.251   8.963
18861WAT     H256826   5.466   9.384   8.868
18862WAT      O56827   6.613   1.303   5.902
18862WAT     H156828   6.555   1.382   5.882
18862WAT     H256829   6.575   1.222   5.859
18863WAT      O56830   1.770   6.039   4.734
18863WAT     H156831   1.786   6.135   4.710
18863WAT     H256832   1.765   6.029   4.833
18864WAT      O56833   4.697   1.566   2.320
18864WAT     H156834   4.672   1.652   2.275
18864WAT     H256835   4.614   1.519   2.351
18865WAT      O56836   3.705   1.949   2.555
18865WAT     H156837   3.686   1.915   2.647
18865WAT     H256838   3.631   2.010   2.527
18866WAT      O56839   0.958   1.499   0.709
18866WAT     H156840   1.001   1.448   0.635
18866WAT     H256841   0.864   1.468   0.721
18867WAT      O56842   5.920   8.818   2.725
18867WAT     H156843   5.905   8.895   2.663
18867WAT     H256844   5.843   8.755   2.720
18868WAT      O56845   0.873   1.788   8.909
18868WAT     H156846   0.836   1.712   8.962
18868WAT     H256847   0.831   1.789   8.818
18869WAT      O56848   0.438   0.489   9.237
18869WAT     H156849   0.358   0.496   9.178
18869WAT     H256850   0.505   0.559   9.211
18870WAT      O56851   3.661   5.484   5.265
18870WAT     H156852   3.660   5.560   5.201
18870WAT     H256853   3.755   5.450   5.275
18871WAT      O56854   3.439   0.048   5.910
18871WAT     H156855   3.431  -0.052   5.913
18871WAT     H256856   3.522   0.077   5.956
18872WAT      O56857   9.648   2.089   3.457
18872WAT     H156858   9.668   2.001   3.500
18872WAT     H256859   9.562   2.124   3.493
18873WAT      O56860   1.782   6.664   2.994
18873WAT     H156861   1.775   6.588   2.929
18873WAT     H256862   1.746   6.635   3.083
18874WAT      O56863   0.860   0.993   8.164
18874WAT     H156864   0.781   0.991   8.226
18874WAT     H256865   0.942   1.018   8.215
18875WAT      O56866   3.683   3.196   7.194
18875WAT     H156867   3.691   3.213   7.292
18875WAT     H256868   3.591   3.222   7.163
18876WAT      O56869   1.965   9.814   9.654
18876WAT     H156870   1.922   9.725   9.666
18876WAT     H256871   1.918   9.882   9.710
18877WAT      O56872   7.241   0.205   9.411
18877WAT     H156873   7.236   0.134   9.481
18877WAT     H256874   7.292   0.170   9.332
18878WAT      O56875   3.321   4.409   8.601
18878WAT     H156876   3.335   4.447   8.692
18878WAT     H256877   3.297   4.483   8.538
18879WAT      O56878   3.633   7.904   6.619
18879WAT     H156879   3.647   8.001   6.604
18879WAT     H256880   3.721   7.859   6.632
18880WAT      O56881   5.613   0.062   1.554
18880WAT     H156882   5.585   0.143   1.503
18880WAT     H256883   5.575   0.066   1.646
18881WAT      O56884   8.151   4.668   0.625
18881WAT     H156885   8.193   4.594   0.573
18881WAT     H256886   8.075   4.707   0.572
18882WAT      O56887   8.107   0.233   7.491
18882WAT     H156888   8.071   0.322   7.461
18882WAT     H256889   8.105   0.169   7.415
18883WAT      O56890   5.075   8.099   9.426
18883WAT     H156891   4.990   8.141   9.394
18883WAT     H256892   5.110   8.038   9.354
18884WAT      O56893   5.724   3.225   4.664
18884WAT     H156894   5.657   3.152   4.682
18884WAT     H256895   5.740   3.231   4.566
18885WAT      O56896   0.354   6.233   2.403
18885WAT     H156897   0.425   6.273   2.461
18885WAT     H256898   0.273   6.292   2.405
18886WAT      O56899   7.180   5.628   5.321
18886WAT     H156900   7.189   5.549   5.261
18886WAT     H256901   7.241   5.617   5.399
18887WAT      O56902   3.446   7.341   3.497
18887WAT     H156903   3.456   7.278   3.420
18887WAT     H256904   3.423   7.290   3.580
18888WAT      O56905   1.110   4.452   8.848
18888WAT     H156906   1.189   4.413   8.801
18888WAT     H256907   1.131   4.545   8.876
18889WAT      O56908   6.746   4.718   2.271
18889WAT     H156909   6.662   4.665   2.282
18889WAT     H256910   6.748   4.791   2.339
18890WAT      O56911   9.041   8.123   3.489
18890WAT     H156912   9.048   8.023   3.485
18890WAT     H256913   9.123   8.164   3.450
18891WAT      O56914   1.295   6.445   9.362
18891WAT     H156915   1.343   6.441   9.450
18891WAT     H256916   1.201   6.413   9.375
18892WAT      O56917   8.690   0.997   1.652
18892WAT     H156918   8.610   1.031   1.701
18892WAT     H256919   8.703   0.900   1.671
18893WAT      O56920   8.225   2.857   3.692
18893WAT     H156921   8.297   2.789   3.701
18893WAT     H256922   8.243   2.933   3.755
18894WAT      O56923   6.968   2.994   4.793
18894WAT     H156924   7.003   2.902   4.808
18894WAT     H256925   6.915   3.023   4.873
18895WAT      O56926   1.648   9.015   2.859
18895WAT     H156927   1.651   8.920   2.829
18895WAT     H256928   1.605   9.071   2.789
18896WAT      O56929   3.673   7.129   1.335
18896WAT     H156930   3.631   7.201   1.389
18896WAT     H256931   3.730   7.072   1.395
18897WAT      O56932   8.471   4.337   8.349
18897WAT     H156933   8.448   4.265   8.284
18897WAT     H256934   8.430   4.314   8.438
18898WAT      O56935   3.633   6.126   7.703
18898WAT     H156936   3.543   6.116   7.746
18898WAT     H256937   3.703   6.087   7.763
18899WAT      O56938   8.962   3.370   6.825
18899WAT     H156939   9.052   3.349   6.863
18899WAT     H256940   8.943   3.311   6.747
18900WAT      O56941   1.572   1.444   7.393
18900WAT     H156942   1.492   1.403   7.438
18900WAT     H256943   1.552   1.540   7.371
18901WAT      O56944   1.190   9.171   0.483
18901WAT     H156945   1.159   9.255   0.527
18901WAT     H256946   1.255   9.124   0.542
18902WAT      O56947   5.306   4.288   8.911
18902WAT     H156948   5.215   4.299   8.872
18902WAT     H256949   5.374   4.293   8.838
18903WAT      O56950   1.617   0.711   8.918
18903WAT     H156951   1.586   0.734   9.011
18903WAT     H256952   1.693   0.646   8.924
18904WAT      O56953   5.430   3.018   8.239
18904WAT     H156954   5.475   2.932   8.215
18904WAT     H256955   5.357   3.000   8.305
18905WAT      O56956   8.918   7.354   2.612
18905WAT     H156957   8.991   7.287   2.624
18905WAT     H256958   8.838   7.309   2.572
18906WAT      O56959   3.279   3.854   9.474
18906WAT     H156960   3.320   3.769   9.505
18906WAT     H256961   3.182   3.839   9.454
18907WAT      O56962   8.347   6.688   6.195
18907WAT     H156963   8.353   6.596   6.157
18907WAT     H256964   8.311   6.751   6.126
18908WAT      O56965   7.675   6.939   8.481
18908WAT     H156966   7.765   6.978   8.462
18908WAT     H256967   7.606   7.012   8.481
18909WAT      O56968   4.306   4.805   8.895
18909WAT     H156969   4.295   4.718   8.944
18909WAT     H256970   4.296   4.881   8.960
18910WAT      O56971   8.800   9.749   7.014
18910WAT     H156972   8.855   9.703   7.084
18910WAT     H256973   8.841   9.734   6.925
18911WAT      O56974   7.383   6.798   0.118
18911WAT     H156975   7.323   6.724   0.147
18911WAT     H256976   7.459   6.807   0.184
18912WAT      O56977   3.892   8.501   5.832
18912WAT     H156978   3.857   8.415   5.869
18912WAT     H256979   3.974   8.483   5.778
18913WAT      O56980   2.024   5.357   4.229
18913WAT     H156981   2.036   5.404   4.141
18913WAT     H256982   2.041   5.421   4.303
18914WAT      O56983   2.286   1.966   9.549
18914WAT     H156984   2.235   1.896   9.499
18914WAT     H256985   2.274   1.952   9.647
18915WAT      O56986   8.352   3.482   1.646
18915WAT     H156987   8.438   3.484   1.597
18915WAT     H256988   8.276   3.472   1.581
18916WAT      O56989   4.635   4.693   7.541
18916WAT     H156990   4.536   4.689   7.553
18916WAT     H256991   4.656   4.758   7.467
18917WAT      O56992   2.938   5.143   1.542
18917WAT     H156993   2.907   5.055   1.579
18917WAT     H256994   2.871   5.214   1.565
18918WAT      O56995   1.956   4.330   8.002
18918WAT     H156996   1.999   4.393   7.938
18918WAT     H256997   1.927   4.381   8.084
18919WAT      O56998   0.971   7.852   0.371
18919WAT     H156999   0.943   7.786   0.441
18919WAT     H257000   0.901   7.857   0.300
18920WAT      O57001   4.175   5.085   1.069
18920WAT     H157002   4.170   5.132   1.158
18920WAT     H257003   4.086   5.044   1.048
18921WAT      O57004   1.322   8.730   7.584
18921WAT     H157005   1.231   8.758   7.555
18921WAT     H257006   1.314   8.663   7.658
18922WAT      O57007   8.647   6.023   4.277
18922WAT     H157008   8.558   6.046   4.237
18922WAT     H257009   8.655   5.923   4.285
18923WAT      O57010   2.899   4.285   5.931
18923WAT     H157011   2.976   4.227   5.958
18923WAT     H257012   2.920   4.331   5.845
18924WAT      O57013   1.174   1.487   5.046
18924WAT     H157014   1.142   1.477   4.952
18924WAT     H257015   1.247   1.556   5.049
18925WAT      O57016   2.614   5.717   2.421
18925WAT     H157017   2.628   5.627   2.462
18925WAT     H257018   2.601   5.785   2.493
18926WAT      O57019   0.236   7.725   8.018
18926WAT     H157020   0.153   7.774   7.992
18926WAT     H257021   0.278   7.770   8.097
18927WAT      O57022   5.257   3.805   0.889
18927WAT     H157023   5.293   3.886   0.842
18927WAT     H257024   5.191   3.833   0.958
18928WAT      O57025   9.070   4.380   0.513
18928WAT     H157026   9.080   4.463   0.459
18928WAT     H257027   8.987   4.332   0.485
18929WAT      O57028   4.548   6.559   4.685
18929WAT     H157029   4.549   6.557   4.585
18929WAT     H257030   4.456   6.540   4.719
18930WAT      O57031   8.849   5.151   9.155
18930WAT     H157032   8.782   5.085   9.122
18930WAT     H257033   8.828   5.241   9.117
18931WAT      O57034   7.025   9.126   7.827
18931WAT     H157035   7.124   9.138   7.820
18931WAT     H257036   6.992   9.174   7.909
18932WAT      O57037   7.079   9.103   1.425
18932WAT     H157038   7.093   9.017   1.476
18932WAT     H257039   7.002   9.092   1.362
18933WAT      O57040   5.207   6.877   8.102
18933WAT     H157041   5.137   6.920   8.159
18933WAT     H257042   5.163   6.834   8.023
18934WAT      O57043   7.177   8.118   3.511
18934WAT     H157044   7.239   8.106   3.434
18934WAT     H257045   7.122   8.035   3.523
18935WAT      O57046   0.958   0.219   9.606
18935WAT     H157047   0.938   0.317   9.600
18935WAT     H257048   1.025   0.204   9.679
18936WAT      O57049   7.132   0.521   3.934
18936WAT     H157050   7.069   0.591   3.899
18936WAT     H257051   7.179   0.556   4.014
18937WAT      O57052   7.103   6.994   0.445
18937WAT     H157053   7.068   7.060   0.511
18937WAT     H257054   7.110   7.037   0.355
18938WAT      O57055   0.445   1.360   9.835
18938WAT     H157056   0.516   1.411   9.885
18938WAT     H257057   0.359   1.368   9.884
18939WAT      O57058   2.979   3.731   2.314
18939WAT     H157059   2.971   3.665   2.239
18939WAT     H257060   3.020   3.815   2.280
18940WAT      O57061   3.750   2.593   6.531
18940WAT     H157062   3.726   2.562   6.439
18940WAT     H257063   3.810   2.672   6.525
18941WAT      O57064   4.013   4.234   7.080
18941WAT     H157065   3.941   4.234   7.011
18941WAT     H257066   4.099   4.204   7.039
18942WAT      O57067   4.594   9.727   5.341
18942WAT     H157068   4.660   9.714   5.415
18942WAT     H257069   4.642   9.760   5.260
18943WAT      O57070   4.576   1.835   5.638
18943WAT     H157071   4.624   1.763   5.588
18943WAT     H257072   4.543   1.798   5.726
18944WAT      O57073   0.712   0.190   5.603
18944WAT     H157074   0.787   0.157   5.546
18944WAT     H257075   0.627   0.189   5.550
18945WAT      O57076   7.318   6.869   2.785
18945WAT     H157077   7.288   6.802   2.853
18945WAT     H257078   7.377   6.937   2.829
18946WAT      O57079   5.367   5.451   6.343
18946WAT     H157080   5.378   5.382   6.272
18946WAT     H257081   5.284   5.504   6.325
18947WAT      O57082   8.319   6.212   5.872
18947WAT     H157083   8.285   6.141   5.811
18947WAT     H257084   8.329   6.298   5.821
18948WAT      O57085   3.113   8.791   5.756
18948WAT     H157086   3.186   8.735   5.717
18948WAT     H257087   3.152   8.854   5.824
18949WAT      O57088   3.563   8.283   9.576
18949WAT     H157089   3.487   8.218   9.582
18949WAT     H257090   3.638   8.241   9.526
18950WAT      O57091   4.723   0.281   4.510
18950WAT     H157092   4.715   0.376   4.539
18950WAT     H257093   4.818   0.262   4.485
18951WAT      O57094   4.689   9.444   0.396
18951WAT     H157095   4.700   9.492   0.309
18951WAT     H257096   4.593   9.449   0.424
18952WAT      O57097   0.236   3.983   1.035
18952WAT     H157098   0.298   3.905   1.047
18952WAT     H257099   0.186   3.973   0.949
18953WAT      O57100   4.467   2.761   6.708
18953WAT     H157101   4.409   2.720   6.638
18953WAT     H257102   4.556   2.783   6.669
18954WAT      O57103   7.428   0.778   4.434
18954WAT     H157104   7.398   0.859   4.485
18954WAT     H257105   7.428   0.699   4.495
18955WAT      O57106   3.580   8.207   8.125
18955WAT     H157107   3.599   8.203   8.027
18955WAT     H257108   3.489   8.169   8.143
18956WAT      O57109   1.632   7.690   2.590
18956WAT     H157110   1.600   7.785   2.588
18956WAT     H257111   1.635   7.653   2.497
18957WAT      O57112   0.723   6.341   9.486
18957WAT     H157113   0.732   6.277   9.410
18957WAT     H257114   0.754   6.432   9.457
18958WAT      O57115   8.913   6.181   1.933
18958WAT     H157116   9.001   6.225   1.912
18958WAT     H257117   8.840   6.226   1.882
18959WAT      O57118   4.064   3.505   7.072
18959WAT     H157119   3.979   3.476   7.028
18959WAT     H257120   4.107   3.425   7.115
18960WAT      O57121   5.184   9.471   9.668
18960WAT     H157122   5.179   9.476   9.768
18960WAT     H257123   5.098   9.437   9.632
18961WAT      O57124   2.813   0.209   3.826
18961WAT     H157125   2.773   0.237   3.914
18961WAT     H257126   2.765   0.129   3.791
18962WAT      O57127   1.604   3.661   5.691
18962WAT     H157128   1.673   3.594   5.715
18962WAT     H257129   1.548   3.682   5.771
18963WAT      O57130   8.832   7.011   1.617
18963WAT     H157131   8.775   7.000   1.535
18963WAT     H257132   8.842   7.108   1.638
18964WAT      O57133   1.876   7.906   4.883
18964WAT     H157134   1.948   7.970   4.907
18964WAT     H257135   1.815   7.894   4.962
18965WAT      O57136   4.164   7.620   7.551
18965WAT     H157137   4.199   7.594   7.641
18965WAT     H257138   4.194   7.552   7.484
18966WAT      O57139   1.460   2.110   5.234
18966WAT     H157140   1.493   2.201   5.208
18966WAT     H257141   1.432   2.110   5.329
18967WAT      O57142   4.026   4.805   7.863
18967WAT     H157143   3.940   4.759   7.884
18967WAT     H257144   4.023   4.839   7.768
18968WAT      O57145   0.831   8.182   2.954
18968WAT     H157146   0.858   8.112   2.888
18968WAT     H257147   0.732   8.180   2.966
18969WAT      O57148   4.821   9.032   3.654
18969WAT     H157149   4.735   9.031   3.601
18969WAT     H257150   4.852   9.127   3.664
18970WAT      O57151   6.916   7.763   1.772
18970WAT     H157152   7.015   7.778   1.777
18970WAT     H257153   6.871   7.848   1.743
18971WAT      O57154   9.061   1.846   2.708
18971WAT     H157155   9.005   1.803   2.638
18971WAT     H257156   9.017   1.837   2.797
18972WAT      O57157   0.475   5.076   4.791
18972WAT     H157158   0.466   5.032   4.702
18972WAT     H257159   0.541   5.024   4.847
18973WAT      O57160   2.472   4.152   7.221
18973WAT     H157161   2.409   4.229   7.234
18973WAT     H257162   2.428   4.068   7.251
18974WAT      O57163   2.214   4.719   7.585
18974WAT     H157164   2.254   4.811   7.582
18974WAT     H257165   2.247   4.671   7.667
18975WAT      O57166   6.128   0.924   1.350
18975WAT     H157167   6.180   0.924   1.435
18975WAT     H257168   6.139   0.835   1.304
18976WAT      O57169   0.109   8.188   8.396
18976WAT     H157170   0.089   8.127   8.320
18976WAT     H257171   0.036   8.256   8.404
18977WAT      O57172   4.172   6.107   4.228
18977WAT     H157173   4.205   6.098   4.322
18977WAT     H257174   4.162   6.204   4.206
18978WAT      O57175   1.958   1.247   8.249
18978WAT     H157176   2.047   1.289   8.233
18978WAT     H257177   1.943   1.174   8.183
18979WAT      O57178   8.699   1.982   6.096
18979WAT     H157179   8.752   1.974   6.181
18979WAT     H257180   8.610   1.939   6.108
18980WAT      O57181   6.192   1.439   3.624
18980WAT     H157182   6.225   1.465   3.715
18980WAT     H257183   6.105   1.485   3.606
18981WAT      O57184   3.802   6.874   9.182
18981WAT     H157185   3.804   6.949   9.249
18981WAT     H257186   3.750   6.798   9.220
18982WAT      O57187   5.969   8.774   3.855
18982WAT     H157188   5.979   8.678   3.827
18982WAT     H257189   5.947   8.778   3.952
18983WAT      O57190   8.927   5.271   8.143
18983WAT     H157191   8.996   5.291   8.212
18983WAT     H257192   8.942   5.329   8.063
18984WAT      O57193   9.698   7.907   7.736
18984WAT     H157194   9.695   7.924   7.638
18984WAT     H257195   9.664   7.987   7.785
18985WAT      O57196   7.477   4.805   2.087
18985WAT     H157197   7.529   4.723   2.111
18985WAT     H257198   7.540   4.881   2.069
18986WAT      O57199   7.965   3.694   3.217
18986WAT     H157200   7.921   3.606   3.197
18986WAT     H257201   8.061   3.677   3.241
18987WAT      O57202   7.338   1.267   2.903
18987WAT     H157203   7.245   1.304   2.900
18987WAT     H257204   7.387   1.309   2.979
18988WAT      O57205   8.617   2.736   5.900
18988WAT     H157206   8.530   2.741   5.949
18988WAT     H257207   8.661   2.648   5.918
18989WAT      O57208   0.996   6.128   9.117
18989WAT     H157209   0.917   6.149   9.174
18989WAT     H257210   1.069   6.089   9.174
18990WAT      O57211   8.381   9.185   3.713
18990WAT     H157212   8.329   9.148   3.636
18990WAT     H257213   8.478   9.191   3.689
18991WAT      O57214   1.680   4.272   0.507
18991WAT     H157215   1.763   4.217   0.500
18991WAT     H257216   1.600   4.212   0.511
18992WAT      O57217   5.409   7.531   0.681
18992WAT     H157218   5.313   7.507   0.698
18992WAT     H257219   5.468   7.455   0.708
18993WAT      O57220   5.999   1.165   9.861
18993WAT     H157221   6.032   1.198   9.772
18993WAT     H257222   5.946   1.081   9.847
18994WAT      O57223   3.189   0.646   1.520
18994WAT     H157224   3.150   0.555   1.536
18994WAT     H257225   3.125   0.716   1.550
18995WAT      O57226   5.614   7.477   1.465
18995WAT     H157227   5.695   7.472   1.523
18995WAT     H257228   5.540   7.423   1.506
18996WAT      O57229   2.729   9.511   1.195
18996WAT     H157230   2.683   9.502   1.107
18996WAT     H257231   2.663   9.540   1.264
18997WAT      O57232   5.513   6.468   4.882
18997WAT     H157233   5.488   6.433   4.972
18997WAT     H257234   5.603   6.511   4.886
18998WAT      O57235   5.132   2.251   9.299
18998WAT     H157236   5.042   2.273   9.338
18998WAT     H257237   5.125   2.167   9.246
18999WAT      O57238   3.460   3.236   1.383
18999WAT     H157239   3.554   3.212   1.362
18999WAT     H257240   3.428   3.184   1.462
19000WAT      O57241   7.892   6.156   4.107
19000WAT     H157242   7.908   6.094   4.031
19000WAT     H257243   7.808   6.207   4.092
19001WAT      O57244   2.511   3.000   7.210
19001WAT     H157245   2.440   3.042   7.266
19001WAT     H257246   2.474   2.921   7.161
19002WAT      O57247   8.216   8.676   2.096
19002WAT     H157248   8.170   8.738   2.160
19002WAT     H257249   8.154   8.655   2.020
19003WAT      O57250   1.749   0.936   3.235
19003WAT     H157251   1.801   1.020   3.219
19003WAT     H257252   1.802   0.876   3.295
19004WAT      O57253   3.348   4.095   8.684
19004WAT     H157254   3.297   4.132   8.606
19004WAT     H257255   3.288   4.091   8.764
19005WAT      O57256   2.713   0.473   0.701
19005WAT     H157257   2.633   0.430   0.659
19005WAT     H257258   2.705   0.572   0.693
19006WAT      O57259   9.530   6.241   3.328
19006WAT     H157260   9.604   6.182   3.360
19006WAT     H257261   9.442   6.199   3.349
19007WAT      O57262   8.080   5.358   2.075
19007WAT     H157263   8.158   5.402   2.031
19007WAT     H257264   7.995   5.396   2.038
19008WAT      O57265   4.546   0.686   9.291
19008WAT     H157266   4.527   0.780   9.319
19008WAT     H257267   4.472   0.626   9.320
19009WAT      O57268   4.740   9.130   4.997
19009WAT     H157269   4.705   9.083   5.078
19009WAT     H257270   4.727   9.228   5.007
19010WAT      O57271   7.457   4.398   3.471
19010WAT     H157272   7.469   4.429   3.565
19010WAT     H257273   7.480   4.473   3.408
19011WAT      O57274   6.942   6.782   0.589
19011WAT     H157275   6.870   6.724   0.551
19011WAT     H257276   6.964   6.855   0.525
19012WAT      O57277   3.362   0.225   2.605
19012WAT     H157278   3.346   0.305   2.548
19012WAT     H257279   3.376   0.145   2.546
19013WAT      O57280   0.849   1.032   1.551
19013WAT     H157281   0.803   0.945   1.569
19013WAT     H257282   0.800   1.081   1.479
19014WAT      O57283   3.518   5.155   9.157
19014WAT     H157284   3.520   5.055   9.164
19014WAT     H257285   3.515   5.182   9.061
19015WAT      O57286   3.707   7.173   8.095
19015WAT     H157287   3.720   7.269   8.118
19015WAT     H257288   3.621   7.140   8.133
19016WAT      O57289   5.403   8.683   6.540
19016WAT     H157290   5.378   8.590   6.567
19016WAT     H257291   5.448   8.680   6.450
19017WAT      O57292   1.432   3.949   2.083
19017WAT     H157293   1.498   3.900   2.139
19017WAT     H257294   1.402   4.031   2.131
19018WAT      O57295   0.716   5.036   7.546
19018WAT     H157296   0.632   4.989   7.518
19018WAT     H257297   0.755   5.086   7.468
19019WAT      O57298   3.411   8.733   9.649
19019WAT     H157299   3.319   8.706   9.679
19019WAT     H257300   3.476   8.717   9.723
19020WAT      O57301   9.332   4.042   9.057
19020WAT     H157302   9.356   4.070   8.964
19020WAT     H257303   9.252   4.093   9.087
19021WAT      O57304   8.911   9.531   5.456
19021WAT     H157305   8.843   9.459   5.442
19021WAT     H257306   8.866   9.613   5.492
19022WAT      O57307   9.457   1.293   2.441
19022WAT     H157308   9.409   1.253   2.363
19022WAT     H257309   9.547   1.326   2.411
19023WAT      O57310   5.322   2.855   0.172
19023WAT     H157311   5.327   2.846   0.073
19023WAT     H257312   5.235   2.897   0.197
19024WAT      O57313   7.873   1.076   2.477
19024WAT     H157314   7.788   1.024   2.470
19024WAT     H257315   7.857   1.171   2.450
19025WAT      O57316   5.079   8.854   2.209
19025WAT     H157317   5.162   8.842   2.156
19025WAT     H257318   5.085   8.939   2.262
19026WAT      O57319   9.647   1.619   7.874
19026WAT     H157320   9.649   1.596   7.971
19026WAT     H257321   9.664   1.717   7.862
19027WAT      O57322   8.518   1.255   5.444
19027WAT     H157323   8.423   1.271   5.473
19027WAT     H257324   8.529   1.283   5.349
19028WAT      O57325   4.116   1.921   2.626
19028WAT     H157326   4.067   1.926   2.539
19028WAT     H257327   4.053   1.892   2.698
19029WAT      O57328   0.582   7.574   3.772
19029WAT     H157329   0.533   7.658   3.793
19029WAT     H257330   0.573   7.510   3.848
19030WAT      O57331   6.998   8.282   3.872
19030WAT     H157332   6.998   8.381   3.887
19030WAT     H257333   7.083   8.255   3.827
19031WAT      O57334   7.828   1.872   9.394
19031WAT     H157335   7.878   1.807   9.336
19031WAT     H257336   7.730   1.869   9.371
19032WAT      O57337   8.823   8.165   6.229
19032WAT     H157338   8.921   8.178   6.246
19032WAT     H257339   8.808   8.072   6.194
19033WAT      O57340   9.805   7.047   4.066
19033WAT     H157341   9.850   6.958   4.070
19033WAT     H257342   9.854   7.112   4.124
19034WAT      O57343   5.251   3.100   7.192
19034WAT     H157344   5.271   3.074   7.287
19034WAT     H257345   5.209   3.191   7.191
19035WAT      O57346   1.112   6.648   2.392
19035WAT     H157347   1.115   6.748   2.389
19035WAT     H257348   1.205   6.613   2.409
19036WAT      O57349   6.112   8.442   6.973
19036WAT     H157350   6.076   8.487   6.891
19036WAT     H257351   6.057   8.361   6.994
19037WAT      O57352   3.121   9.647   8.982
19037WAT     H157353   3.074   9.569   9.025
19037WAT     H257354   3.054   9.712   8.949
19038WAT      O57355   7.030   8.189   5.479
19038WAT     H157356   6.953   8.217   5.537
19038WAT     H257357   7.001   8.191   5.383
19039WAT      O57358   5.911   0.663   6.499
19039WAT     H157359   5.910   0.715   6.413
19039WAT     H257360   5.823   0.618   6.511
19040WAT      O57361   7.400   4.819   8.750
19040WAT     H157362   7.406   4.916   8.724
19040WAT     H257363   7.378   4.764   8.670
19041WAT      O57364   2.572   0.528   2.810
19041WAT     H157365   2.487   0.492   2.849
19041WAT     H257366   2.636   0.453   2.795
19042WAT      O57367   5.728   8.869   4.362
19042WAT     H157368   5.741   8.863   4.461
19042WAT     H257369   5.715   8.778   4.324
19043WAT      O57370   5.159   7.130   9.605
19043WAT     H157371   5.164   7.090   9.514
19043WAT     H257372   5.222   7.207   9.611
19044WAT      O57373   8.360   2.198   4.504
19044WAT     H157374   8.425   2.139   4.456
19044WAT     H257375   8.271   2.193   4.459
19045WAT      O57376   0.852   1.157   3.941
19045WAT     H157377   0.752   1.159   3.935
19045WAT     H257378   0.891   1.182   3.853
19046WAT      O57379   6.460   1.654   5.042
19046WAT     H157380   6.401   1.574   5.055
19046WAT     H257381   6.466   1.706   5.127
19047WAT      O57382   2.622   4.128   4.899
19047WAT     H157383   2.609   4.160   4.805
19047WAT     H257384   2.570   4.187   4.961
19048WAT      O57385   0.955   5.608   6.445
19048WAT     H157386   1.012   5.539   6.400
19048WAT     H257387   0.987   5.622   6.538
19049WAT      O57388   5.991   1.997   1.555
19049WAT     H157389   5.916   2.035   1.610
19049WAT     H257390   6.075   2.050   1.572
19050WAT      O57391   1.522   7.930   2.600
19050WAT     H157392   1.425   7.941   2.580
19050WAT     H257393   1.565   8.020   2.608
19051WAT      O57394   3.739   9.651   6.121
19051WAT     H157395   3.725   9.688   6.213
19051WAT     H257396   3.803   9.709   6.071
19052WAT      O57397   2.132   2.614   4.784
19052WAT     H157398   2.194   2.565   4.846
19052WAT     H257399   2.083   2.549   4.726
19053WAT      O57400   9.790   0.946   0.298
19053WAT     H157401   9.880   0.948   0.341
19053WAT     H257402   9.800   0.923   0.201
19054WAT      O57403   2.080   0.806   8.612
19054WAT     H157404   2.075   0.773   8.518
19054WAT     H257405   2.174   0.801   8.645
19055WAT      O57406   4.041   5.784   4.144
19055WAT     H157407   4.131   5.818   4.117
19055WAT     H257408   4.051   5.718   4.219
19056WAT      O57409   5.124   9.420   0.906
19056WAT     H157410   5.169   9.444   0.820
19056WAT     H257411   5.043   9.364   0.887
19057WAT      O57412   8.306   1.771   8.322
19057WAT     H157413   8.246   1.714   8.377
19057WAT     H257414   8.369   1.821   8.381
19058WAT      O57415   8.820   3.540   0.666
19058WAT     H157416   8.727   3.502   0.674
19058WAT     H257417   8.878   3.502   0.738
19059WAT      O57418   0.992   0.336   7.060
19059WAT     H157419   1.072   0.388   7.030
19059WAT     H257420   1.017   0.275   7.135
19060WAT      O57421   3.595   6.022   2.792
19060WAT     H157422   3.667   6.057   2.732
19060WAT     H257423   3.519   6.088   2.794
19061WAT      O57424   6.893   9.222   8.846
19061WAT     H157425   6.981   9.268   8.838
19061WAT     H257426   6.907   9.128   8.877
19062WAT      O57427   6.959   1.451   3.531
19062WAT     H157428   6.932   1.361   3.495
19062WAT     H257429   7.017   1.498   3.465
19063WAT      O57430   6.314   1.296   9.560
19063WAT     H157431   6.349   1.327   9.649
19063WAT     H257432   6.381   1.234   9.518
19064WAT      O57433   8.282   5.898   0.209
19064WAT     H157434   8.322   5.864   0.124
19064WAT     H257435   8.184   5.910   0.196
19065WAT      O57436   5.651   7.654   4.969
19065WAT     H157437   5.554   7.631   4.965
19065WAT     H257438   5.665   7.745   4.930
19066WAT      O57439   8.030   7.593   2.162
19066WAT     H157440   7.973   7.629   2.088
19066WAT     H257441   8.091   7.522   2.125
19067WAT      O57442   3.241   5.467   5.972
19067WAT     H157443   3.332   5.498   5.999
19067WAT     H257444   3.249   5.391   5.908
19068WAT      O57445   5.150   5.667   4.352
19068WAT     H157446   5.238   5.704   4.380
19068WAT     H257447   5.160   5.623   4.263
19069WAT      O57448   8.988   1.097   0.847
19069WAT     H157449   8.989   1.197   0.851
19069WAT     H257450   8.909   1.062   0.898
19070WAT      O57451   0.744   3.401   1.695
19070WAT     H157452   0.664   3.341   1.701
19070WAT     H257453   0.827   3.346   1.692
19071WAT      O57454   4.889   7.890   2.799
19071WAT     H157455   4.952   7.894   2.877
19071WAT     H257456   4.897   7.974   2.746
19072WAT      O57457   7.165   4.861   1.946
19072WAT     H157458   7.128   4.886   1.856
19072WAT     H257459   7.196   4.766   1.943
19073WAT      O57460   7.338   9.253   1.770
19073WAT     H157461   7.308   9.334   1.719
19073WAT     H257462   7.411   9.207   1.719
19074WAT      O57463   3.951   2.420   1.729
19074WAT     H157464   3.924   2.473   1.809
19074WAT     H257465   3.982   2.483   1.657
19075WAT      O57466   2.373   4.105   1.820
19075WAT     H157467   2.332   4.041   1.885
19075WAT     H257468   2.427   4.054   1.753
19076WAT      O57469   0.715   2.049   7.588
19076WAT     H157470   0.803   2.023   7.630
19076WAT     H257471   0.732   2.096   7.502
19077WAT      O57472   2.140   6.569   4.907
19077WAT     H157473   2.187   6.546   4.822
19077WAT     H257474   2.135   6.668   4.917
19078WAT      O57475   0.686   2.765   0.514
19078WAT     H157476   0.661   2.682   0.464
19078WAT     H257477   0.605   2.802   0.559
19079WAT      O57478   3.356   0.485   4.524
19079WAT     H157479   3.294   0.407   4.525
19079WAT     H257480   3.387   0.504   4.618
19080WAT      O57481   1.664   5.925   5.286
19080WAT     H157482   1.712   6.011   5.302
19080WAT     H257483   1.581   5.923   5.342
19081WAT      O57484   3.774   6.016   9.632
19081WAT     H157485   3.859   5.964   9.640
19081WAT     H257486   3.756   6.063   9.719
19082WAT      O57487   5.368   1.047   5.764
19082WAT     H157488   5.327   1.138   5.773
19082WAT     H257489   5.465   1.052   5.789
19083WAT      O57490   7.622   6.502   9.299
19083WAT     H157491   7.704   6.519   9.353
19083WAT     H257492   7.607   6.578   9.235
19084WAT      O57493   6.355   3.262   8.950
19084WAT     H157494   6.283   3.194   8.952
19084WAT     H257495   6.427   3.233   8.886
19085WAT      O57496   7.582   9.214   7.506
19085WAT     H157497   7.551   9.304   7.535
19085WAT     H257498   7.506   9.164   7.464
19086WAT      O57499   3.155   9.076   4.483
19086WAT     H157500   3.189   9.071   4.577
19086WAT     H257501   3.110   9.164   4.469
19087WAT      O57502   6.003   2.556   8.125
19087WAT     H157503   6.034   2.536   8.032
19087WAT     H257504   5.941   2.634   8.123
19088WAT      O57505   3.260   2.900   8.805
19088WAT     H157506   3.353   2.866   8.793
19088WAT     H257507   3.195   2.824   8.800
19089WAT      O57508   1.660   3.138   3.438
19089WAT     H157509   1.600   3.068   3.397
19089WAT     H257510   1.659   3.220   3.381
19090WAT      O57511   5.746   0.989   0.008
19090WAT     H157512   5.720   0.937   0.089
19090WAT     H257513   5.681   0.970  -0.066
19091WAT      O57514   5.578   6.747   2.463
19091WAT     H157515   5.659   6.702   2.501
19091WAT     H257516   5.496   6.713   2.509
19092WAT      O57517   8.980   1.676   8.097
19092WAT     H157518   8.972   1.718   8.187
19092WAT     H257519   8.893   1.632   8.073
19093WAT      O57520   0.748   1.537   0.883
19093WAT     H157521   0.757   1.621   0.936
19093WAT     H257522   0.726   1.461   0.944
19094WAT      O57523   6.048   9.262   9.872
19094WAT     H157524   6.142   9.254   9.840
19094WAT     H257525   6.046   9.253   9.972
19095WAT      O57526   4.961   0.770   8.166
19095WAT     H157527   4.895   0.836   8.129
19095WAT     H257528   5.031   0.819   8.218
19096WAT      O57529   0.813   5.622   7.425
19096WAT     H157530   0.851   5.534   7.453
19096WAT     H257531   0.777   5.670   7.505
19097WAT      O57532   3.251   1.353   4.850
19097WAT     H157533   3.194   1.391   4.922
19097WAT     H257534   3.224   1.259   4.832
19098WAT      O57535   9.780   3.655   4.532
19098WAT     H157536   9.776   3.568   4.482
19098WAT     H257537   9.875   3.679   4.549
19099WAT      O57538   8.982   7.426   1.131
19099WAT     H157539   9.002   7.352   1.195
19099WAT     H257540   9.030   7.409   1.044
19100WAT      O57541   6.869   8.914   7.742
19100WAT     H157542   6.813   8.882   7.819
19100WAT     H257543   6.917   8.997   7.768
19101WAT      O57544   6.628   3.193   2.500
19101WAT     H157545   6.555   3.126   2.518
19101WAT     H257546   6.716   3.147   2.499
19102WAT      O57547   3.572   1.516   5.914
19102WAT     H157548   3.653   1.570   5.939
19102WAT     H257549   3.525   1.561   5.838
19103WAT      O57550   8.592   8.246   1.325
19103WAT     H157551   8.593   8.253   1.226
19103WAT     H257552   8.592   8.150   1.352
19104WAT      O57553   7.752   1.724   8.526
19104WAT     H157554   7.658   1.759   8.517
19104WAT     H257555   7.816   1.800   8.530
19105WAT      O57556   4.919   6.129   7.988
19105WAT     H157557   4.999   6.182   7.962
19105WAT     H257558   4.931   6.092   8.080
19106WAT      O57559   9.505   0.273   6.652
19106WAT     H157560   9.448   0.291   6.572
19106WAT     H257561   9.598   0.304   6.633
19107WAT      O57562   0.833   7.055   6.265
19107WAT     H157563   0.868   6.993   6.195
19107WAT     H257564   0.771   7.121   6.223
19108WAT      O57565   2.027   7.066   5.835
19108WAT     H157566   2.036   7.142   5.770
19108WAT     H257567   1.987   7.100   5.920
19109WAT      O57568   0.823   5.030   4.972
19109WAT     H157569   0.788   4.937   4.959
19109WAT     H257570   0.920   5.033   4.948
19110WAT      O57571   5.712   8.548   9.614
19110WAT     H157572   5.620   8.571   9.643
19110WAT     H257573   5.734   8.454   9.640
19111WAT      O57574   4.313   8.633   0.913
19111WAT     H157575   4.397   8.579   0.903
19111WAT     H257576   4.315   8.710   0.850
19112WAT      O57577   0.461   9.274   2.442
19112WAT     H157578   0.472   9.233   2.351
19112WAT     H257579   0.372   9.319   2.447
19113WAT      O57580   0.698   6.075   2.500
19113WAT     H157581   0.758   6.026   2.564
19113WAT     H257582   0.721   6.172   2.500
19114WAT      O57583   1.627   8.228   1.498
19114WAT     H157584   1.691   8.237   1.422
19114WAT     H257585   1.624   8.314   1.549
19115WAT      O57586   7.714   3.507   9.635
19115WAT     H157587   7.770   3.587   9.618
19115WAT     H257588   7.772   3.426   9.643
19116WAT      O57589   4.461   7.880   0.797
19116WAT     H157590   4.417   7.811   0.740
19116WAT     H257591   4.400   7.904   0.873
19117WAT      O57592   9.023   1.839   5.907
19117WAT     H157593   8.934   1.840   5.861
19117WAT     H257594   9.092   1.799   5.846
19118WAT      O57595   1.185   2.346   1.704
19118WAT     H157596   1.216   2.441   1.706
19118WAT     H257597   1.257   2.287   1.667
19119WAT      O57598   2.734   2.508   6.659
19119WAT     H157599   2.784   2.436   6.707
19119WAT     H257600   2.754   2.597   6.701
19120WAT      O57601   1.614   0.196   5.946
19120WAT     H157602   1.668   0.210   6.029
19120WAT     H257603   1.610   0.098   5.925
19121WAT      O57604   9.549   7.087   0.388
19121WAT     H157605   9.528   7.073   0.292
19121WAT     H257606   9.521   7.006   0.441
19122WAT      O57607   5.522   4.827   9.002
19122WAT     H157608   5.463   4.862   9.074
19122WAT     H257609   5.487   4.858   8.913
19123WAT      O57610   4.545   1.514   9.431
19123WAT     H157611   4.619   1.447   9.429
19123WAT     H257612   4.564   1.582   9.501
19124WAT      O57613   6.342   9.380   8.413
19124WAT     H157614   6.322   9.471   8.448
19124WAT     H257615   6.295   9.311   8.469
19125WAT      O57616   7.610   5.642   7.605
19125WAT     H157617   7.578   5.674   7.516
19125WAT     H257618   7.531   5.609   7.658
19126WAT      O57619   3.045   9.452   7.724
19126WAT     H157620   3.011   9.367   7.683
19126WAT     H257621   3.043   9.443   7.824
19127WAT      O57622   2.086   1.037   1.021
19127WAT     H157623   2.170   1.073   0.980
19127WAT     H257624   2.036   1.112   1.064
19128WAT      O57625   5.501   5.669   1.027
19128WAT     H157626   5.435   5.617   1.081
19128WAT     H257627   5.536   5.612   0.954
19129WAT      O57628   9.639   2.517   6.629
19129WAT     H157629   9.544   2.522   6.601
19129WAT     H257630   9.697   2.563   6.562
19130WAT      O57631   6.780   7.709   7.032
19130WAT     H157632   6.803   7.759   6.948
19130WAT     H257633   6.833   7.745   7.108
19131WAT      O57634   5.628   3.180   4.084
19131WAT     H157635   5.676   3.121   4.149
19131WAT     H257636   5.533   3.192   4.114
19132WAT      O57637   2.412   5.305   2.334
19132WAT     H157638   2.442   5.252   2.413
19132WAT     H257639   2.403   5.401   2.359
19133WAT      O57640   4.737   2.334   7.338
19133WAT     H157641   4.781   2.341   7.248
19133WAT     H257642   4.786   2.390   7.404
19134WAT      O57643   6.275   3.025   3.086
19134WAT     H157644   6.348   3.073   3.134
19134WAT     H257645   6.232   3.086   3.020
19135WAT      O57646   9.789   8.423   0.320
19135WAT     H157647   9.731   8.384   0.249
19135WAT     H257648   9.760   8.517   0.339
19136WAT      O57649   1.776   4.430   1.707
19136WAT     H157650   1.818   4.430   1.798
19136WAT     H257651   1.690   4.379   1.710
19137WAT      O57652   0.114   2.154   7.755
19137WAT     H157653   0.202   2.163   7.802
19137WAT     H257654   0.094   2.058   7.738
19138WAT      O57655   8.110   6.517   7.831
19138WAT     H157656   8.162   6.464   7.897
19138WAT     H257657   8.024   6.547   7.872
19139WAT      O57658   8.723   4.063   7.622
19139WAT     H157659   8.701   3.993   7.554
19139WAT     H257660   8.638   4.100   7.661
19140WAT      O57661   0.756   3.314   9.752
19140WAT     H157662   0.685   3.250   9.724
19140WAT     H257663   0.794   3.360   9.671
19141WAT      O57664   8.878   7.119   8.024
19141WAT     H157665   8.824   7.115   8.108
19141WAT     H257666   8.962   7.170   8.042
19142WAT      O57667   4.208   5.572   5.284
19142WAT     H157668   4.219   5.644   5.215
19142WAT     H257669   4.118   5.582   5.328
19143WAT      O57670   0.504   3.141   3.925
19143WAT     H157671   0.496   3.210   3.996
19143WAT     H257672   0.589   3.089   3.938
19144WAT      O57673   8.652   8.307   3.100
19144WAT     H157674   8.585   8.373   3.133
19144WAT     H257675   8.742   8.330   3.138
19145WAT      O57676   7.153   6.929   3.795
19145WAT     H157677   7.167   7.027   3.809
19145WAT     H257678   7.069   6.915   3.742
19146WAT      O57679   5.633   7.967   9.198
19146WAT     H157680   5.693   8.036   9.239
19146WAT     H257681   5.585   7.918   9.271
19147WAT      O57682   4.476   0.724   1.027
19147WAT     H157683   4.564   0.677   1.029
19147WAT     H257684   4.408   0.666   0.982
19148WAT      O57685   7.564   2.225   5.430
19148WAT     H157686   7.606   2.230   5.339
19148WAT     H257687   7.606   2.293   5.490
19149WAT      O57688   3.541   2.844   2.484
19149WAT     H157689   3.557   2.827   2.581
19149WAT     H257690   3.619   2.893   2.445
19150WAT      O57691   4.300   8.679   4.470
19150WAT     H157692   4.252   8.661   4.385
19150WAT     H257693   4.312   8.594   4.521
19151WAT      O57694   8.652   6.238   7.927
19151WAT     H157695   8.559   6.252   7.894
19151WAT     H257696   8.698   6.170   7.871
19152WAT      O57697   4.115   1.980   1.273
19152WAT     H157698   4.198   2.036   1.276
19152WAT     H257699   4.116   1.916   1.350
19153WAT      O57700   0.962   3.279   4.799
19153WAT     H157701   0.897   3.217   4.844
19153WAT     H257702   1.050   3.232   4.787
19154WAT      O57703   0.184   7.061   0.697
19154WAT     H157704   0.154   7.025   0.608
19154WAT     H257705   0.113   7.044   0.765
19155WAT      O57706   3.101   0.793   6.709
19155WAT     H157707   3.172   0.863   6.714
19155WAT     H257708   3.112   0.740   6.625
19156WAT      O57709   8.331   8.905   6.917
19156WAT     H157710   8.313   9.003   6.903
19156WAT     H257711   8.302   8.879   7.009
19157WAT      O57712   2.711   2.438   2.232
19157WAT     H157713   2.665   2.524   2.212
19157WAT     H257714   2.801   2.438   2.187
19158WAT      O57715   0.830   1.146   3.637
19158WAT     H157716   0.813   1.050   3.658
19158WAT     H257717   0.752   1.183   3.586
19159WAT      O57718   8.067   3.113   2.116
19159WAT     H157719   8.043   3.192   2.173
19159WAT     H257720   8.132   3.141   2.045
19160WAT      O57721   7.680   6.563   1.829
19160WAT     H157722   7.648   6.586   1.737
19160WAT     H257723   7.609   6.585   1.896
19161WAT      O57724   7.675   9.422   0.611
19161WAT     H157725   7.668   9.422   0.511
19161WAT     H257726   7.666   9.329   0.645
19162WAT      O57727   0.475   5.380   7.245
19162WAT     H157728   0.518   5.406   7.159
19162WAT     H257729   0.468   5.460   7.305
19163WAT      O57730   3.578   9.125   7.996
19163WAT     H157731   3.504   9.186   7.966
19163WAT     H257732   3.666   9.164   7.968
19164WAT      O57733   5.308   7.011   7.121
19164WAT     H157734   5.270   6.941   7.183
19164WAT     H257735   5.339   6.967   7.037
19165WAT      O57736   8.503   6.734   3.552
19165WAT     H157737   8.562   6.815   3.545
19165WAT     H257738   8.407   6.762   3.555
19166WAT      O57739   6.988   7.299   3.666
19166WAT     H157740   6.977   7.379   3.725
19166WAT     H257741   6.923   7.228   3.694
19167WAT      O57742   8.617   7.031   5.642
19167WAT     H157743   8.676   7.099   5.598
19167WAT     H257744   8.660   6.941   5.636
19168WAT      O57745   0.828   7.552   4.798
19168WAT     H157746   0.748   7.500   4.829
19168WAT     H257747   0.849   7.624   4.864
19169WAT      O57748   2.445   3.257   0.604
19169WAT     H157749   2.540   3.269   0.632
19169WAT     H257750   2.393   3.216   0.679
19170WAT      O57751   0.158   9.684   5.305
19170WAT     H157752   0.104   9.750   5.252
19170WAT     H257753   0.171   9.601   5.252
19171WAT      O57754   9.114   0.473   1.446
19171WAT     H157755   9.084   0.521   1.364
19171WAT     H257756   9.168   0.535   1.503
19172WAT      O57757   7.697   0.954   8.442
19172WAT     H157758   7.698   1.054   8.448
19172WAT     H257759   7.698   0.927   8.346
19173WAT      O57760   6.769   6.060   0.429
19173WAT     H157761   6.786   6.111   0.513
19173WAT     H257762   6.685   6.007   0.439
19174WAT      O57763   4.303   0.544   8.163
19174WAT     H157764   4.342   0.628   8.201
19174WAT     H257765   4.203   0.547   8.170
19175WAT      O57766   7.070   5.923   9.264
19175WAT     H157767   7.016   5.961   9.339
19175WAT     H257768   7.035   5.957   9.177
19176WAT      O57769   0.594   3.206   6.893
19176WAT     H157770   0.618   3.117   6.854
19176WAT     H257771   0.655   3.226   6.970
19177WAT      O57772   0.583   5.053   3.486
19177WAT     H157773   0.649   5.039   3.560
19177WAT     H257774   0.571   4.967   3.436
19178WAT      O57775   9.076   6.848   1.061
19178WAT     H157776   9.173   6.869   1.070
19178WAT     H257777   9.031   6.860   1.150
19179WAT      O57778   2.732   1.052   9.259
19179WAT     H157779   2.806   1.026   9.196
19179WAT     H257780   2.682   0.970   9.287
19180WAT      O57781   7.344   3.645   6.575
19180WAT     H157782   7.411   3.714   6.548
19180WAT     H257783   7.383   3.554   6.564
19181WAT      O57784   6.349   0.756   2.006
19181WAT     H157785   6.420   0.719   2.067
19181WAT     H257786   6.267   0.776   2.060
19182WAT      O57787   6.701   8.902   9.462
19182WAT     H157788   6.697   8.927   9.365
19182WAT     H257789   6.609   8.879   9.494
19183WAT      O57790   0.083   8.763   2.039
19183WAT     H157791   0.045   8.676   2.008
19183WAT     H257792   0.180   8.768   2.013
19184WAT      O57793   2.482   4.966   1.582
19184WAT     H157794   2.488   5.054   1.629
19184WAT     H257795   2.391   4.957   1.540
19185WAT      O57796   4.911   6.025   1.016
19185WAT     H157797   4.949   6.009   0.925
19185WAT     H257798   4.971   5.983   1.084
19186WAT      O57799   1.290   3.615   6.450
19186WAT     H157800   1.348   3.611   6.369
19186WAT     H257801   1.317   3.543   6.514
19187WAT      O57802   2.504   2.079   7.634
19187WAT     H157803   2.503   2.002   7.697
19187WAT     H257804   2.599   2.110   7.621
19188WAT      O57805   3.661   1.877   9.441
19188WAT     H157806   3.624   1.820   9.367
19188WAT     H257807   3.720   1.948   9.402
19189WAT      O57808   8.964   7.095   5.750
19189WAT     H157809   8.893   7.124   5.814
19189WAT     H257810   8.969   6.995   5.747
19190WAT      O57811   3.595   4.911   6.189
19190WAT     H157812   3.524   4.974   6.158
19190WAT     H257813   3.553   4.828   6.224
19191WAT      O57814   8.438   6.901   2.786
19191WAT     H157815   8.488   6.943   2.862
19191WAT     H257816   8.411   6.808   2.811
19192WAT      O57817   5.144   4.539   3.294
19192WAT     H157818   5.200   4.556   3.212
19192WAT     H257819   5.118   4.443   3.298
19193WAT      O57820   9.751   9.696   5.154
19193WAT     H157821   9.844   9.731   5.155
19193WAT     H257822   9.706   9.719   5.240
19194WAT      O57823   1.965   4.149   3.177
19194WAT     H157824   1.920   4.098   3.251
19194WAT     H257825   1.904   4.154   3.098
19195WAT      O57826   0.345   4.481   7.996
19195WAT     H157827   0.335   4.577   8.022
19195WAT     H257828   0.278   4.427   8.047
19196WAT      O57829   6.952   6.900   9.409
19196WAT     H157830   7.048   6.927   9.414
19196WAT     H257831   6.945   6.812   9.362
19197WAT      O57832   8.133   9.108   3.827
19197WAT     H157833   8.087   9.148   3.906
19197WAT     H257834   8.231   9.122   3.835
19198WAT      O57835   9.257   7.224   9.774
19198WAT     H157836   9.293   7.136   9.743
19198WAT     H257837   9.157   7.222   9.771
19199WAT      O57838   9.167   7.481   2.509
19199WAT     H157839   9.105   7.470   2.432
19199WAT     H257840   9.119   7.458   2.594
19200WAT      O57841   4.835   5.458   6.382
19200WAT     H157842   4.827   5.435   6.285
19200WAT     H257843   4.833   5.374   6.436
19201WAT      O57844   3.766   5.258   8.021
19201WAT     H157845   3.732   5.304   7.939
19201WAT     H257846   3.837   5.314   8.064
19202WAT      O57847   5.988   1.299   5.895
19202WAT     H157848   5.968   1.306   5.798
19202WAT     H257849   5.933   1.226   5.936
19203WAT      O57850   3.465   3.757   6.590
19203WAT     H157851   3.372   3.726   6.569
19203WAT     H257852   3.480   3.847   6.549
19204WAT      O57853   5.181   8.315   7.931
19204WAT     H157854   5.123   8.292   8.009
19204WAT     H257855   5.123   8.346   7.855
19205WAT      O57856   8.901   6.241   4.603
19205WAT     H157857   8.871   6.156   4.646
19205WAT     H257858   8.970   6.222   4.534
19206WAT      O57859   6.031   1.580   4.996
19206WAT     H157860   5.992   1.646   5.060
19206WAT     H257861   6.077   1.507   5.047
19207WAT      O57862   9.326   3.488   4.679
19207WAT     H157863   9.412   3.538   4.672
19207WAT     H257864   9.340   3.394   4.648
19208WAT      O57865   7.994   1.081   4.730
19208WAT     H157866   8.017   1.003   4.672
19208WAT     H257867   8.047   1.076   4.815
19209WAT      O57868   7.366   5.122   6.206
19209WAT     H157869   7.274   5.148   6.177
19209WAT     H257870   7.366   5.103   6.305
19210WAT      O57871   7.872   2.049   4.401
19210WAT     H157872   7.953   2.016   4.352
19210WAT     H257873   7.857   2.145   4.379
19211WAT      O57874   8.794   4.011   0.059
19211WAT     H157875   8.776   3.927   0.009
19211WAT     H257876   8.707   4.047   0.096
19212WAT      O57877   8.879   2.485   5.700
19212WAT     H157878   8.961   2.431   5.720
19212WAT     H257879   8.905   2.566   5.647
19213WAT      O57880   5.022   4.441   0.374
19213WAT     H157881   4.981   4.523   0.335
19213WAT     H257882   5.078   4.466   0.453
19214WAT      O57883   5.767   6.600   2.586
19214WAT     H157884   5.860   6.597   2.547
19214WAT     H257885   5.753   6.520   2.644
19215WAT      O57886   7.450   5.943   8.842
19215WAT     H157887   7.399   5.960   8.927
19215WAT     H257888   7.533   5.999   8.842
19216WAT      O57889   1.455   4.617   6.160
19216WAT     H157890   1.520   4.540   6.156
19216WAT     H257891   1.483   4.688   6.096
19217WAT      O57892   6.773   3.557   6.538
19217WAT     H157893   6.805   3.470   6.577
19217WAT     H257894   6.773   3.627   6.609
19218WAT      O57895   4.409   5.704   8.344
19218WAT     H157896   4.490   5.716   8.287
19218WAT     H257897   4.415   5.766   8.423
19219WAT      O57898   3.137   6.338   6.823
19219WAT     H157899   3.169   6.427   6.791
19219WAT     H257900   3.049   6.350   6.870
19220WAT      O57901   1.268   5.458   2.301
19220WAT     H157902   1.358   5.490   2.272
19220WAT     H257903   1.197   5.499   2.243
19221WAT      O57904   2.147   5.342   4.885
19221WAT     H157905   2.185   5.435   4.889
19221WAT     H257906   2.155   5.306   4.792
19222WAT      O57907   1.704   3.478   5.243
19222WAT     H157908   1.647   3.451   5.165
19222WAT     H257909   1.645   3.510   5.317
19223WAT      O57910   4.255   5.878   7.315
19223WAT     H157911   4.158   5.865   7.294
19223WAT     H257912   4.265   5.954   7.379
19224WAT      O57913   3.677   4.507   7.746
19224WAT     H157914   3.736   4.437   7.708
19224WAT     H257915   3.587   4.502   7.703
19225WAT      O57916   3.108   8.441   8.455
19225WAT     H157917   3.050   8.380   8.401
19225WAT     H257918   3.095   8.535   8.423
19226WAT      O57919   9.654   4.548   5.519
19226WAT     H157920   9.597   4.506   5.589
19226WAT     H257921   9.736   4.493   5.505
19227WAT      O57922   5.177   0.313   2.141
19227WAT     H157923   5.248   0.370   2.183
19227WAT     H257924   5.207   0.284   2.050
19228WAT      O57925   1.040   3.912   8.753
19228WAT     H157926   1.108   3.841   8.770
19228WAT     H257927   0.975   3.880   8.684
19229WAT      O57928   4.904   2.009   4.092
19229WAT     H157929   4.805   2.001   4.089
19229WAT     H257930   4.936   2.064   4.015
19230WAT      O57931   5.709   1.670   7.451
19230WAT     H157932   5.807   1.680   7.431
19230WAT     H257933   5.667   1.611   7.382
19231WAT      O57934   2.480   6.245   9.646
19231WAT     H157935   2.381   6.232   9.657
19231WAT     H257936   2.527   6.158   9.656
19232WAT      O57937   8.565   0.455   2.305
19232WAT     H157938   8.624   0.433   2.384
19232WAT     H257939   8.618   0.508   2.238
19233WAT      O57940   3.212   0.922   5.810
19233WAT     H157941   3.220   0.998   5.746
19233WAT     H257942   3.250   0.839   5.769
19234WAT      O57943   2.341   6.487   8.748
19234WAT     H157944   2.269   6.552   8.773
19234WAT     H257945   2.428   6.535   8.740
19235WAT      O57946   1.779   8.061   8.734
19235WAT     H157947   1.753   8.123   8.809
19235WAT     H257948   1.787   8.114   8.649
19236WAT      O57949   8.321   6.998   2.263
19236WAT     H157950   8.287   7.078   2.312
19236WAT     H257951   8.249   6.929   2.258
19237WAT      O57952   0.131   7.932   7.691
19237WAT     H157953   0.092   7.928   7.783
19237WAT     H257954   0.172   8.022   7.676
19238WAT      O57955   3.457   4.357   9.450
19238WAT     H157956   3.370   4.371   9.498
19238WAT     H257957   3.523   4.314   9.512
19239WAT      O57958   6.259   9.686   7.043
19239WAT     H157959   6.179   9.745   7.035
19239WAT     H257960   6.251   9.631   7.126
19240WAT      O57961   6.901   9.161   0.957
19240WAT     H157962   6.946   9.096   1.019
19240WAT     H257963   6.929   9.141   0.863
19241WAT      O57964   9.270   3.174   5.818
19241WAT     H157965   9.313   3.096   5.863
19241WAT     H257966   9.304   3.182   5.725
19242WAT      O57967   1.212   8.133   9.806
19242WAT     H157968   1.251   8.074   9.736
19242WAT     H257969   1.165   8.077   9.875
19243WAT      O57970   2.820   4.556   9.096
19243WAT     H157971   2.735   4.536   9.143
19243WAT     H257972   2.834   4.489   9.022
19244WAT      O57973   1.868   9.616   5.842
19244WAT     H157974   1.906   9.696   5.796
19244WAT     H257975   1.939   9.573   5.898
19245WAT      O57976   9.493   3.237   4.191
19245WAT     H157977   9.401   3.211   4.162
19245WAT     H257978   9.495   3.249   4.290
19246WAT      O57979   9.641   8.519   2.543
19246WAT     H157980   9.662   8.590   2.476
19246WAT     H257981   9.623   8.432   2.497
19247WAT      O57982   8.997   4.339   6.590
19247WAT     H157983   8.990   4.420   6.531
19247WAT     H257984   9.093   4.318   6.607
19248WAT      O57985   3.748   9.730   8.190
19248WAT     H157986   3.793   9.809   8.149
19248WAT     H257987   3.663   9.760   8.235
19249WAT      O57988   3.516   8.695   2.036
19249WAT     H157989   3.544   8.791   2.031
19249WAT     H257990   3.597   8.636   2.023
19250WAT      O57991   5.553   9.558   8.355
19250WAT     H157992   5.605   9.472   8.346
19250WAT     H257993   5.582   9.605   8.439
19251WAT      O57994   3.445   3.050   6.853
19251WAT     H157995   3.464   2.952   6.842
19251WAT     H257996   3.447   3.094   6.763
19252WAT      O57997   8.555   7.429   3.334
19252WAT     H157998   8.513   7.496   3.273
19252WAT     H257999   8.506   7.429   3.422
19253WAT      O58000   0.430   3.985   6.111
19253WAT     H158001   0.452   4.082   6.119
19253WAT     H258002   0.348   3.974   6.055
19254WAT      O58003   3.183   4.672   2.743
19254WAT     H158004   3.283   4.671   2.733
19254WAT     H258005   3.142   4.615   2.672
19255WAT      O58006   0.642   9.750   3.167
19255WAT     H158007   0.642   9.656   3.134
19255WAT     H258008   0.568   9.762   3.233
19256WAT      O58009   8.404   2.771   4.814
19256WAT     H158010   8.412   2.865   4.849
19256WAT     H258011   8.353   2.772   4.728
19257WAT      O58012   1.719   2.465   6.537
19257WAT     H158013   1.810   2.489   6.503
19257WAT     H258014   1.666   2.423   6.463
19258WAT      O58015   2.116   5.730   9.454
19258WAT     H158016   2.126   5.631   9.443
19258WAT     H258017   2.039   5.762   9.399
19259WAT      O58018   4.109   2.886   4.599
19259WAT     H158019   4.198   2.931   4.587
19259WAT     H258020   4.064   2.877   4.510
19260WAT      O58021   2.610   9.449   4.527
19260WAT     H158022   2.673   9.435   4.451
19260WAT     H258023   2.518   9.421   4.499
19261WAT      O58024   0.453   7.066   5.549
19261WAT     H158025   0.499   7.125   5.482
19261WAT     H258026   0.483   7.091   5.641
19262WAT      O58027   3.318   9.125   0.836
19262WAT     H158028   3.364   9.131   0.925
19262WAT     H258029   3.365   9.059   0.778
19263WAT      O58030   6.519   3.037   8.502
19263WAT     H158031   6.572   2.999   8.426
19263WAT     H258032   6.434   2.985   8.513
19264WAT      O58033   6.171   2.659   4.048
19264WAT     H158034   6.253   2.602   4.058
19264WAT     H258035   6.166   2.724   4.123
19265WAT      O58036   0.422   5.089   9.774
19265WAT     H158037   0.368   5.008   9.751
19265WAT     H258038   0.503   5.062   9.827
19266WAT      O58039   2.063   7.346   0.974
19266WAT     H158040   2.026   7.356   0.882
19266WAT     H258041   2.162   7.333   0.969
19267WAT      O58042   7.850   9.688   4.435
19267WAT     H158043   7.751   9.676   4.429
19267WAT     H258044   7.873   9.736   4.519
19268WAT      O58045   3.814   4.605   5.160
19268WAT     H158046   3.814   4.699   5.192
19268WAT     H258047   3.902   4.585   5.116
19269WAT      O58048   2.550   0.974   9.031
19269WAT     H158049   2.609   1.043   8.990
19269WAT     H258050   2.500   0.926   8.959
19270WAT      O58051   1.513   3.915   1.348
19270WAT     H158052   1.431   3.859   1.354
19270WAT     H258053   1.584   3.877   1.407
19271WAT      O58054   3.248   2.804   5.134
19271WAT     H158055   3.158   2.792   5.091
19271WAT     H258056   3.235   2.835   5.229
19272WAT      O58057   1.008   6.786   3.768
19272WAT     H158058   1.076   6.826   3.830
19272WAT     H258059   1.024   6.688   3.759
19273WAT      O58060   5.880   9.020   1.209
19273WAT     H158061   5.970   9.048   1.175
19273WAT     H258062   5.836   8.960   1.142
19274WAT      O58063   2.969   5.271   8.636
19274WAT     H158064   3.041   5.234   8.694
19274WAT     H258065   2.949   5.365   8.663
19275WAT      O58066   0.827   5.737   4.664
19275WAT     H158067   0.733   5.709   4.648
19275WAT     H258068   0.840   5.831   4.631
19276WAT      O58069   8.559   8.097   5.349
19276WAT     H158070   8.567   8.083   5.448
19276WAT     H258071   8.589   8.190   5.326
19277WAT      O58072   1.876   6.202   3.853
19277WAT     H158073   1.807   6.166   3.916
19277WAT     H258074   1.894   6.298   3.873
19278WAT      O58075   5.792   2.138   3.972
19278WAT     H158076   5.725   2.095   3.911
19278WAT     H258077   5.750   2.219   4.014
19279WAT      O58078   0.152   0.886   0.378
19279WAT     H158079   0.245   0.850   0.385
19279WAT     H258080   0.150   0.981   0.410
19280WAT      O58081   5.440   0.527   0.005
19280WAT     H158082   5.424   0.608   0.061
19280WAT     H258083   5.366   0.517  -0.062
19281WAT      O58084   4.913   7.869   0.586
19281WAT     H158085   4.905   7.770   0.594
19281WAT     H258086   4.936   7.893   0.491
19282WAT      O58087   4.302   7.410   1.186
19282WAT     H158088   4.247   7.349   1.241
19282WAT     H258089   4.383   7.361   1.152
19283WAT      O58090   0.900   8.586   0.330
19283WAT     H158091   0.827   8.654   0.321
19283WAT     H258092   0.984   8.622   0.289
19284WAT      O58093   4.193   4.477   8.671
19284WAT     H158094   4.158   4.562   8.710
19284WAT     H258095   4.115   4.421   8.640
19285WAT      O58096   4.395   1.344   7.553
19285WAT     H158097   4.464   1.385   7.613
19285WAT     H258098   4.434   1.332   7.461
19286WAT      O58099   3.230   1.245   8.901
19286WAT     H158100   3.264   1.214   8.990
19286WAT     H258101   3.158   1.182   8.871
19287WAT      O58102   0.940   6.612   8.671
19287WAT     H158103   0.904   6.530   8.625
19287WAT     H258104   0.898   6.693   8.631
19288WAT      O58105   5.774   7.714   1.484
19288WAT     H158106   5.692   7.670   1.446
19288WAT     H258107   5.813   7.777   1.415
19289WAT      O58108   3.763   6.963   2.424
19289WAT     H158109   3.811   7.050   2.415
19289WAT     H258110   3.716   6.961   2.513
19290WAT      O58111   0.299   0.067   3.103
19290WAT     H158112   0.348   0.071   3.016
19290WAT     H258113   0.230  -0.006   3.098
19291WAT      O58114   5.737   3.585   9.553
19291WAT     H158115   5.690   3.565   9.466
19291WAT     H258116   5.685   3.546   9.628
19292WAT      O58117   4.871   3.699   1.029
19292WAT     H158118   4.876   3.601   1.049
19292WAT     H258119   4.837   3.713   0.936
19293WAT      O58120   7.834   6.268   5.837
19293WAT     H158121   7.823   6.364   5.809
19293WAT     H258122   7.756   6.242   5.895
19294WAT      O58123   7.451   9.208   3.887
19294WAT     H158124   7.457   9.230   3.789
19294WAT     H258125   7.416   9.115   3.897
19295WAT      O58126   6.568   1.751   9.334
19295WAT     H158127   6.567   1.827   9.399
19295WAT     H258128   6.475   1.727   9.309
19296WAT      O58129   6.611   1.216   2.516
19296WAT     H158130   6.626   1.292   2.579
19296WAT     H258131   6.660   1.233   2.430
19297WAT      O58132   0.062   8.878   4.863
19297WAT     H158133   0.074   8.913   4.770
19297WAT     H258134   0.085   8.780   4.864
19298WAT      O58135   3.869   1.127   9.060
19298WAT     H158136   3.856   1.172   8.972
19298WAT     H258137   3.931   1.182   9.116
19299WAT      O58138   6.863   3.072   2.502
19299WAT     H158139   6.892   3.059   2.597
19299WAT     H258140   6.940   3.052   2.441
19300WAT      O58141   7.175   3.788   8.135
19300WAT     H158142   7.077   3.808   8.126
19300WAT     H258143   7.198   3.707   8.081
19301WAT      O58144   2.193   4.128   6.755
19301WAT     H158145   2.252   4.168   6.825
19301WAT     H258146   2.200   4.181   6.670
19302WAT      O58147   7.129   3.966   2.652
19302WAT     H158148   7.116   4.057   2.612
19302WAT     H258149   7.206   3.921   2.608
19303WAT      O58150   2.382   1.897   7.431
19303WAT     H158151   2.423   1.810   7.460
19303WAT     H258152   2.421   1.972   7.486
19304WAT      O58153   4.147   4.866   6.853
19304WAT     H158154   4.164   4.964   6.844
19304WAT     H258155   4.063   4.852   6.906
19305WAT      O58156   1.504   4.998   9.675
19305WAT     H158157   1.495   4.899   9.687
19305WAT     H258158   1.414   5.040   9.675
19306WAT      O58159   4.603   6.601   6.681
19306WAT     H158160   4.572   6.506   6.672
19306WAT     H258161   4.525   6.662   6.669
19307WAT      O58162   4.401   0.447   6.665
19307WAT     H158163   4.363   0.395   6.741
19307WAT     H258164   4.346   0.530   6.650
19308WAT      O58165   0.371   2.042   9.808
19308WAT     H158166   0.409   2.094   9.732
19308WAT     H258167   0.444   1.994   9.856
19309WAT      O58168   1.073   9.734   6.205
19309WAT     H158169   0.997   9.671   6.222
19309WAT     H258170   1.153   9.683   6.174
19310WAT      O58171   8.081   2.837   8.428
19310WAT     H158172   8.161   2.779   8.447
19310WAT     H258173   8.041   2.866   8.514
19311WAT      O58174   8.353   7.674   6.318
19311WAT     H158175   8.307   7.730   6.249
19311WAT     H258176   8.426   7.727   6.361
19312WAT      O58177   0.197   8.593   9.059
19312WAT     H158178   0.130   8.519   9.050
19312WAT     H258179   0.282   8.565   9.015
19313WAT      O58180   8.309   7.227   7.017
19313WAT     H158181   8.283   7.249   6.923
19313WAT     H258182   8.386   7.162   7.016
19314WAT      O58183   7.843   3.078   2.791
19314WAT     H158184   7.872   3.172   2.770
19314WAT     H258185   7.780   3.080   2.869
19315WAT      O58186   4.605   6.890   9.190
19315WAT     H158187   4.581   6.987   9.185
19315WAT     H258188   4.614   6.863   9.286
19316WAT      O58189   8.836   5.062   7.659
19316WAT     H158190   8.836   5.029   7.753
19316WAT     H258191   8.806   4.989   7.598
19317WAT      O58192   8.270   4.537   7.197
19317WAT     H158193   8.232   4.446   7.184
19317WAT     H258194   8.248   4.594   7.118
19318WAT      O58195   7.848   0.053   6.540
19318WAT     H158196   7.827   0.150   6.526
19318WAT     H258197   7.903   0.043   6.622
19319WAT      O58198   0.122   5.267   6.588
19319WAT     H158199   0.215   5.292   6.616
19319WAT     H258200   0.082   5.204   6.655
19320WAT      O58201   5.527   4.278   6.490
19320WAT     H158202   5.474   4.233   6.418
19320WAT     H258203   5.556   4.368   6.458
19321WAT      O58204   9.671   5.936   3.998
19321WAT     H158205   9.740   5.864   3.992
19321WAT     H258206   9.643   5.962   3.906
19322WAT      O58207   5.150   2.274   6.069
19322WAT     H158208   5.220   2.338   6.036
19322WAT     H258209   5.151   2.273   6.169
19323WAT      O58210   4.613   6.171   8.612
19323WAT     H158211   4.619   6.073   8.628
19323WAT     H258212   4.527   6.193   8.567
19324WAT      O58213   2.211   6.240   9.659
19324WAT     H158214   2.199   6.227   9.758
19324WAT     H258215   2.137   6.192   9.611
19325WAT      O58216   7.200   1.728   2.572
19325WAT     H158217   7.267   1.769   2.511
19325WAT     H258218   7.111   1.770   2.558
19326WAT      O58219   8.654   0.824   7.825
19326WAT     H158220   8.640   0.728   7.851
19326WAT     H258221   8.736   0.858   7.869
19327WAT      O58222   3.117   4.631   5.930
19327WAT     H158223   3.161   4.577   5.859
19327WAT     H258224   3.164   4.719   5.940
19328WAT      O58225   2.016   0.528   0.506
19328WAT     H158226   2.030   0.607   0.566
19328WAT     H258227   2.090   0.522   0.440
19329WAT      O58228   8.866   7.189   9.399
19329WAT     H158229   8.866   7.225   9.306
19329WAT     H258230   8.804   7.243   9.456
19330WAT      O58231   0.055   9.081   6.791
19330WAT     H158232  -0.024   9.052   6.846
19330WAT     H258233   0.023   9.114   6.703
19331WAT      O58234   6.662   4.869   1.201
19331WAT     H158235   6.673   4.780   1.156
19331WAT     H258236   6.701   4.864   1.293
19332WAT      O58237   2.720   0.173   4.711
19332WAT     H158238   2.779   0.251   4.689
19332WAT     H258239   2.735   0.100   4.644
19333WAT      O58240   5.513   5.765   3.379
19333WAT     H158241   5.508   5.835   3.450
19333WAT     H258242   5.430   5.767   3.324
19334WAT      O58243   8.302   4.703   4.604
19334WAT     H158244   8.261   4.761   4.534
19334WAT     H258245   8.400   4.692   4.586
19335WAT      O58246   8.185   9.264   3.024
19335WAT     H158247   8.147   9.307   3.106
19335WAT     H258248   8.284   9.274   3.025
19336WAT      O58249   9.383   0.246   7.783
19336WAT     H158250   9.386   0.152   7.818
19336WAT     H258251   9.320   0.251   7.706
19337WAT      O58252   0.782   7.857   3.903
19337WAT     H158253   0.713   7.836   3.834
19337WAT     H258254   0.822   7.771   3.937
19338WAT      O58255   0.434   9.253   8.290
19338WAT     H158256   0.456   9.160   8.322
19338WAT     H258257   0.346   9.281   8.327
19339WAT      O58258   0.068   7.454   6.406
19339WAT     H158259   0.106   7.365   6.380
19339WAT     H258260   0.122   7.527   6.364
19340WAT      O58261   9.027   7.574   9.122
19340WAT     H158262   8.960   7.540   9.189
19340WAT     H258263   9.020   7.520   9.038
19341WAT      O58264   7.204   9.288   0.409
19341WAT     H158265   7.280   9.255   0.465
19341WAT     H258266   7.123   9.301   0.467
19342WAT      O58267   9.363   7.448   3.915
19342WAT     H158268   9.270   7.483   3.904
19342WAT     H258269   9.380   7.376   3.847
19343WAT      O58270   8.435   7.583   0.802
19343WAT     H158271   8.379   7.661   0.830
19343WAT     H258272   8.382   7.499   0.814
19344WAT      O58273   7.908   4.574   2.653
19344WAT     H158274   7.894   4.658   2.707
19344WAT     H258275   7.984   4.522   2.693
19345WAT      O58276   7.564   8.101   4.060
19345WAT     H158277   7.517   8.013   4.062
19345WAT     H258278   7.617   8.108   3.976
19346WAT      O58279   8.082   7.272   0.489
19346WAT     H158280   8.002   7.234   0.441
19346WAT     H258281   8.066   7.268   0.587
19347WAT      O58282   8.411   3.614   6.942
19347WAT     H158283   8.377   3.595   6.849
19347WAT     H258284   8.387   3.707   6.968
19348WAT      O58285   6.475   8.450   7.528
19348WAT     H158286   6.408   8.376   7.535
19348WAT     H258287   6.543   8.427   7.457
19349WAT      O58288   7.073   5.313   7.671
19349WAT     H158289   7.047   5.217   7.659
19349WAT     H258290   7.096   5.353   7.582
19350WAT      O58291   3.540   0.080   1.863
19350WAT     H158292   3.532   0.174   1.829
19350WAT     H258293   3.566   0.020   1.788
19351WAT      O58294   7.818   5.186   6.379
19351WAT     H158295   7.903   5.205   6.330
19351WAT     H258296   7.740   5.204   6.320
19352WAT      O58297   8.904   1.194   5.357
19352WAT     H158298   8.874   1.250   5.279
19352WAT     H258299   8.945   1.253   5.426
19353WAT      O58300   5.820   2.557   6.054
19353WAT     H158301   5.720   2.565   6.061
19353WAT     H258302   5.862   2.647   6.064
19354WAT      O58303   1.752   5.774   1.513
19354WAT     H158304   1.815   5.830   1.460
19354WAT     H258305   1.798   5.739   1.595
19355WAT      O58306   0.218   1.518   1.010
19355WAT     H158307   0.243   1.433   0.964
19355WAT     H258308   0.126   1.511   1.048
19356WAT      O58309   2.118   0.264   1.784
19356WAT     H158310   2.165   0.267   1.872
19356WAT     H258311   2.171   0.313   1.715
19357WAT      O58312   0.123   7.236   8.461
19357WAT     H158313   0.168   7.147   8.454
19357WAT     H258314   0.190   7.309   8.444
19358WAT      O58315   7.807   8.184   9.314
19358WAT     H158316   7.906   8.197   9.313
19358WAT     H258317   7.762   8.262   9.271
19359WAT      O58318   7.173   6.373   3.192
19359WAT     H158319   7.157   6.360   3.094
19359WAT     H258320   7.256   6.427   3.205
19360WAT      O58321   6.486   9.242   9.537
19360WAT     H158322   6.448   9.330   9.506
19360WAT     H258323   6.467   9.172   9.468
19361WAT      O58324   8.314   6.044   8.788
19361WAT     H158325   8.305   5.998   8.700
19361WAT     H258326   8.366   6.129   8.776
19362WAT      O58327   6.919   5.876   2.014
19362WAT     H158328   6.884   5.805   1.953
19362WAT     H258329   6.888   5.965   1.982
19363WAT      O58330   5.528   0.591   7.264
19363WAT     H158331   5.571   0.617   7.351
19363WAT     H258332   5.500   0.495   7.267
19364WAT      O58333   4.644   0.816   1.798
19364WAT     H158334   4.603   0.794   1.887
19364WAT     H258335   4.594   0.769   1.725
19365WAT      O58336   8.020   7.395   2.529
19365WAT     H158337   8.077   7.470   2.494
19365WAT     H258338   7.977   7.422   2.615
19366WAT      O58339   2.938   5.612   9.330
19366WAT     H158340   2.908   5.527   9.372
19366WAT     H258341   2.858   5.659   9.291
19367WAT      O58342   8.210   5.605   5.311
19367WAT     H158343   8.180   5.513   5.335
19367WAT     H258344   8.310   5.609   5.313
19368WAT      O58345   6.302   5.553   2.124
19368WAT     H158346   6.376   5.536   2.189
19368WAT     H258347   6.316   5.642   2.080
19369WAT      O58348   1.313   9.377   0.682
19369WAT     H158349   1.280   9.362   0.775
19369WAT     H258350   1.347   9.471   0.674
19370WAT      O58351   0.578   3.651   7.135
19370WAT     H158352   0.496   3.670   7.080
19370WAT     H258353   0.657   3.696   7.092
19371WAT      O58354   4.221   4.890   9.481
19371WAT     H158355   4.124   4.906   9.501
19371WAT     H258356   4.268   4.864   9.566
19372WAT      O58357   3.567   1.540   3.222
19372WAT     H158358   3.503   1.614   3.246
19372WAT     H258359   3.562   1.468   3.291
19373WAT      O58360   9.347   3.652   1.701
19373WAT     H158361   9.417   3.720   1.681
19373WAT     H258362   9.261   3.679   1.658
19374WAT      O58363   7.874   0.995   5.179
19374WAT     H158364   7.841   1.088   5.160
19374WAT     H258365   7.795   0.935   5.194
19375WAT      O58366   1.201   7.011   6.837
19375WAT     H158367   1.281   6.953   6.821
19375WAT     H258368   1.125   6.980   6.778
19376WAT      O58369   3.819   4.707   0.211
19376WAT     H158370   3.755   4.686   0.137
19376WAT     H258371   3.769   4.712   0.297
19377WAT      O58372   7.163   7.519   7.021
19377WAT     H158373   7.221   7.601   7.020
19377WAT     H258374   7.127   7.506   7.114
19378WAT      O58375   1.976   3.736   3.913
19378WAT     H158376   1.949   3.640   3.907
19378WAT     H258377   1.946   3.774   4.000
19379WAT      O58378   4.309   0.365   7.291
19379WAT     H158379   4.323   0.444   7.232
19379WAT     H258380   4.397   0.334   7.327
19380WAT      O58381   9.718   6.985   9.578
19380WAT     H158382   9.666   6.912   9.622
19380WAT     H258383   9.726   6.967   9.480
19381WAT      O58384   1.208   1.587   8.927
19381WAT     H158385   1.227   1.589   8.829
19381WAT     H258386   1.191   1.680   8.959
19382WAT      O58387   9.236   5.045   6.628
19382WAT     H158388   9.180   5.105   6.685
19382WAT     H258389   9.177   4.980   6.580
19383WAT      O58390   5.703   5.410   6.825
19383WAT     H158391   5.680   5.499   6.787
19383WAT     H258392   5.619   5.356   6.837
19384WAT      O58393   3.122   2.591   9.834
19384WAT     H158394   3.045   2.559   9.780
19384WAT     H258395   3.127   2.539   9.919
19385WAT      O58396   9.565   0.974   7.102
19385WAT     H158397   9.537   1.056   7.052
19385WAT     H258398   9.638   0.928   7.052
19386WAT      O58399   5.287   2.568   3.431
19386WAT     H158400   5.373   2.561   3.380
19386WAT     H258401   5.247   2.477   3.440
19387WAT      O58402   6.079   2.060   9.369
19387WAT     H158403   6.027   2.099   9.292
19387WAT     H258404   6.038   2.089   9.455
19388WAT      O58405   0.563   0.424   1.959
19388WAT     H158406   0.501   0.453   1.886
19388WAT     H258407   0.654   0.407   1.921
19389WAT      O58408   2.748   5.790   9.220
19389WAT     H158409   2.827   5.851   9.223
19389WAT     H258410   2.665   5.843   9.241
19390WAT      O58411   9.747   2.199   1.080
19390WAT     H158412   9.662   2.235   1.041
19390WAT     H258413   9.818   2.269   1.073
19391WAT      O58414   0.980   6.635   3.017
19391WAT     H158415   0.945   6.717   3.063
19391WAT     H258416   0.903   6.583   2.979
19392WAT      O58417   2.343   4.546   1.768
19392WAT     H158418   2.288   4.478   1.720
19392WAT     H258419   2.366   4.621   1.706
19393WAT      O58420   7.589   2.163   1.649
19393WAT     H158421   7.504   2.111   1.653
19393WAT     H258422   7.630   2.154   1.558
19394WAT      O58423   3.625   2.310   3.955
19394WAT     H158424   3.532   2.347   3.959
19394WAT     H258425   3.672   2.347   3.874
19395WAT      O58426   2.944   8.268   6.147
19395WAT     H158427   3.002   8.210   6.090
19395WAT     H258428   3.001   8.332   6.198
19396WAT      O58429   8.501   4.017   6.813
19396WAT     H158430   8.539   4.071   6.888
19396WAT     H258431   8.513   4.067   6.727
19397WAT      O58432   9.640   1.608   9.079
19397WAT     H158433   9.721   1.601   9.138
19397WAT     H258434   9.626   1.703   9.054
19398WAT      O58435   5.552   8.342   3.171
19398WAT     H158436   5.581   8.413   3.235
19398WAT     H258437   5.593   8.255   3.197
19399WAT      O58438   7.410   6.333   7.744
19399WAT     H158439   7.421   6.431   7.757
19399WAT     H258440   7.335   6.317   7.679
19400WAT      O58441   5.276   0.546   2.933
19400WAT     H158442   5.181   0.528   2.957
19400WAT     H258443   5.281   0.626   2.874
19401WAT      O58444   9.777   1.194   0.103
19401WAT     H158445   9.747   1.107   0.063
19401WAT     H258446   9.865   1.179   0.149
19402WAT      O58447   9.708   0.813   5.453
19402WAT     H158448   9.629   0.769   5.494
19402WAT     H258449   9.790   0.759   5.472
19403WAT      O58450   2.275   2.991   0.958
19403WAT     H158451   2.209   2.919   0.940
19403WAT     H258452   2.346   2.957   1.021
19404WAT      O58453   8.445   8.408   2.602
19404WAT     H158454   8.418   8.363   2.687
19404WAT     H258455   8.452   8.339   2.529
19405WAT      O58456   9.879   7.361   3.814
19405WAT     H158457   9.876   7.344   3.715
19405WAT     H258458   9.794   7.330   3.856
19406WAT      O58459   6.522   4.808   3.736
19406WAT     H158460   6.599   4.872   3.744
19406WAT     H258461   6.550   4.728   3.683
19407WAT      O58462   7.007   9.577   8.433
19407WAT     H158463   6.978   9.599   8.339
19407WAT     H258464   6.933   9.599   8.496
19408WAT      O58465   2.871   8.792   1.225
19408WAT     H158466   2.860   8.771   1.322
19408WAT     H258467   2.802   8.744   1.172
19409WAT      O58468   0.533   5.637   8.207
19409WAT     H158469   0.470   5.573   8.162
19409WAT     H258470   0.627   5.607   8.191
19410WAT      O58471   9.102   1.459   2.935
19410WAT     H158472   9.108   1.396   2.857
19410WAT     H258473   9.131   1.411   3.018
19411WAT      O58474   5.724   6.381   6.429
19411WAT     H158475   5.798   6.371   6.496
19411WAT     H258476   5.750   6.336   6.344
19412WAT      O58477   6.644   4.100   0.103
19412WAT     H158478   6.559   4.116   0.053
19412WAT     H258479   6.624   4.054   0.190
19413WAT      O58480   4.697   7.011   5.742
19413WAT     H158481   4.710   6.970   5.652
19413WAT     H258482   4.719   6.943   5.812
19414WAT      O58483   9.312   1.024   5.452
19414WAT     H158484   9.220   1.013   5.415
19414WAT     H258485   9.370   0.949   5.420
19415WAT      O58486   4.129   0.088   7.086
19415WAT     H158487   4.073   0.015   7.126
19415WAT     H258488   4.078   0.174   7.090
19416WAT      O58489   8.514   2.551   1.668
19416WAT     H158490   8.521   2.481   1.597
19416WAT     H258491   8.556   2.518   1.752
19417WAT      O58492   4.856   3.386   3.657
19417WAT     H158493   4.848   3.401   3.559
19417WAT     H258494   4.952   3.374   3.682
19418WAT      O58495   4.570   9.508   9.736
19418WAT     H158496   4.480   9.498   9.779
19418WAT     H258497   4.637   9.455   9.788
19419WAT      O58498   7.464   8.430   0.689
19419WAT     H158499   7.507   8.487   0.759
19419WAT     H258500   7.364   8.437   0.697
19420WAT      O58501   2.117   2.188   8.683
19420WAT     H158502   2.151   2.140   8.763
19420WAT     H258503   2.166   2.156   8.602
19421WAT      O58504   4.494   4.293   8.214
19421WAT     H158505   4.406   4.260   8.181
19421WAT     H258506   4.509   4.261   8.308
19422WAT      O58507   1.074   3.662   8.383
19422WAT     H158508   1.098   3.566   8.401
19422WAT     H258509   1.158   3.715   8.367
19423WAT      O58510   4.670   9.441   5.078
19423WAT     H158511   4.622   9.406   5.159
19423WAT     H258512   4.759   9.479   5.105
19424WAT      O58513   0.334   7.845   2.702
19424WAT     H158514   0.255   7.790   2.676
19424WAT     H258515   0.407   7.786   2.735
19425WAT      O58516   8.086   4.262   9.636
19425WAT     H158517   7.999   4.215   9.647
19425WAT     H258518   8.161   4.199   9.654
19426WAT      O58519   0.391   7.297   6.918
19426WAT     H158520   0.481   7.280   6.958
19426WAT     H258521   0.353   7.212   6.883
19427WAT      O58522   2.355   8.635   6.880
19427WAT     H158523   2.449   8.668   6.875
19427WAT     H258524   2.300   8.699   6.934
19428WAT      O58525   3.027   4.025   2.744
19428WAT     H158526   3.050   4.122   2.738
19428WAT     H258527   2.927   4.015   2.749
19429WAT      O58528   6.459   3.294   8.304
19429WAT     H158529   6.437   3.223   8.371
19429WAT     H258530   6.543   3.341   8.332
19430WAT      O58531   7.233   2.820   3.872
19430WAT     H158532   7.243   2.887   3.945
19430WAT     H258533   7.238   2.867   3.783
19431WAT      O58534   2.201   7.769   4.028
19431WAT     H158535   2.266   7.694   4.038
19431WAT     H258536   2.110   7.738   4.056
19432WAT      O58537   0.221   7.464   7.059
19432WAT     H158538   0.224   7.556   7.099
19432WAT     H258539   0.312   7.441   7.023
19433WAT      O58540   1.351   0.554   5.402
19433WAT     H158541   1.334   0.612   5.481
19433WAT     H258542   1.285   0.576   5.329
19434WAT      O58543   5.637   3.918   9.746
19434WAT     H158544   5.680   3.873   9.825
19434WAT     H258545   5.683   3.890   9.662
19435WAT      O58546   1.520   3.420   2.300
19435WAT     H158547   1.420   3.406   2.301
19435WAT     H258548   1.564   3.337   2.266
19436WAT      O58549   4.990   4.902   2.525
19436WAT     H158550   4.990   4.979   2.461
19436WAT     H258551   4.969   4.818   2.476
19437WAT      O58552   5.344   2.148   2.866
19437WAT     H158553   5.348   2.087   2.944
19437WAT     H258554   5.413   2.220   2.876
19438WAT      O58555   5.791   8.344   8.854
19438WAT     H158556   5.739   8.359   8.770
19438WAT     H258557   5.728   8.327   8.930
19439WAT      O58558   8.554   6.477   9.222
19439WAT     H158559   8.573   6.414   9.147
19439WAT     H258560   8.457   6.476   9.243
19440WAT      O58561   2.183   2.332   8.309
19440WAT     H158562   2.235   2.260   8.354
19440WAT     H258563   2.246   2.395   8.263
19441WAT      O58564   5.807   2.911   5.057
19441WAT     H158565   5.773   2.841   4.993
19441WAT     H258566   5.743   2.988   5.059
19442WAT      O58567   2.285   5.109   3.696
19442WAT     H158568   2.306   5.206   3.699
19442WAT     H258569   2.197   5.093   3.743
19443WAT      O58570   3.323   1.776   4.803
19443WAT     H158571   3.309   1.797   4.706
19443WAT     H258572   3.402   1.716   4.813
19444WAT      O58573   6.462   9.167   7.860
19444WAT     H158574   6.471   9.084   7.804
19444WAT     H258575   6.371   9.169   7.902
19445WAT      O58576   9.062   1.982   7.729
19445WAT     H158577   9.003   1.938   7.661
19445WAT     H258578   9.155   1.988   7.693
19446WAT      O58579   3.392   7.731   2.835
19446WAT     H158580   3.421   7.731   2.739
19446WAT     H258581   3.470   7.711   2.894
19447WAT      O58582   3.064   4.952   0.527
19447WAT     H158583   3.075   4.856   0.552
19447WAT     H258584   3.029   4.959   0.434
19448WAT      O58585   5.006   7.371   6.386
19448WAT     H158586   5.061   7.446   6.350
19448WAT     H258587   5.052   7.284   6.367
19449WAT      O58588   9.154   0.303   1.842
19449WAT     H158589   9.212   0.329   1.920
19449WAT     H258590   9.121   0.210   1.854
19450WAT      O58591   2.374   6.014   7.539
19450WAT     H158592   2.351   5.943   7.606
19450WAT     H258593   2.307   6.012   7.465
19451WAT      O58594   6.906   3.421   8.866
19451WAT     H158595   6.895   3.334   8.914
19451WAT     H258596   6.936   3.491   8.930
19452WAT      O58597   0.579   7.695   6.767
19452WAT     H158598   0.522   7.649   6.698
19452WAT     H258599   0.631   7.768   6.723
19453WAT      O58600   8.911   3.797   7.423
19453WAT     H158601   8.887   3.720   7.364
19453WAT     H258602   9.001   3.781   7.464
19454WAT      O58603   0.542   2.047   8.249
19454WAT     H158604   0.576   2.042   8.343
19454WAT     H258605   0.585   2.125   8.202
19455WAT      O58606   5.126   1.356   7.039
19455WAT     H158607   5.047   1.366   6.978
19455WAT     H258608   5.164   1.264   7.031
19456WAT      O58609   1.668   4.589   1.522
19456WAT     H158610   1.719   4.532   1.587
19456WAT     H258611   1.673   4.548   1.431
19457WAT      O58612   2.055   8.859   9.854
19457WAT     H158613   2.057   8.828   9.949
19457WAT     H258614   2.149   8.862   9.818
19458WAT      O58615   4.643   4.198   2.836
19458WAT     H158616   4.626   4.267   2.907
19458WAT     H258617   4.735   4.211   2.799
19459WAT      O58618   0.648   8.252   3.183
19459WAT     H158619   0.560   8.270   3.229
19459WAT     H258620   0.665   8.325   3.116
19460WAT      O58621   2.470   8.067   2.401
19460WAT     H158622   2.537   8.099   2.468
19460WAT     H258623   2.436   7.977   2.428
19461WAT      O58624   7.697   8.370   7.745
19461WAT     H158625   7.636   8.420   7.683
19461WAT     H258626   7.729   8.287   7.701
19462WAT      O58627   6.005   4.447   0.209
19462WAT     H158628   6.036   4.446   0.113
19462WAT     H258629   6.013   4.540   0.244
19463WAT      O58630   7.365   1.858   9.811
19463WAT     H158631   7.361   1.807   9.725
19463WAT     H258632   7.322   1.804   9.884
19464WAT      O58633   2.982   8.626   6.097
19464WAT     H158634   2.899   8.612   6.152
19464WAT     H258635   3.061   8.633   6.158
19465WAT      O58636   6.854   4.693   8.484
19465WAT     H158637   6.768   4.668   8.529
19465WAT     H258638   6.858   4.651   8.394
19466WAT      O58639   2.283   4.397   3.165
19466WAT     H158640   2.203   4.441   3.122
19466WAT     H258641   2.312   4.320   3.109
19467WAT      O58642   0.659   0.232   2.844
19467WAT     H158643   0.744   0.180   2.847
19467WAT     H258644   0.663   0.298   2.769
19468WAT      O58645   4.748   9.185   8.135
19468WAT     H158646   4.750   9.285   8.137
19468WAT     H258647   4.723   9.154   8.043
19469WAT      O58648   4.593   8.457   2.178
19469WAT     H158649   4.599   8.474   2.080
19469WAT     H258650   4.681   8.476   2.221
19470WAT      O58651   6.524   4.711   0.349
19470WAT     H158652   6.577   4.727   0.266
19470WAT     H258653   6.585   4.704   0.428
19471WAT      O58654   2.602   8.925   0.322
19471WAT     H158655   2.633   8.948   0.414
19471WAT     H258656   2.680   8.892   0.268
19472WAT      O58657   4.828   0.967   1.112
19472WAT     H158658   4.846   1.006   1.022
19472WAT     H258659   4.730   0.959   1.127
19473WAT      O58660   5.668   9.053   3.926
19473WAT     H158661   5.613   9.040   4.008
19473WAT     H258662   5.754   9.097   3.950
19474WAT      O58663   5.668   2.298   1.368
19474WAT     H158664   5.647   2.201   1.361
19474WAT     H258665   5.585   2.348   1.396
19475WAT      O58666   2.535   5.992   6.567
19475WAT     H158667   2.465   5.964   6.502
19475WAT     H258668   2.624   5.958   6.536
19476WAT      O58669   0.709   7.509   6.436
19476WAT     H158670   0.625   7.562   6.452
19476WAT     H258671   0.760   7.501   6.521
19477WAT      O58672   5.553   1.978   8.822
19477WAT     H158673   5.540   1.918   8.744
19477WAT     H258674   5.614   1.934   8.888
19478WAT      O58675   8.420   3.588   3.971
19478WAT     H158676   8.400   3.506   4.025
19478WAT     H258677   8.354   3.659   3.993
19479WAT      O58678   1.221   0.643   1.474
19479WAT     H158679   1.293   0.577   1.495
19479WAT     H258680   1.165   0.608   1.399
19480WAT      O58681   9.710   5.337   7.799
19480WAT     H158682   9.805   5.317   7.776
19480WAT     H258683   9.667   5.386   7.724
19481WAT      O58684   2.863   0.067   3.463
19481WAT     H158685   2.894  -0.025   3.485
19481WAT     H258686   2.930   0.134   3.496
19482WAT      O58687   2.475   7.959   9.099
19482WAT     H158688   2.574   7.960   9.106
19482WAT     H258689   2.448   7.938   9.005
19483WAT      O58690   3.954   6.252   5.558
19483WAT     H158691   3.993   6.173   5.606
19483WAT     H258692   3.945   6.230   5.461
19484WAT      O58693   7.939   6.455   1.479
19484WAT     H158694   7.878   6.528   1.447
19484WAT     H258695   7.890   6.396   1.542
19485WAT      O58696   1.237   6.346   6.797
19485WAT     H158697   1.324   6.299   6.813
19485WAT     H258698   1.249   6.414   6.725
19486WAT      O58699   7.880   8.508   5.960
19486WAT     H158700   7.894   8.606   5.946
19486WAT     H258701   7.911   8.458   5.879
19487WAT      O58702   7.742   0.074   4.089
19487WAT     H158703   7.759   0.146   4.022
19487WAT     H258704   7.692   0.111   4.166
19488WAT      O58705   3.175   8.381   8.817
19488WAT     H158706   3.111   8.454   8.839
19488WAT     H258707   3.266   8.419   8.801
19489WAT      O58708   9.686   6.883   3.380
19489WAT     H158709   9.646   6.915   3.465
19489WAT     H258710   9.705   6.785   3.386
19490WAT      O58711   3.332   4.728   1.996
19490WAT     H158712   3.375   4.818   2.005
19490WAT     H258713   3.233   4.739   1.992
19491WAT      O58714   1.837   1.142   2.040
19491WAT     H158715   1.787   1.067   1.999
19491WAT     H258716   1.773   1.208   2.079
19492WAT      O58717   8.298   3.004   5.843
19492WAT     H158718   8.352   2.937   5.894
19492WAT     H258719   8.230   3.044   5.904
19493WAT      O58720   4.488   3.439   9.522
19493WAT     H158721   4.445   3.453   9.432
19493WAT     H258722   4.419   3.408   9.587
19494WAT      O58723   1.609   8.472   8.027
19494WAT     H158724   1.695   8.511   7.995
19494WAT     H258725   1.606   8.476   8.127
19495WAT      O58726   3.262   5.268   5.798
19495WAT     H158727   3.243   5.280   5.701
19495WAT     H258728   3.306   5.180   5.813
19496WAT      O58729   2.100   0.775   2.199
19496WAT     H158730   2.107   0.795   2.101
19496WAT     H258731   2.059   0.853   2.246
19497WAT      O58732   2.794   6.368   5.181
19497WAT     H158733   2.806   6.461   5.216
19497WAT     H258734   2.857   6.352   5.105
19498WAT      O58735   4.674   9.072   1.506
19498WAT     H158736   4.594   9.131   1.494
19498WAT     H258737   4.726   9.069   1.420
19499WAT      O58738   2.952   5.175   8.364
19499WAT     H158739   2.937   5.173   8.462
19499WAT     H258740   2.974   5.083   8.332
19500WAT      O58741   8.168   4.242   3.360
19500WAT     H158742   8.253   4.274   3.402
19500WAT     H258743   8.151   4.293   3.275
19501WAT      O58744   1.861   0.746   1.611
19501WAT     H158745   1.798   0.755   1.533
19501WAT     H258746   1.880   0.649   1.627
19502WAT      O58747   4.308   8.422   9.773
19502WAT     H158748   4.321   8.323   9.777
19502WAT     H258749   4.256   8.452   9.853
19503WAT      O58750   5.713   5.107   0.756
19503WAT     H158751   5.704   5.031   0.820
19503WAT     H258752   5.623   5.130   0.718
19504WAT      O58753   8.976   6.812   5.239
19504WAT     H158754   8.897   6.752   5.222
19504WAT     H258755   9.014   6.791   5.329
19505WAT      O58756   3.966   8.579   2.076
19505WAT     H158757   3.888   8.541   2.026
19505WAT     H258758   3.987   8.670   2.042
19506WAT      O58759   9.119   2.930   8.061
19506WAT     H158760   9.031   2.886   8.079
19506WAT     H258761   9.128   2.947   7.963
19507WAT      O58762   3.497   4.968   0.412
19507WAT     H158763   3.590   5.004   0.408
19507WAT     H258764   3.480   4.911   0.332
19508WAT      O58765   7.290   0.501   5.256
19508WAT     H158766   7.305   0.442   5.176
19508WAT     H258767   7.193   0.523   5.264
19509WAT      O58768   8.701   2.886   6.522
19509WAT     H158769   8.641   2.921   6.450
19509WAT     H258770   8.663   2.911   6.612
19510WAT      O58771   5.528   8.169   4.943
19510WAT     H158772   5.525   8.136   4.848
19510WAT     H258773   5.549   8.093   5.004
19511WAT      O58774   7.281   0.113   3.504
19511WAT     H158775   7.200   0.159   3.540
19511WAT     H258776   7.336   0.078   3.580
19512WAT      O58777   7.211   9.653   3.461
19512WAT     H158778   7.113   9.655   3.439
19512WAT     H258779   7.238   9.741   3.500
19513WAT      O58780   5.309   9.826   3.758
19513WAT     H158781   5.265   9.900   3.707
19513WAT     H258782   5.382   9.863   3.814
19514WAT      O58783   1.581   7.301   2.845
19514WAT     H158784   1.554   7.205   2.841
19514WAT     H258785   1.648   7.314   2.918
19515WAT      O58786   9.529   7.699   4.690
19515WAT     H158787   9.447   7.685   4.635
19515WAT     H258788   9.558   7.794   4.683
19516WAT      O58789   2.853   8.466   3.322
19516WAT     H158790   2.771   8.448   3.376
19516WAT     H258791   2.923   8.398   3.344
19517WAT      O58792   5.945   3.444   9.052
19517WAT     H158793   6.021   3.493   9.010
19517WAT     H258794   5.859   3.481   9.017
19518WAT      O58795   9.808   3.710   5.987
19518WAT     H158796   9.855   3.728   6.074
19518WAT     H258797   9.710   3.726   5.999
19519WAT      O58798   1.330   2.733   4.313
19519WAT     H158799   1.357   2.828   4.304
19519WAT     H258800   1.410   2.674   4.296
19520WAT      O58801   6.031   9.498   0.803
19520WAT     H158802   5.993   9.444   0.877
19520WAT     H258803   6.061   9.437   0.729
19521WAT      O58804   0.728   4.213   5.101
19521WAT     H158805   0.638   4.179   5.129
19521WAT     H258806   0.731   4.312   5.113
19522WAT      O58807   5.948   9.233   3.051
19522WAT     H158808   5.889   9.155   3.028
19522WAT     H258809   6.032   9.229   2.996
19523WAT      O58810   3.278   0.572   0.519
19523WAT     H158811   3.208   0.622   0.570
19523WAT     H258812   3.304   0.490   0.571
19524WAT      O58813   5.847   9.170   5.099
19524WAT     H158814   5.919   9.203   5.037
19524WAT     H258815   5.858   9.215   5.188
19525WAT      O58816   6.874   8.819   5.080
19525WAT     H158817   6.952   8.863   5.036
19525WAT     H258818   6.867   8.848   5.175
19526WAT      O58819   6.668   3.697   8.079
19526WAT     H158820   6.581   3.677   8.036
19526WAT     H258821   6.663   3.786   8.126
19527WAT      O58822   0.776   2.585   3.478
19527WAT     H158823   0.702   2.579   3.410
19527WAT     H258824   0.776   2.676   3.519
19528WAT      O58825   1.338   5.474   9.251
19528WAT     H158826   1.364   5.378   9.252
19528WAT     H258827   1.308   5.500   9.159
19529WAT      O58828   2.434   9.812   7.086
19529WAT     H158829   2.356   9.844   7.033
19529WAT     H258830   2.426   9.714   7.103
19530WAT      O58831   2.152   4.671   2.616
19530WAT     H158832   2.094   4.606   2.664
19530WAT     H258833   2.113   4.690   2.526
19531WAT      O58834   8.428   8.637   7.184
19531WAT     H158835   8.339   8.598   7.208
19531WAT     H258836   8.500   8.578   7.220
19532WAT      O58837   1.645   1.086   3.039
19532WAT     H158838   1.656   1.020   3.113
19532WAT     H258839   1.610   1.039   2.958
19533WAT      O58840   7.055   8.337   5.878
19533WAT     H158841   7.151   8.361   5.890
19533WAT     H258842   7.037   8.249   5.921
19534WAT      O58843   6.918   8.567   5.818
19534WAT     H158844   6.950   8.481   5.859
19534WAT     H258845   6.915   8.558   5.719
19535WAT      O58846   3.145   4.307   4.751
19535WAT     H158847   3.172   4.390   4.801
19535WAT     H258848   3.123   4.331   4.657
19536WAT      O58849   7.580   0.192   3.150
19536WAT     H158850   7.571   0.253   3.072
19536WAT     H258851   7.493   0.146   3.167
19537WAT      O58852   1.493   8.068   3.856
19537WAT     H158853   1.505   7.975   3.824
19537WAT     H258854   1.403   8.102   3.830
19538WAT      O58855   5.715   8.641   0.054
19538WAT     H158856   5.739   8.558   0.004
19538WAT     H258857   5.661   8.701  -0.006
19539WAT      O58858   4.243   4.421   9.637
19539WAT     H158859   4.235   4.339   9.581
19539WAT     H258860   4.236   4.503   9.580
19540WAT      O58861   8.180   5.215   4.647
19540WAT     H158862   8.140   5.137   4.600
19540WAT     H258863   8.117   5.293   4.643
19541WAT      O58864   7.237   4.960   4.556
19541WAT     H158865   7.147   4.974   4.514
19541WAT     H258866   7.301   5.026   4.518
19542WAT      O58867   9.033   2.588   6.897
19542WAT     H158868   8.952   2.543   6.859
19542WAT     H258869   9.005   2.650   6.970
19543WAT      O58870   6.284   4.003   1.752
19543WAT     H158871   6.273   3.923   1.692
19543WAT     H258872   6.250   4.085   1.706
19544WAT      O58873   5.855   7.870   4.084
19544WAT     H158874   5.876   7.846   3.989
19544WAT     H258875   5.941   7.886   4.134
19545WAT      O58876   0.759   8.314   9.203
19545WAT     H158877   0.804   8.367   9.130
19545WAT     H258878   0.789   8.219   9.198
19546WAT      O58879   8.128   7.037   0.146
19546WAT     H158880   8.178   6.965   0.098
19546WAT     H258881   8.192   7.108   0.175
19547WAT      O58882   3.402   8.397   5.661
19547WAT     H158883   3.435   8.489   5.679
19547WAT     H258884   3.325   8.376   5.722
19548WAT      O58885   1.901   7.445   7.354
19548WAT     H158886   1.987   7.427   7.401
19548WAT     H258887   1.863   7.533   7.385
19549WAT      O58888   4.124   0.681   2.377
19549WAT     H158889   4.153   0.679   2.472
19549WAT     H258890   4.166   0.605   2.328
19550WAT      O58891   1.809   8.010   4.095
19550WAT     H158892   1.750   8.065   4.155
19550WAT     H258893   1.815   7.917   4.130
19551WAT      O58894   2.029   6.872   8.677
19551WAT     H158895   2.097   6.907   8.612
19551WAT     H258896   2.076   6.828   8.753
19552WAT      O58897   5.543   5.559   9.782
19552WAT     H158898   5.457   5.516   9.756
19552WAT     H258899   5.619   5.512   9.737
19553WAT      O58900   9.408   0.163   2.150
19553WAT     H158901   9.477   0.095   2.125
19553WAT     H258902   9.431   0.203   2.238
19554WAT      O58903   5.854   2.577   6.349
19554WAT     H158904   5.823   2.654   6.294
19554WAT     H258905   5.837   2.492   6.300
19555WAT      O58906   5.445   9.740   8.688
19555WAT     H158907   5.356   9.723   8.646
19555WAT     H258908   5.514   9.753   8.617
19556WAT      O58909   7.034   3.480   5.151
19556WAT     H158910   6.952   3.520   5.193
19556WAT     H258911   7.057   3.530   5.068
19557WAT      O58912   3.414   8.584   2.263
19557WAT     H158913   3.448   8.635   2.184
19557WAT     H258914   3.342   8.636   2.308
19558WAT      O58915   4.221   4.395   7.534
19558WAT     H158916   4.163   4.340   7.473
19558WAT     H258917   4.163   4.454   7.590
19559WAT      O58918   6.332   4.415   2.211
19559WAT     H158919   6.244   4.432   2.256
19559WAT     H258920   6.319   4.413   2.112
19560WAT      O58921   1.454   4.930   5.057
19560WAT     H158922   1.360   4.920   5.089
19560WAT     H258923   1.517   4.925   5.134
19561WAT      O58924   1.604   7.396   0.473
19561WAT     H158925   1.668   7.376   0.399
19561WAT     H258926   1.584   7.494   0.474
19562WAT      O58927   2.424   7.804   2.784
19562WAT     H158928   2.360   7.742   2.831
19562WAT     H258929   2.436   7.887   2.839
19563WAT      O58930   7.969   1.011   7.434
19563WAT     H158931   8.038   1.022   7.505
19563WAT     H258932   7.880   0.994   7.477
19564WAT      O58933   1.618   4.792   4.868
19564WAT     H158934   1.690   4.762   4.931
19564WAT     H258935   1.531   4.798   4.916
19565WAT      O58936   7.419   1.487   8.307
19565WAT     H158937   7.467   1.450   8.227
19565WAT     H258938   7.344   1.426   8.331
19566WAT      O58939   1.530   9.266   4.314
19566WAT     H158940   1.491   9.261   4.222
19566WAT     H258941   1.546   9.362   4.338
19567WAT      O58942   0.254   0.043   3.553
19567WAT     H158943   0.158   0.036   3.582
19567WAT     H258944   0.308   0.078   3.629
19568WAT      O58945   6.314   2.232   4.045
19568WAT     H158946   6.258   2.162   4.002
19568WAT     H258947   6.257   2.289   4.104
19569WAT      O58948   0.835   5.400   2.080
19569WAT     H158949   0.736   5.410   2.080
19569WAT     H258950   0.860   5.315   2.127
19570WAT      O58951   4.781   7.968   2.025
19570WAT     H158952   4.683   7.952   2.018
19570WAT     H258953   4.799   8.028   2.103
19571WAT      O58954   2.204   8.604   2.811
19571WAT     H158955   2.214   8.526   2.874
19571WAT     H258956   2.124   8.658   2.838
19572WAT      O58957   9.835   1.919   6.567
19572WAT     H158958   9.927   1.883   6.548
19572WAT     H258959   9.833   2.017   6.545
19573WAT      O58960   4.945   6.454   7.231
19573WAT     H158961   4.954   6.423   7.325
19573WAT     H258962   4.953   6.554   7.227
19574WAT      O58963   3.711   8.518   7.952
19574WAT     H158964   3.636   8.509   7.886
19574WAT     H258965   3.675   8.553   8.038
19575WAT      O58966   7.528   5.752   3.125
19575WAT     H158967   7.606   5.795   3.170
19575WAT     H258968   7.561   5.691   3.053
19576WAT      O58969   2.220   0.289   3.341
19576WAT     H158970   2.146   0.336   3.389
19576WAT     H258971   2.194   0.275   3.245
19577WAT      O58972   5.744   0.022   7.124
19577WAT     H158973   5.791   0.073   7.196
19577WAT     H258974   5.645   0.037   7.131
19578WAT      O58975   7.808   5.349   8.467
19578WAT     H158976   7.786   5.422   8.403
19578WAT     H258977   7.737   5.278   8.463
19579WAT      O58978   5.111   0.953   0.143
19579WAT     H158979   5.156   1.029   0.096
19579WAT     H258980   5.053   0.989   0.216
19580WAT      O58981   8.772   1.849   5.146
19580WAT     H158982   8.824   1.784   5.091
19580WAT     H258983   8.827   1.877   5.225
19581WAT      O58984   3.655   4.089   3.650
19581WAT     H158985   3.721   4.141   3.704
19581WAT     H258986   3.699   4.053   3.568
19582WAT      O58987   0.390   9.567   5.863
19582WAT     H158988   0.421   9.480   5.903
19582WAT     H258989   0.319   9.548   5.796
19583WAT      O58990   4.776   8.016   5.584
19583WAT     H158991   4.721   7.997   5.665
19583WAT     H258992   4.759   7.945   5.515
19584WAT      O58993   7.377   9.515   5.704
19584WAT     H158994   7.404   9.421   5.725
19584WAT     H258995   7.309   9.515   5.631
19585WAT      O58996   4.135   5.964   9.373
19585WAT     H158997   4.164   6.020   9.450
19585WAT     H258998   4.107   6.024   9.297
19586WAT      O58999   1.087   4.107   6.903
19586WAT     H159000   0.988   4.120   6.895
19586WAT     H259001   1.125   4.085   6.813
19587WAT      O59002   7.105   1.901   5.534
19587WAT     H159003   7.096   1.806   5.504
19587WAT     H259004   7.186   1.910   5.592
19588WAT      O59005   5.593   3.160   5.046
19588WAT     H159006   5.650   3.226   4.997
19588WAT     H259007   5.518   3.131   4.986
19589WAT      O59008   8.580   8.277   8.577
19589WAT     H159009   8.674   8.311   8.580
19589WAT     H259010   8.538   8.289   8.667
19590WAT      O59011   3.474   3.360   1.881
19590WAT     H159012   3.436   3.452   1.878
19590WAT     H259013   3.514   3.343   1.971
19591WAT      O59014   4.863   9.203   9.371
19591WAT     H159015   4.911   9.162   9.448
19591WAT     H259016   4.807   9.279   9.403
19592WAT      O59017   8.779   3.559   5.604
19592WAT     H159018   8.806   3.507   5.523
19592WAT     H259019   8.680   3.570   5.605
19593WAT      O59020   3.191   4.115   3.930
19593WAT     H159021   3.243   4.034   3.955
19593WAT     H259022   3.169   4.111   3.833
19594WAT      O59023   8.152   8.914   9.346
19594WAT     H159024   8.249   8.920   9.323
19594WAT     H259025   8.142   8.864   9.432
19595WAT      O59026   9.006   4.879   3.587
19595WAT     H159027   9.090   4.921   3.623
19595WAT     H259028   8.963   4.942   3.522
19596WAT      O59029   5.683   5.130   2.720
19596WAT     H159030   5.684   5.077   2.635
19596WAT     H259031   5.773   5.171   2.735
19597WAT      O59032   3.734   6.868   4.389
19597WAT     H159033   3.731   6.817   4.303
19597WAT     H259034   3.820   6.920   4.394
19598WAT      O59035   9.172   0.838   8.635
19598WAT     H159036   9.076   0.820   8.613
19598WAT     H259037   9.211   0.757   8.680
19599WAT      O59038   1.300   8.970   8.114
19599WAT     H159039   1.377   8.989   8.174
19599WAT     H259040   1.330   8.913   8.038
19600WAT      O59041   8.154   5.514   7.778
19600WAT     H159042   8.090   5.493   7.852
19600WAT     H259043   8.133   5.458   7.698
19601WAT      O59044   4.691   2.935   4.494
19601WAT     H159045   4.729   2.868   4.558
19601WAT     H259046   4.636   2.887   4.426
19602WAT      O59047   8.733   5.831   2.173
19602WAT     H159048   8.791   5.757   2.140
19602WAT     H259049   8.638   5.811   2.148
19603WAT      O59050   0.270   3.174   0.048
19603WAT     H159051   0.272   3.177  -0.052
19603WAT     H259052   0.224   3.090   0.077
19604WAT      O59053   5.911   3.068   2.975
19604WAT     H159054   5.823   3.078   2.927
19604WAT     H259055   5.963   3.153   2.967
19605WAT      O59056   0.047   4.309   3.026
19605WAT     H159057   0.043   4.349   2.935
19605WAT     H259058  -0.030   4.248   3.040
19606WAT      O59059   5.524   0.006   4.967
19606WAT     H159060   5.572   0.093   4.956
19606WAT     H259061   5.590  -0.069   4.968
19607WAT      O59062   0.921   3.684   0.041
19607WAT     H159063   0.898   3.751  -0.029
19607WAT     H259064   1.018   3.659   0.034
19608WAT      O59065   5.437   0.283   5.673
19608WAT     H159066   5.393   0.268   5.585
19608WAT     H259067   5.401   0.366   5.715
19609WAT      O59068   4.474   6.443   2.931
19609WAT     H159069   4.554   6.384   2.925
19609WAT     H259070   4.435   6.456   2.840
19610WAT      O59071   7.325   4.925   5.256
19610WAT     H159072   7.268   5.007   5.264
19610WAT     H259073   7.271   4.850   5.216
19611WAT      O59074   6.169   5.118   0.730
19611WAT     H159075   6.195   5.205   0.773
19611WAT     H259076   6.080   5.128   0.687
19612WAT      O59077   5.089   2.732   4.859
19612WAT     H159078   4.993   2.734   4.831
19612WAT     H259079   5.132   2.648   4.825
19613WAT      O59080   6.644   0.568   5.947
19613WAT     H159081   6.595   0.503   6.005
19613WAT     H259082   6.654   0.530   5.855
19614WAT      O59083   8.382   0.834   9.839
19614WAT     H159084   8.290   0.831   9.878
19614WAT     H259085   8.450   0.834   9.912
19615WAT      O59086   8.028   2.993   0.482
19615WAT     H159087   8.062   3.081   0.448
19615WAT     H259088   8.103   2.942   0.523
19616WAT      O59089   4.063   8.394   1.678
19616WAT     H159090   4.070   8.396   1.778
19616WAT     H259091   3.981   8.445   1.650
19617WAT      O59092   2.121   4.154   0.955
19617WAT     H159093   2.157   4.233   0.905
19617WAT     H259094   2.159   4.070   0.916
19618WAT      O59095   0.595   2.306   8.817
19618WAT     H159096   0.553   2.395   8.800
19618WAT     H259097   0.651   2.280   8.739
19619WAT      O59098   6.993   4.856   6.109
19619WAT     H159099   6.908   4.809   6.132
19619WAT     H259100   7.006   4.856   6.010
19620WAT      O59101   5.392   7.500   0.996
19620WAT     H159102   5.332   7.496   0.916
19620WAT     H259103   5.488   7.494   0.966
19621WAT      O59104   8.779   9.563   2.643
19621WAT     H159105   8.750   9.634   2.578
19621WAT     H259106   8.878   9.550   2.636
19622WAT      O59107   7.834   3.574   4.593
19622WAT     H159108   7.767   3.520   4.542
19622WAT     H259109   7.826   3.553   4.691
19623WAT      O59110   9.455   3.362   8.318
19623WAT     H159111   9.480   3.458   8.304
19623WAT     H259112   9.358   3.349   8.300
19624WAT      O59113   7.510   0.776   0.269
19624WAT     H159114   7.541   0.683   0.290
19624WAT     H259115   7.429   0.797   0.324
19625WAT      O59116   3.602   5.563   8.057
19625WAT     H159117   3.549   5.510   8.123
19625WAT     H259118   3.600   5.660   8.081
19626WAT      O59119   3.472   1.625   8.553
19626WAT     H159120   3.515   1.537   8.574
19626WAT     H259121   3.542   1.691   8.526
19627WAT      O59122   4.061   8.595   2.671
19627WAT     H159123   4.126   8.558   2.604
19627WAT     H259124   4.062   8.694   2.667
19628WAT      O59125   9.386   9.054   5.174
19628WAT     H159126   9.367   9.150   5.191
19628WAT     H259127   9.379   9.003   5.260
19629WAT      O59128   6.210   3.643   6.401
19629WAT     H159129   6.170   3.638   6.310
19629WAT     H259130   6.216   3.552   6.440
19630WAT      O59131   8.418   6.032   7.790
19630WAT     H159132   8.365   6.035   7.706
19630WAT     H259133   8.495   5.969   7.778
19631WAT      O59134   3.024   4.306   6.240
19631WAT     H159135   3.004   4.217   6.199
19631WAT     H259136   2.970   4.377   6.194
19632WAT      O59137   7.301   9.760   5.824
19632WAT     H159138   7.326   9.676   5.775
19632WAT     H259139   7.290   9.835   5.759
19633WAT      O59140   1.379   2.171   8.749
19633WAT     H159141   1.363   2.120   8.665
19633WAT     H259142   1.292   2.209   8.782
19634WAT      O59143   2.554   4.270   8.192
19634WAT     H159144   2.627   4.332   8.165
19634WAT     H259145   2.543   4.199   8.123
19635WAT      O59146   2.423   8.597   2.423
19635WAT     H159147   2.346   8.552   2.469
19635WAT     H259148   2.388   8.663   2.356
19636WAT      O59149   1.217   2.307   2.697
19636WAT     H159150   1.247   2.391   2.743
19636WAT     H259151   1.117   2.308   2.690
19637WAT      O59152   3.451   5.871   4.582
19637WAT     H159153   3.506   5.945   4.544
19637WAT     H259154   3.412   5.817   4.507
19638WAT      O59155   8.488   4.892   1.872
19638WAT     H159156   8.487   4.857   1.778
19638WAT     H259157   8.495   4.816   1.936
19639WAT      O59158   2.464   3.710   5.087
19639WAT     H159159   2.519   3.781   5.042
19639WAT     H259160   2.524   3.634   5.114
19640WAT      O59161   8.842   8.432   7.847
19640WAT     H159162   8.853   8.354   7.909
19640WAT     H259163   8.749   8.469   7.855
19641WAT      O59164   4.005   2.099   6.049
19641WAT     H159165   4.050   2.168   5.992
19641WAT     H259166   4.043   2.102   6.141
19642WAT      O59167   3.528   7.658   9.060
19642WAT     H159168   3.569   7.727   9.002
19642WAT     H259169   3.470   7.702   9.129
19643WAT      O59170   8.168   2.032   4.268
19643WAT     H159171   8.168   2.127   4.300
19643WAT     H259172   8.135   2.028   4.174
19644WAT      O59173   2.422   1.567   0.188
19644WAT     H159174   2.415   1.659   0.225
19644WAT     H259175   2.428   1.501   0.263
19645WAT      O59176   6.913   4.576   7.871
19645WAT     H159177   6.938   4.617   7.783
19645WAT     H259178   6.977   4.502   7.893
19646WAT      O59179   1.817   7.584   5.820
19646WAT     H159180   1.734   7.628   5.786
19646WAT     H259181   1.846   7.514   5.756
19647WAT      O59182   4.881   1.009   8.890
19647WAT     H159183   4.971   1.012   8.934
19647WAT     H259184   4.892   0.993   8.792
19648WAT      O59185   2.738   8.020   9.141
19648WAT     H159186   2.758   8.113   9.112
19648WAT     H259187   2.800   7.956   9.095
19649WAT      O59188   9.067   0.466   3.288
19649WAT     H159189   9.047   0.554   3.245
19649WAT     H259190   9.123   0.481   3.370
19650WAT      O59191   6.139   8.475   9.307
19650WAT     H159192   6.097   8.422   9.233
19650WAT     H259193   6.187   8.413   9.369
19651WAT      O59194   2.295   7.005   6.113
19651WAT     H159195   2.279   6.927   6.172
19651WAT     H259196   2.269   7.089   6.160
19652WAT      O59197   0.491   8.773   3.062
19652WAT     H159198   0.515   8.683   3.026
19652WAT     H259199   0.523   8.781   3.156
19653WAT      O59200   8.105   8.979   6.147
19653WAT     H159201   8.108   8.955   6.244
19653WAT     H259202   8.196   9.009   6.117
19654WAT      O59203   2.436   8.613   3.010
19654WAT     H159204   2.507   8.548   2.982
19654WAT     H259205   2.380   8.637   2.931
19655WAT      O59206   7.461   2.344   1.323
19655WAT     H159207   7.380   2.353   1.382
19655WAT     H259208   7.529   2.288   1.370
19656WAT      O59209   1.828   7.923   6.116
19656WAT     H159210   1.845   7.913   6.018
19656WAT     H259211   1.766   7.851   6.146
19657WAT      O59212   2.647   3.858   3.330
19657WAT     H159213   2.573   3.805   3.371
19657WAT     H259214   2.643   3.953   3.362
19658WAT      O59215   5.236   2.491   1.704
19658WAT     H159216   5.195   2.501   1.613
19658WAT     H259217   5.233   2.395   1.732
19659WAT      O59218   9.378   6.235   0.421
19659WAT     H159219   9.307   6.282   0.369
19659WAT     H259220   9.340   6.206   0.509
19660WAT      O59221   5.058   0.384   3.193
19660WAT     H159222   5.047   0.402   3.291
19660WAT     H259223   5.017   0.459   3.141
19661WAT      O59224   3.536   2.566   9.506
19661WAT     H159225   3.605   2.493   9.500
19661WAT     H259226   3.482   2.554   9.589
19662WAT      O59227   1.220   9.339   5.929
19662WAT     H159228   1.290   9.310   5.995
19662WAT     H259229   1.234   9.435   5.905
19663WAT      O59230   4.275   6.609   7.152
19663WAT     H159231   4.358   6.578   7.198
19663WAT     H259232   4.293   6.621   7.055
19664WAT      O59233   4.181   0.555   4.139
19664WAT     H159234   4.209   0.463   4.168
19664WAT     H259235   4.260   0.616   4.140
19665WAT      O59236   3.020   4.378   0.681
19665WAT     H159237   3.083   4.408   0.753
19665WAT     H259238   2.938   4.435   0.684
19666WAT      O59239   0.247   1.337   3.584
19666WAT     H159240   0.336   1.365   3.620
19666WAT     H259241   0.231   1.241   3.605
19667WAT      O59242   3.018   7.324   9.887
19667WAT     H159243   2.971   7.393   9.832
19667WAT     H259244   2.963   7.303   9.968
19668WAT      O59245   9.736   3.142   8.362
19668WAT     H159246   9.654   3.151   8.419
19668WAT     H259247   9.801   3.214   8.387
19669WAT      O59248   8.777   5.385   5.382
19669WAT     H159249   8.849   5.350   5.443
19669WAT     H259250   8.771   5.484   5.392
19670WAT      O59251   3.943   0.299   7.052
19670WAT     H159252   3.913   0.392   7.074
19670WAT     H259253   3.862   0.240   7.039
19671WAT      O59254   8.330   1.790   5.579
19671WAT     H159255   8.332   1.720   5.507
19671WAT     H259256   8.236   1.816   5.598
19672WAT      O59257   2.901   6.362   3.737
19672WAT     H159258   2.903   6.405   3.647
19672WAT     H259259   2.981   6.303   3.747
19673WAT      O59260   8.859   3.244   4.216
19673WAT     H159261   8.795   3.261   4.291
19673WAT     H259262   8.811   3.253   4.128
19674WAT      O59263   2.306   6.401   0.587
19674WAT     H159264   2.365   6.474   0.622
19674WAT     H259265   2.345   6.312   0.614
19675WAT      O59266   4.847   4.884   5.983
19675WAT     H159267   4.822   4.788   5.990
19675WAT     H259268   4.923   4.903   6.045
19676WAT      O59269   3.403   7.194   3.251
19676WAT     H159270   3.383   7.111   3.200
19676WAT     H259271   3.318   7.235   3.285
19677WAT      O59272   9.169   0.578   2.617
19677WAT     H159273   9.229   0.609   2.544
19677WAT     H259274   9.112   0.654   2.649
19678WAT      O59275   0.665   8.526   0.773
19678WAT     H159276   0.573   8.536   0.733
19678WAT     H259277   0.667   8.571   0.862
19679WAT      O59278   1.579   0.447   3.865
19679WAT     H159279   1.652   0.459   3.934
19679WAT     H259280   1.614   0.394   3.789
19680WAT      O59281   6.503   1.779   3.480
19680WAT     H159282   6.601   1.782   3.504
19680WAT     H259283   6.491   1.809   3.386
19681WAT      O59284   2.568   7.783   6.985
19681WAT     H159285   2.477   7.819   6.966
19681WAT     H259286   2.637   7.837   6.936
19682WAT      O59287   4.942   6.630   2.932
19682WAT     H159288   4.919   6.661   2.840
19682WAT     H259289   4.859   6.625   2.987
19683WAT      O59290   4.092   8.014   3.891
19683WAT     H159291   4.035   8.006   3.810
19683WAT     H259292   4.115   7.923   3.925
19684WAT      O59293   1.985   7.132   4.053
19684WAT     H159294   2.005   7.153   4.148
19684WAT     H259295   2.002   7.213   3.997
19685WAT      O59296   1.459   5.201   0.977
19685WAT     H159297   1.517   5.120   0.973
19685WAT     H259298   1.401   5.204   0.895
19686WAT      O59299   7.095   8.583   2.123
19686WAT     H159300   7.064   8.590   2.218
19686WAT     H259301   7.027   8.623   2.062
19687WAT      O59302   6.259   2.984   0.968
19687WAT     H159303   6.284   2.989   0.872
19687WAT     H259304   6.231   2.891   0.991
19688WAT      O59305   8.724   6.771   5.552
19688WAT     H159306   8.678   6.707   5.490
19688WAT     H259307   8.708   6.744   5.647
19689WAT      O59308   0.098   5.529   7.161
19689WAT     H159309   0.054   5.442   7.181
19689WAT     H259310   0.155   5.556   7.239
19690WAT      O59311   7.852   3.517   8.559
19690WAT     H159312   7.788   3.594   8.562
19690WAT     H259313   7.833   3.456   8.636
19691WAT      O59314   9.217   3.961   7.226
19691WAT     H159315   9.219   4.033   7.157
19691WAT     H259316   9.133   3.968   7.279
19692WAT      O59317   0.263   5.712   6.423
19692WAT     H159318   0.211   5.776   6.367
19692WAT     H259319   0.205   5.674   6.494
19693WAT      O59320   7.524   7.966   7.570
19693WAT     H159321   7.612   7.920   7.582
19693WAT     H259322   7.476   7.927   7.491
19694WAT      O59323   5.714   0.097   2.677
19694WAT     H159324   5.788   0.037   2.646
19694WAT     H259325   5.698   0.168   2.608
19695WAT      O59326   5.627   1.163   5.829
19695WAT     H159327   5.594   1.250   5.864
19695WAT     H259328   5.688   1.121   5.897
19696WAT      O59329   5.784   4.040   5.106
19696WAT     H159330   5.877   4.042   5.141
19696WAT     H259331   5.723   4.003   5.177
19697WAT      O59332   9.577   0.031   4.507
19697WAT     H159333   9.488  -0.004   4.476
19697WAT     H259334   9.575   0.042   4.607
19698WAT      O59335   3.988   0.457   2.921
19698WAT     H159336   3.948   0.483   2.833
19698WAT     H259337   3.919   0.410   2.976
19699WAT      O59338   3.052   2.945   6.206
19699WAT     H159339   3.129   3.001   6.237
19699WAT     H259340   3.022   2.886   6.281
19700WAT      O59341   7.584   3.224   7.075
19700WAT     H159342   7.532   3.224   7.161
19700WAT     H259343   7.557   3.304   7.020
19701WAT      O59344   5.404   3.704   1.948
19701WAT     H159345   5.343   3.703   1.869
19701WAT     H259346   5.370   3.638   2.016
19702WAT      O59347   0.883   9.336   1.025
19702WAT     H159348   0.862   9.433   1.021
19702WAT     H259349   0.808   9.284   0.985
19703WAT      O59350   3.648   1.569   4.502
19703WAT     H159351   3.697   1.646   4.541
19703WAT     H259352   3.615   1.509   4.575
19704WAT      O59353   8.979   4.054   4.716
19704WAT     H159354   9.027   4.133   4.754
19704WAT     H259355   8.955   3.991   4.790
19705WAT      O59356   1.289   2.113   5.003
19705WAT     H159357   1.358   2.102   5.075
19705WAT     H259358   1.244   2.202   5.013
19706WAT      O59359   3.590   1.362   1.614
19706WAT     H159360   3.627   1.453   1.632
19706WAT     H259361   3.569   1.354   1.516
19707WAT      O59362   0.842   4.697   5.808
19707WAT     H159363   0.820   4.727   5.901
19707WAT     H259364   0.883   4.773   5.758
19708WAT      O59365   5.644   4.313   3.273
19708WAT     H159366   5.699   4.386   3.315
19708WAT     H259367   5.547   4.328   3.295
19709WAT      O59368   6.083   7.046   4.344
19709WAT     H159369   6.001   7.102   4.334
19709WAT     H259370   6.063   6.953   4.312
19710WAT      O59371   5.630   6.927   5.593
19710WAT     H159372   5.603   6.992   5.522
19710WAT     H259373   5.554   6.914   5.657
19711WAT      O59374   0.012   6.762   5.044
19711WAT     H159375   0.088   6.797   5.099
19711WAT     H259376   0.027   6.665   5.025
19712WAT      O59377   1.777   2.937   0.540
19712WAT     H159378   1.748   2.870   0.471
19712WAT     H259379   1.829   3.010   0.496
19713WAT      O59380   7.040   2.832   3.457
19713WAT     H159381   7.028   2.919   3.504
19713WAT     H259382   7.116   2.839   3.391
19714WAT      O59383   0.380   1.059   3.409
19714WAT     H159384   0.358   0.996   3.484
19714WAT     H259385   0.330   1.032   3.327
19715WAT      O59386   6.294   6.758   8.135
19715WAT     H159387   6.240   6.738   8.217
19715WAT     H259388   6.239   6.742   8.053
19716WAT      O59389   6.884   1.421   9.369
19716WAT     H159390   6.918   1.330   9.344
19716WAT     H259391   6.811   1.411   9.437
19717WAT      O59392   4.814   8.384   2.632
19717WAT     H159393   4.910   8.401   2.652
19717WAT     H259394   4.762   8.468   2.645
19718WAT      O59395   8.725   2.156   3.697
19718WAT     H159396   8.729   2.196   3.606
19718WAT     H259397   8.803   2.189   3.751
19719WAT      O59398   6.672   5.857   4.859
19719WAT     H159399   6.630   5.944   4.886
19719WAT     H259400   6.604   5.784   4.867
19720WAT      O59401   9.304   6.408   5.136
19720WAT     H159402   9.287   6.310   5.145
19720WAT     H259403   9.367   6.437   5.208
19721WAT      O59404   7.004   4.664   5.671
19721WAT     H159405   6.990   4.746   5.727
19721WAT     H259406   7.098   4.632   5.683
19722WAT      O59407   9.102   5.171   8.987
19722WAT     H159408   9.155   5.100   9.034
19722WAT     H259409   9.008   5.170   9.021
19723WAT      O59410   6.335   3.004   0.714
19723WAT     H159411   6.389   2.934   0.668
19723WAT     H259412   6.376   3.094   0.698
19724WAT      O59413   2.310   5.600   1.662
19724WAT     H159414   2.352   5.518   1.623
19724WAT     H259415   2.364   5.680   1.637
19725WAT      O59416   4.487   6.687   1.811
19725WAT     H159417   4.419   6.732   1.869
19725WAT     H259418   4.487   6.730   1.721
19726WAT      O59419   5.279   1.637   9.141
19726WAT     H159420   5.343   1.578   9.191
19726WAT     H259421   5.322   1.726   9.126
19727WAT      O59422   2.260   6.310   6.895
19727WAT     H159423   2.266   6.256   6.811
19727WAT     H259424   2.352   6.328   6.930
19728WAT      O59425   3.204   0.294   1.228
19728WAT     H159426   3.285   0.237   1.219
19728WAT     H259427   3.155   0.297   1.141
19729WAT      O59428   7.492   6.358   1.972
19729WAT     H159429   7.476   6.314   2.060
19729WAT     H259430   7.588   6.384   1.965
19730WAT      O59431   6.782   2.321   9.270
19730WAT     H159432   6.684   2.316   9.290
19730WAT     H259433   6.833   2.275   9.342
19731WAT      O59434   8.174   4.371   3.123
19731WAT     H159435   8.265   4.402   3.095
19731WAT     H259436   8.106   4.441   3.101
19732WAT      O59437   9.639   6.548   0.288
19732WAT     H159438   9.694   6.529   0.369
19732WAT     H259439   9.678   6.626   0.239
19733WAT      O59440   2.299   0.995   4.326
19733WAT     H159441   2.201   1.014   4.334
19733WAT     H259442   2.342   1.006   4.416
19734WAT      O59443   8.873   2.384   5.032
19734WAT     H159444   8.962   2.384   4.986
19734WAT     H259445   8.828   2.296   5.016
19735WAT      O59446   4.568   6.965   7.455
19735WAT     H159447   4.608   6.951   7.546
19735WAT     H259448   4.468   6.957   7.462
19736WAT      O59449   4.976   5.452   0.371
19736WAT     H159450   5.015   5.364   0.397
19736WAT     H259451   4.896   5.472   0.428
19737WAT      O59452   4.625   4.376   9.447
19737WAT     H159453   4.706   4.387   9.388
19737WAT     H259454   4.613   4.459   9.501
19738WAT      O59455   0.629   1.718   3.659
19738WAT     H159456   0.653   1.686   3.567
19738WAT     H259457   0.663   1.653   3.727
19739WAT      O59458   1.824   2.609   4.671
19739WAT     H159459   1.740   2.556   4.664
19739WAT     H259460   1.892   2.574   4.606
19740WAT      O59461   4.141   1.729   8.923
19740WAT     H159462   4.129   1.661   8.996
19740WAT     H259463   4.170   1.816   8.963
19741WAT      O59464   7.993   6.571   4.114
19741WAT     H159465   8.027   6.478   4.102
19741WAT     H259466   7.904   6.568   4.161
19742WAT      O59467   1.566   8.723   7.206
19742WAT     H159468   1.501   8.747   7.134
19742WAT     H259469   1.544   8.776   7.289
19743WAT      O59470   5.001   6.429   1.526
19743WAT     H159471   5.027   6.335   1.550
19743WAT     H259472   4.925   6.458   1.583
19744WAT      O59473   8.283   8.571   9.509
19744WAT     H159474   8.205   8.631   9.523
19744WAT     H259475   8.262   8.480   9.544
19745WAT      O59476   8.301   9.645  -0.005
19745WAT     H159477   8.276   9.640   0.092
19745WAT     H259478   8.400   9.635  -0.014
19746WAT      O59479   4.172   0.578   6.933
19746WAT     H159480   4.191   0.530   6.848
19746WAT     H259481   4.077   0.560   6.961
19747WAT      O59482   0.272   0.848   3.585
19747WAT     H159483   0.239   0.862   3.678
19747WAT     H259484   0.204   0.796   3.533
19748WAT      O59485   3.153   4.778   9.775
19748WAT     H159486   3.120   4.817   9.689
19748WAT     H259487   3.188   4.851   9.834
19749WAT      O59488   3.032   0.436   1.591
19749WAT     H159489   3.003   0.397   1.504
19749WAT     H259490   2.974   0.402   1.664
19750WAT      O59491   9.702   2.280   3.260
19750WAT     H159492   9.760   2.239   3.189
19750WAT     H259493   9.690   2.214   3.334
19751WAT      O59494   7.578   6.268   0.054
19751WAT     H159495   7.564   6.365   0.033
19751WAT     H259496   7.649   6.231  -0.005
19752WAT      O59497   0.680   1.600   5.277
19752WAT     H159498   0.704   1.526   5.215
19752WAT     H259499   0.753   1.669   5.278
19753WAT      O59500   8.242   5.835   6.729
19753WAT     H159501   8.303   5.904   6.768
19753WAT     H259502   8.297   5.758   6.696
19754WAT      O59503   2.043   5.981   3.366
19754WAT     H159504   2.030   6.049   3.293
19754WAT     H259505   2.123   6.005   3.420
19755WAT      O59506   4.807   3.572   1.678
19755WAT     H159507   4.769   3.660   1.709
19755WAT     H259508   4.732   3.512   1.650
19756WAT      O59509   4.998   7.207   9.214
19756WAT     H159510   5.054   7.288   9.228
19756WAT     H259511   5.055   7.125   9.216
19757WAT      O59512   5.221   5.803   2.817
19757WAT     H159513   5.167   5.806   2.733
19757WAT     H259514   5.319   5.800   2.794
19758WAT      O59515   9.558   3.283   4.528
19758WAT     H159516   9.613   3.201   4.543
19758WAT     H259517   9.617   3.360   4.506
19759WAT      O59518   1.867   0.391   6.398
19759WAT     H159519   1.904   0.483   6.411
19759WAT     H259520   1.936   0.323   6.426
19760WAT      O59521   9.273   4.522   7.112
19760WAT     H159522   9.348   4.584   7.137
19760WAT     H259523   9.287   4.489   7.019
19761WAT      O59524   7.476   8.088   6.913
19761WAT     H159525   7.432   8.161   6.860
19761WAT     H259526   7.533   8.033   6.853
19762WAT      O59527   1.976   0.053   0.732
19762WAT     H159528   1.965   0.113   0.653
19762WAT     H259529   2.027   0.101   0.803
19763WAT      O59530   3.145   2.960   6.876
19763WAT     H159531   3.240   2.963   6.906
19763WAT     H259532   3.090   3.021   6.934
19764WAT      O59533   1.217   9.408   7.551
19764WAT     H159534   1.151   9.358   7.608
19764WAT     H259535   1.221   9.503   7.581
19765WAT      O59536   7.235   7.912   9.886
19765WAT     H159537   7.198   7.944   9.798
19765WAT     H259538   7.225   7.984   9.954
19766WAT      O59539   2.101   4.768   6.451
19766WAT     H159540   2.191   4.784   6.491
19766WAT     H259541   2.109   4.697   6.380
19767WAT      O59542   6.438   3.527   2.953
19767WAT     H159543   6.476   3.457   2.892
19767WAT     H259544   6.441   3.495   3.047
19768WAT      O59545   7.038   0.547   5.358
19768WAT     H159546   6.974   0.603   5.410
19768WAT     H259547   7.013   0.450   5.366
19769WAT      O59548   1.439   8.260   8.586
19769WAT     H159549   1.476   8.190   8.525
19769WAT     H259550   1.395   8.216   8.664
19770WAT      O59551   1.394   1.435   1.139
19770WAT     H159552   1.345   1.518   1.113
19770WAT     H259553   1.440   1.451   1.227
19771WAT      O59554   7.399   8.395   3.935
19771WAT     H159555   7.394   8.470   3.870
19771WAT     H259556   7.341   8.320   3.904
19772WAT      O59557   4.350   9.097   3.466
19772WAT     H159558   4.310   9.186   3.442
19772WAT     H259559   4.299   9.024   3.420
19773WAT      O59560   1.493   5.043   2.668
19773WAT     H159561   1.416   4.988   2.700
19773WAT     H259562   1.557   4.985   2.619
19774WAT      O59563   3.516   3.486   9.865
19774WAT     H159564   3.494   3.472   9.962
19774WAT     H259565   3.466   3.565   9.831
19775WAT      O59566   7.389   5.103   6.483
19775WAT     H159567   7.301   5.141   6.511
19775WAT     H259568   7.458   5.122   6.553
19776WAT      O59569   1.141   4.777   3.623
19776WAT     H159570   1.239   4.786   3.605
19776WAT     H259571   1.128   4.732   3.712
19777WAT      O59572   2.672   5.767   4.364
19777WAT     H159573   2.626   5.693   4.413
19777WAT     H259574   2.766   5.775   4.396
19778WAT      O59575   0.261   7.686   4.720
19778WAT     H159576   0.235   7.592   4.700
19778WAT     H259577   0.281   7.695   4.818
19779WAT      O59578   4.231   5.244   3.763
19779WAT     H159579   4.297   5.298   3.711
19779WAT     H259580   4.138   5.266   3.732
19780WAT      O59581   9.499   2.108   2.552
19780WAT     H159582   9.410   2.124   2.595
19780WAT     H259583   9.496   2.133   2.456
19781WAT      O59584   1.286   4.289   2.798
19781WAT     H159585   1.366   4.234   2.775
19781WAT     H259586   1.210   4.230   2.823
19782WAT      O59587   6.754   8.286   0.536
19782WAT     H159588   6.707   8.355   0.480
19782WAT     H259589   6.711   8.197   0.521
19783WAT      O59590   8.832   6.788   4.484
19783WAT     H159591   8.880   6.761   4.401
19783WAT     H259592   8.734   6.774   4.473
19784WAT      O59593   9.383   9.413   6.196
19784WAT     H159594   9.444   9.439   6.271
19784WAT     H259595   9.423   9.337   6.146
19785WAT      O59596   8.404   9.053   6.219
19785WAT     H159597   8.447   9.114   6.286
19785WAT     H259598   8.446   8.963   6.225
19786WAT      O59599   3.196   0.651   3.200
19786WAT     H159600   3.271   0.636   3.136
19786WAT     H259601   3.113   0.674   3.150
19787WAT      O59602   1.915   6.784   5.971
19787WAT     H159603   1.966   6.798   5.886
19787WAT     H259604   1.925   6.865   6.029
19788WAT      O59605   7.038   9.414   6.502
19788WAT     H159606   7.136   9.434   6.504
19788WAT     H259607   7.008   9.404   6.407
19789WAT      O59608   0.517   2.363   7.919
19789WAT     H159609   0.590   2.299   7.898
19789WAT     H259610   0.524   2.443   7.859
19790WAT      O59611   0.440   3.409   4.633
19790WAT     H159612   0.491   3.329   4.665
19790WAT     H259613   0.472   3.491   4.682
19791WAT      O59614   6.350   8.850   5.247
19791WAT     H159615   6.347   8.834   5.345
19791WAT     H259616   6.257   8.843   5.209
19792WAT      O59617   7.651   1.445   7.212
19792WAT     H159618   7.565   1.402   7.183
19792WAT     H259619   7.724   1.417   7.151
19793WAT      O59620   3.238   2.329   5.968
19793WAT     H159621   3.181   2.348   6.048
19793WAT     H259622   3.335   2.335   5.995
19794WAT      O59623   9.119   3.168   8.649
19794WAT     H159624   9.169   3.193   8.731
19794WAT     H259625   9.133   3.238   8.579
19795WAT      O59626   5.129   5.396   3.789
19795WAT     H159627   5.154   5.408   3.693
19795WAT     H259628   5.202   5.347   3.837
19796WAT      O59629   8.482   4.694   7.700
19796WAT     H159630   8.523   4.609   7.666
19796WAT     H259631   8.436   4.741   7.625
19797WAT      O59632   6.949   9.767   1.649
19797WAT     H159633   6.850   9.761   1.648
19797WAT     H259634   6.979   9.832   1.719
19798WAT      O59635   3.812   2.649   8.848
19798WAT     H159636   3.868   2.637   8.766
19798WAT     H259637   3.761   2.734   8.842
19799WAT      O59638   4.390   9.368   4.325
19799WAT     H159639   4.478   9.389   4.283
19799WAT     H259640   4.399   9.368   4.425
19800WAT      O59641   2.475   3.056   7.849
19800WAT     H159642   2.392   3.016   7.811
19800WAT     H259643   2.554   3.020   7.801
19801WAT      O59644   9.600   3.734   2.998
19801WAT     H159645   9.519   3.790   2.977
19801WAT     H259646   9.622   3.743   3.095
19802WAT      O59647   8.867   3.960   0.866
19802WAT     H159648   8.951   4.010   0.887
19802WAT     H259649   8.862   3.942   0.768
19803WAT      O59650   7.747   1.032   8.956
19803WAT     H159651   7.779   1.030   8.861
19803WAT     H259652   7.647   1.037   8.957
19804WAT      O59653   7.821   1.496   6.243
19804WAT     H159654   7.881   1.416   6.243
19804WAT     H259655   7.731   1.470   6.206
19805WAT      O59656   4.779   8.571   6.922
19805WAT     H159657   4.761   8.604   7.015
19805WAT     H259658   4.761   8.644   6.856
19806WAT      O59659   0.177   9.590   0.703
19806WAT     H159660   0.229   9.626   0.626
19806WAT     H259661   0.160   9.493   0.689
19807WAT      O59662   6.899   6.509   5.604
19807WAT     H159663   6.859   6.492   5.694
19807WAT     H259664   6.900   6.607   5.586
19808WAT      O59665   8.795   1.068   7.906
19808WAT     H159666   8.830   1.160   7.922
19808WAT     H259667   8.719   1.073   7.841
19809WAT      O59668   4.170   3.274   6.736
19809WAT     H159669   4.154   3.213   6.814
19809WAT     H259670   4.157   3.222   6.651
19810WAT      O59671   4.799   1.144   9.865
19810WAT     H159672   4.763   1.211   9.931
19810WAT     H259673   4.818   1.058   9.912
19811WAT      O59674   2.938   2.757   5.584
19811WAT     H159675   3.012   2.702   5.622
19811WAT     H259676   2.934   2.745   5.485
19812WAT      O59677   5.284   2.914   1.204
19812WAT     H159678   5.270   2.921   1.303
19812WAT     H259679   5.380   2.895   1.185
19813WAT      O59680   7.719   8.500   1.235
19813WAT     H159681   7.728   8.531   1.330
19813WAT     H259682   7.677   8.571   1.180
19814WAT      O59683   7.762   4.959   5.569
19814WAT     H159684   7.680   4.901   5.569
19814WAT     H259685   7.743   5.041   5.516
19815WAT      O59686   1.145   6.613   4.661
19815WAT     H159687   1.234   6.616   4.706
19815WAT     H259688   1.102   6.703   4.665
19816WAT      O59689   9.318   1.991   1.620
19816WAT     H159690   9.234   1.941   1.598
19816WAT     H259691   9.310   2.086   1.589
19817WAT      O59692   6.342   4.851   2.899
19817WAT     H159693   6.360   4.913   2.823
19817WAT     H259694   6.425   4.800   2.921
19818WAT      O59695   6.542   1.009   0.711
19818WAT     H159696   6.621   1.057   0.671
19818WAT     H259697   6.520   0.929   0.655
19819WAT      O59698   0.195   1.221   2.272
19819WAT     H159699   0.176   1.301   2.216
19819WAT     H259700   0.221   1.144   2.213
19820WAT      O59701   9.216   5.022   5.772
19820WAT     H159702   9.281   5.097   5.760
19820WAT     H259703   9.263   4.941   5.806
19821WAT      O59704   7.109   2.923   8.363
19821WAT     H159705   7.097   2.904   8.460
19821WAT     H259706   7.138   3.018   8.351
19822WAT      O59707   6.846   0.685   7.406
19822WAT     H159708   6.790   0.623   7.461
19822WAT     H259709   6.793   0.716   7.327
19823WAT      O59710   8.813   1.320   8.172
19823WAT     H159711   8.832   1.346   8.077
19823WAT     H259712   8.898   1.319   8.224
19824WAT      O59713   1.190   5.573   3.735
19824WAT     H159714   1.175   5.576   3.636
19824WAT     H259715   1.185   5.666   3.772
19825WAT      O59716   8.520   9.824   1.750
19825WAT     H159717   8.556   9.731   1.752
19825WAT     H259718   8.478   9.842   1.661
19826WAT      O59719   2.972   1.744   0.380
19826WAT     H159720   2.887   1.735   0.327
19826WAT     H259721   3.044   1.781   0.321
19827WAT      O59722   8.787   6.752   9.434
19827WAT     H159723   8.874   6.795   9.410
19827WAT     H259724   8.726   6.821   9.474
19828WAT      O59725   6.395   0.147   5.083
19828WAT     H159726   6.383   0.218   5.013
19828WAT     H259727   6.331   0.163   5.158
19829WAT      O59728   1.876   8.174   0.925
19829WAT     H159729   1.914   8.220   1.005
19829WAT     H259730   1.788   8.133   0.949
19830WAT      O59731   7.957   8.038   8.856
19830WAT     H159732   7.862   8.012   8.870
19830WAT     H259733   7.984   8.016   8.762
19831WAT      O59734   6.308   7.839   1.378
19831WAT     H159735   6.379   7.836   1.308
19831WAT     H259736   6.274   7.747   1.396
19832WAT      O59737   5.450   7.920   7.182
19832WAT     H159738   5.389   7.905   7.260
19832WAT     H259739   5.475   7.831   7.142
19833WAT      O59740   1.506   0.877   0.241
19833WAT     H159741   1.494   0.778   0.234
19833WAT     H259742   1.480   0.908   0.332
19834WAT      O59743   1.725   3.790   3.036
19834WAT     H159744   1.626   3.805   3.032
19834WAT     H259745   1.767   3.830   2.954
19835WAT      O59746   0.370   5.937   1.252
19835WAT     H159747   0.405   5.890   1.333
19835WAT     H259748   0.271   5.926   1.247
19836WAT      O59749   8.121   2.573   0.978
19836WAT     H159750   8.200   2.516   0.954
19836WAT     H259751   8.038   2.517   0.973
19837WAT      O59752   9.330   8.315   5.776
19837WAT     H159753   9.293   8.307   5.683
19837WAT     H259754   9.283   8.389   5.824
19838WAT      O59755   4.951   9.840   3.697
19838WAT     H159756   4.982   9.746   3.709
19838WAT     H259757   4.985   9.876   3.611
19839WAT      O59758   6.444   1.563   0.726
19839WAT     H159759   6.354   1.530   0.695
19839WAT     H259760   6.509   1.559   0.651
19840WAT      O59761   4.950   3.518   0.693
19840WAT     H159762   5.023   3.521   0.761
19840WAT     H259763   4.898   3.603   0.696
19841WAT      O59764   1.805   7.064   5.218
19841WAT     H159765   1.849   6.982   5.181
19841WAT     H259766   1.776   7.047   5.312
19842WAT      O59767   8.448   4.016   7.262
19842WAT     H159768   8.408   4.103   7.289
19842WAT     H259769   8.547   4.017   7.280
19843WAT      O59770   1.419   2.934   6.727
19843WAT     H159771   1.430   2.903   6.822
19843WAT     H259772   1.331   2.978   6.716
19844WAT      O59773   2.476   7.764   0.063
19844WAT     H159774   2.431   7.766   0.152
19844WAT     H259775   2.572   7.737   0.075
19845WAT      O59776   4.915   1.907   8.946
19845WAT     H159777   4.954   1.878   9.033
19845WAT     H259778   4.909   2.007   8.944
19846WAT      O59779   0.340   2.451   5.842
19846WAT     H159780   0.354   2.357   5.811
19846WAT     H259781   0.273   2.452   5.916
19847WAT      O59782   0.717   6.103   1.757
19847WAT     H159783   0.657   6.121   1.680
19847WAT     H259784   0.765   6.016   1.742
19848WAT      O59785   2.999   7.099   8.588
19848WAT     H159786   3.048   7.012   8.581
19848WAT     H259787   3.062   7.170   8.619
19849WAT      O59788   4.847   5.501   7.519
19849WAT     H159789   4.855   5.431   7.591
19849WAT     H259790   4.916   5.572   7.534
19850WAT      O59791   7.795   6.342   7.659
19850WAT     H159792   7.770   6.432   7.624
19850WAT     H259793   7.887   6.319   7.630
19851WAT      O59794   1.171   7.656   6.891
19851WAT     H159795   1.184   7.564   6.929
19851WAT     H259796   1.153   7.649   6.793
19852WAT      O59797   8.517   7.703   5.715
19852WAT     H159798   8.467   7.628   5.672
19852WAT     H259799   8.455   7.781   5.727
19853WAT      O59800   3.824   1.676   0.380
19853WAT     H159801   3.884   1.736   0.328
19853WAT     H259802   3.729   1.687   0.348
19854WAT      O59803   4.281   5.664   8.094
19854WAT     H159804   4.189   5.704   8.093
19854WAT     H259805   4.318   5.668   8.186
19855WAT      O59806   6.801   8.900   0.693
19855WAT     H159807   6.880   8.958   0.711
19855WAT     H259808   6.717   8.949   0.717
19856WAT      O59809   2.073   4.734   3.288
19856WAT     H159810   2.073   4.759   3.191
19856WAT     H259811   2.048   4.638   3.297
19857WAT      O59812   2.969   1.101   4.544
19857WAT     H159813   2.976   1.195   4.575
19857WAT     H259814   2.874   1.070   4.555
19858WAT      O59815   0.109   2.160   3.737
19858WAT     H159816   0.129   2.257   3.717
19858WAT     H259817   0.176   2.125   3.801
19859WAT      O59818   3.251   2.626   9.427
19859WAT     H159819   3.343   2.596   9.451
19859WAT     H259820   3.231   2.713   9.473
19860WAT      O59821   9.467   3.007   1.047
19860WAT     H159822   9.490   3.098   1.011
19860WAT     H259823   9.460   3.012   1.147
19861WAT      O59824   7.311   8.507   2.680
19861WAT     H159825   7.401   8.516   2.639
19861WAT     H259826   7.287   8.592   2.727
19862WAT      O59827   7.162   2.646   1.819
19862WAT     H159828   7.221   2.726   1.831
19862WAT     H259829   7.069   2.676   1.794
19863WAT      O59830   7.180   4.983   1.060
19863WAT     H159831   7.124   4.954   0.982
19863WAT     H259832   7.216   4.902   1.106
19864WAT      O59833   8.462   4.441   6.806
19864WAT     H159834   8.554   4.445   6.767
19864WAT     H259835   8.408   4.518   6.772
19865WAT      O59836   8.700   3.211   5.037
19865WAT     H159837   8.635   3.230   5.111
19865WAT     H259838   8.736   3.297   5.002
19866WAT      O59839   2.396   0.992   5.921
19866WAT     H159840   2.366   0.939   5.842
19866WAT     H259841   2.329   1.064   5.940
19867WAT      O59842   0.545   3.332   3.723
19867WAT     H159843   0.514   3.257   3.782
19867WAT     H259844   0.518   3.419   3.763
19868WAT      O59845   9.584   6.135   7.755
19868WAT     H159846   9.681   6.156   7.748
19868WAT     H259847   9.531   6.215   7.728
19869WAT      O59848   0.210   8.688   6.292
19869WAT     H159849   0.244   8.625   6.222
19869WAT     H259850   0.247   8.780   6.275
19870WAT      O59851   6.078   0.056   7.385
19870WAT     H159852   6.051  -0.036   7.356
19870WAT     H259853   6.064   0.065   7.484
19871WAT      O59854   4.970   0.362   8.292
19871WAT     H159855   5.003   0.374   8.198
19871WAT     H259856   5.026   0.416   8.355
19872WAT      O59857   0.405   8.355   0.112
19872WAT     H159858   0.456   8.270   0.117
19872WAT     H259859   0.340   8.360   0.188
19873WAT      O59860   1.137   9.039   0.249
19873WAT     H159861   1.175   9.093   0.323
19873WAT     H259862   1.044   9.011   0.271
19874WAT      O59863   1.793   7.000   8.636
19874WAT     H159864   1.731   7.002   8.715
19874WAT     H259865   1.874   6.947   8.659
19875WAT      O59866   0.418   6.432   7.913
19875WAT     H159867   0.496   6.387   7.956
19875WAT     H259868   0.421   6.530   7.932
19876WAT      O59869   5.240   9.312   1.698
19876WAT     H159870   5.280   9.220   1.690
19876WAT     H259871   5.140   9.305   1.688
19877WAT      O59872   9.568   6.259   3.700
19877WAT     H159873   9.589   6.184   3.637
19877WAT     H259874   9.649   6.281   3.755
19878WAT      O59875   1.594   2.809   2.273
19878WAT     H159876   1.562   2.786   2.182
19878WAT     H259877   1.522   2.858   2.323
19879WAT      O59878   3.250   6.410   8.262
19879WAT     H159879   3.226   6.472   8.337
19879WAT     H259880   3.350   6.402   8.257
19880WAT      O59881   2.733   0.643   4.280
19880WAT     H159882   2.647   0.609   4.243
19880WAT     H259883   2.750   0.736   4.245
19881WAT      O59884   5.737   1.237   9.536
19881WAT     H159885   5.701   1.144   9.549
19881WAT     H259886   5.832   1.231   9.506
19882WAT      O59887   0.562   5.441   9.016
19882WAT     H159888   0.614   5.509   8.965
19882WAT     H259889   0.618   5.405   9.090
19883WAT      O59890   9.832   0.512   6.217
19883WAT     H159891   9.839   0.472   6.126
19883WAT     H259892   9.917   0.560   6.239
19884WAT      O59893   6.747   7.011   6.061
19884WAT     H159894   6.741   6.941   6.132
19884WAT     H259895   6.700   7.094   6.092
19885WAT      O59896   4.384   1.890   4.343
19885WAT     H159897   4.380   1.962   4.412
19885WAT     H259898   4.296   1.844   4.336
19886WAT      O59899   3.910   0.194   2.788
19886WAT     H159900   3.989   0.139   2.814
19886WAT     H259901   3.915   0.216   2.691
19887WAT      O59902   1.741   8.304   4.567
19887WAT     H159903   1.831   8.264   4.553
19887WAT     H259904   1.682   8.239   4.614
19888WAT      O59905   7.630   5.481   6.708
19888WAT     H159906   7.683   5.499   6.626
19888WAT     H259907   7.682   5.422   6.770
19889WAT      O59908   7.085   3.924   1.423
19889WAT     H159909   7.089   3.984   1.344
19889WAT     H259910   6.991   3.892   1.436
19890WAT      O59911   1.137   9.350   8.831
19890WAT     H159912   1.226   9.396   8.835
19890WAT     H259913   1.139   9.267   8.887
19891WAT      O59914   0.386   9.531   4.297
19891WAT     H159915   0.393   9.484   4.209
19891WAT     H259916   0.461   9.500   4.356
19892WAT      O59917   9.442   6.004   9.756
19892WAT     H159918   9.489   5.944   9.691
19892WAT     H259919   9.457   6.100   9.731
19893WAT      O59920   3.487   8.425   7.323
19893WAT     H159921   3.461   8.520   7.306
19893WAT     H259922   3.530   8.387   7.241
19894WAT      O59923   9.153   1.565   0.065
19894WAT     H159924   9.101   1.651   0.063
19894WAT     H259925   9.203   1.559   0.151
19895WAT      O59926   4.721   3.383   1.034
19895WAT     H159927   4.637   3.436   1.045
19895WAT     H259928   4.714   3.325   0.953
19896WAT      O59929   7.987   9.101   8.957
19896WAT     H159930   8.010   9.192   8.922
19896WAT     H259931   7.924   9.110   9.034
19897WAT      O59932   1.038   6.306   7.922
19897WAT     H159933   1.109   6.280   7.856
19897WAT     H259934   0.982   6.226   7.945
19898WAT      O59935   9.432   3.909   6.555
19898WAT     H159936   9.503   3.978   6.567
19898WAT     H259937   9.468   3.832   6.503
19899WAT      O59938   2.374   2.786   8.305
19899WAT     H159939   2.288   2.837   8.298
19899WAT     H259940   2.444   2.832   8.250
19900WAT      O59941   1.974   4.816   9.118
19900WAT     H159942   1.951   4.852   9.209
19900WAT     H259943   2.049   4.869   9.079
19901WAT      O59944   0.631   0.137   8.096
19901WAT     H159945   0.680   0.214   8.135
19901WAT     H259946   0.557   0.110   8.157
19902WAT      O59947   4.351   4.348   9.055
19902WAT     H159948   4.334   4.344   9.154
19902WAT     H259949   4.344   4.256   9.017
19903WAT      O59950   7.266   4.271   0.881
19903WAT     H159951   7.326   4.192   0.876
19903WAT     H259952   7.313   4.351   0.845
19904WAT      O59953   7.196   5.469   2.511
19904WAT     H159954   7.271   5.403   2.518
19904WAT     H259955   7.229   5.552   2.464
19905WAT      O59956   1.005   2.975   3.655
19905WAT     H159957   1.046   2.935   3.737
19905WAT     H259958   0.964   3.064   3.678
19906WAT      O59959   6.966   5.502   9.192
19906WAT     H159960   6.960   5.482   9.094
19906WAT     H259961   6.908   5.581   9.213
19907WAT      O59962   7.322   2.072   8.722
19907WAT     H159963   7.266   1.989   8.726
19907WAT     H259964   7.279   2.138   8.660
19908WAT      O59965   0.991   8.783   5.818
19908WAT     H159966   0.985   8.693   5.862
19908WAT     H259967   0.965   8.774   5.721
19909WAT      O59968   2.950   4.253   1.563
19909WAT     H159969   3.020   4.319   1.534
19909WAT     H259970   2.865   4.302   1.584
19910WAT      O59971   0.597   1.390   3.052
19910WAT     H159972   0.558   1.302   3.027
19910WAT     H259973   0.670   1.414   2.988
19911WAT      O59974   3.397   7.629   1.152
19911WAT     H159975   3.387   7.721   1.191
19911WAT     H259976   3.372   7.631   1.055
19912WAT      O59977   2.426   0.246   8.226
19912WAT     H159978   2.418   0.212   8.132
19912WAT     H259979   2.417   0.346   8.226
19913WAT      O59980   8.707   3.005   5.951
19913WAT     H159981   8.659   2.919   5.933
19913WAT     H259982   8.641   3.075   5.977
19914WAT      O59983   5.071   2.233   6.766
19914WAT     H159984   5.131   2.164   6.724
19914WAT     H259985   5.121   2.320   6.774
19915WAT      O59986   7.729   4.749   9.143
19915WAT     H159987   7.706   4.652   9.143
19915WAT     H259988   7.807   4.766   9.204
19916WAT      O59989   7.120   8.032   1.471
19916WAT     H159990   7.212   8.049   1.435
19916WAT     H259991   7.099   7.935   1.464
19917WAT      O59992   3.451   5.317   5.252
19917WAT     H159993   3.531   5.377   5.256
19917WAT     H259994   3.451   5.256   5.331
19918WAT      O59995   3.962   0.367   5.153
19918WAT     H159996   3.962   0.467   5.150
19918WAT     H259997   4.020   0.332   5.080
19919WAT      O59998   5.270   7.968   4.699
19919WAT     H159999   5.189   7.975   4.639
19919WAT     H260000   5.245   7.921   4.783
19920WAT      O60001   8.483   7.400   9.211
19920WAT     H160002   8.458   7.464   9.283
19920WAT     H260003   8.422   7.320   9.215
19921WAT      O60004   6.455   2.945   9.155
19921WAT     H160005   6.511   2.865   9.177
19921WAT     H260006   6.435   2.996   9.239
19922WAT      O60007   3.322   8.662   0.244
19922WAT     H160008   3.340   8.745   0.297
19922WAT     H260009   3.408   8.628   0.206
19923WAT      O60010   8.690   0.124   2.473
19923WAT     H160011   8.749   0.160   2.401
19923WAT     H260012   8.746   0.096   2.551
19924WAT      O60013   0.212   4.926   6.719
19924WAT     H160014   0.136   4.864   6.741
19924WAT     H260015   0.243   4.972   6.802
19925WAT      O60016   3.486   4.191   3.841
19925WAT     H160017   3.534   4.139   3.770
19925WAT     H260018   3.483   4.138   3.925
19926WAT      O60019   6.057   9.533   7.663
19926WAT     H160020   6.094   9.440   7.662
19926WAT     H260021   6.120   9.593   7.712
19927WAT      O60022   0.174   2.409   7.026
19927WAT     H160023   0.187   2.348   6.948
19927WAT     H260024   0.164   2.503   6.994
19928WAT      O60025   8.892   6.823   1.265
19928WAT     H160026   8.926   6.735   1.297
19928WAT     H260027   8.852   6.873   1.342
19929WAT      O60028   9.293   7.878   4.436
19929WAT     H160029   9.315   7.791   4.390
19929WAT     H260030   9.279   7.861   4.534
19930WAT      O60031   1.901   0.731   1.260
19930WAT     H160032   1.969   0.761   1.193
19930WAT     H260033   1.869   0.810   1.312
19931WAT      O60034   8.079   4.769   8.408
19931WAT     H160035   8.159   4.829   8.407
19931WAT     H260036   8.092   4.695   8.342
19932WAT      O60037   5.188   2.402   3.742
19932WAT     H160038   5.146   2.400   3.651
19932WAT     H260039   5.176   2.492   3.783
19933WAT      O60040   2.245   9.397   6.370
19933WAT     H160041   2.283   9.305   6.360
19933WAT     H260042   2.222   9.435   6.281
19934WAT      O60043   7.854   7.789   2.311
19934WAT     H160044   7.769   7.765   2.264
19934WAT     H260045   7.929   7.737   2.271
19935WAT      O60046   1.814   5.813   3.715
19935WAT     H160047   1.836   5.727   3.668
19935WAT     H260048   1.748   5.796   3.788
19936WAT      O60049   2.046   6.498   6.963
19936WAT     H160050   2.029   6.532   6.871
19936WAT     H260051   2.135   6.452   6.967
19937WAT      O60052   7.036   6.514   5.363
19937WAT     H160053   6.974   6.501   5.286
19937WAT     H260054   6.983   6.526   5.447
19938WAT      O60055   7.886   1.246   9.097
19938WAT     H160056   7.843   1.170   9.048
19938WAT     H260057   7.985   1.244   9.081
19939WAT      O60058   0.092   4.830   8.155
19939WAT     H160059   0.042   4.771   8.092
19939WAT     H260060   0.027   4.882   8.211
19940WAT      O60061   4.781   3.312   0.416
19940WAT     H160062   4.805   3.274   0.506
19940WAT     H260063   4.850   3.379   0.389
19941WAT      O60064   9.663   3.532   4.908
19941WAT     H160065   9.683   3.434   4.903
19941WAT     H260066   9.600   3.557   4.835
19942WAT      O60067   7.701   7.289   8.669
19942WAT     H160068   7.647   7.332   8.596
19942WAT     H260069   7.648   7.290   8.754
19943WAT      O60070   8.541   0.846   8.237
19943WAT     H160071   8.598   0.769   8.209
19943WAT     H260072   8.542   0.916   8.166
19944WAT      O60073   4.970   2.191   8.935
19944WAT     H160074   4.873   2.201   8.959
19944WAT     H260075   5.018   2.276   8.954
19945WAT      O60076   3.751   6.837   9.766
19945WAT     H160077   3.832   6.896   9.758
19945WAT     H260078   3.769   6.766   9.834
19946WAT      O60079   1.427   1.850   9.401
19946WAT     H160080   1.471   1.909   9.334
19946WAT     H260081   1.488   1.774   9.423
19947WAT      O60082   3.992   9.635   9.844
19947WAT     H160083   3.967   9.593   9.932
19947WAT     H260084   3.989   9.735   9.854
19948WAT      O60085   5.825   8.860   1.957
19948WAT     H160086   5.916   8.852   1.914
19948WAT     H260087   5.832   8.917   2.039
19949WAT      O60088   3.210   5.946   7.295
19949WAT     H160089   3.188   5.941   7.392
19949WAT     H260090   3.180   6.034   7.259
19950WAT      O60091   8.734   2.056   7.272
19950WAT     H160092   8.796   2.055   7.194
19950WAT     H260093   8.728   1.965   7.312
19951WAT      O60094   8.509   2.672   9.350
19951WAT     H160095   8.551   2.589   9.387
19951WAT     H260096   8.427   2.695   9.403
19952WAT      O60097   4.662   5.989   7.584
19952WAT     H160098   4.611   6.032   7.510
19952WAT     H260099   4.637   5.892   7.590
19953WAT      O60100   6.812   6.230   0.663
19953WAT     H160101   6.860   6.200   0.746
19953WAT     H260102   6.740   6.295   0.689
19954WAT      O60103   4.110   2.100   3.867
19954WAT     H160104   4.049   2.169   3.827
19954WAT     H260105   4.198   2.142   3.886
19955WAT      O60106   2.747   7.477   7.804
19955WAT     H160107   2.763   7.569   7.840
19955WAT     H260108   2.716   7.417   7.877
19956WAT      O60109   5.853   8.065   5.000
19956WAT     H160110   5.811   8.155   5.006
19956WAT     H260111   5.891   8.039   5.089
19957WAT      O60112   3.050   6.620   4.093
19957WAT     H160113   2.956   6.588   4.076
19957WAT     H260114   3.066   6.626   4.192
19958WAT      O60115   3.514   0.763   9.131
19958WAT     H160116   3.536   0.856   9.101
19958WAT     H260117   3.521   0.758   9.231
19959WAT      O60118   9.560   3.950   5.441
19959WAT     H160119   9.519   4.032   5.481
19959WAT     H260120   9.654   3.941   5.473
19960WAT      O60121   4.643   2.406   5.770
19960WAT     H160122   4.561   2.421   5.714
19960WAT     H260123   4.642   2.312   5.805
19961WAT      O60124   7.733   1.212   4.244
19961WAT     H160125   7.689   1.147   4.182
19961WAT     H260126   7.787   1.278   4.191
19962WAT      O60127   6.298   3.419   5.331
19962WAT     H160128   6.334   3.511   5.349
19962WAT     H260129   6.343   3.381   5.250
19963WAT      O60130   1.461   1.663   3.812
19963WAT     H160131   1.484   1.628   3.721
19963WAT     H260132   1.526   1.628   3.879
19964WAT      O60133   5.914   5.247   3.020
19964WAT     H160134   6.009   5.263   3.047
19964WAT     H260135   5.878   5.328   2.973
19965WAT      O60136   2.888   9.235   9.215
19965WAT     H160137   2.798   9.199   9.188
19965WAT     H260138   2.884   9.266   9.310
19966WAT      O60139   4.107   3.713   1.511
19966WAT     H160140   4.056   3.768   1.577
19966WAT     H260141   4.097   3.616   1.534
19967WAT      O60142   3.749   1.899   3.973
19967WAT     H160143   3.668   1.956   3.988
19967WAT     H260144   3.830   1.947   4.007
19968WAT      O60145   1.746   5.665   0.545
19968WAT     H160146   1.843   5.639   0.550
19968WAT     H260147   1.734   5.755   0.586
19969WAT      O60148   1.773   0.513   0.823
19969WAT     H160149   1.854   0.461   0.852
19969WAT     H260150   1.764   0.595   0.880
19970WAT      O60151   1.074   4.281   9.065
19970WAT     H160152   1.011   4.318   9.133
19970WAT     H260153   1.099   4.353   8.999
19971WAT      O60154   7.510   6.777   0.523
19971WAT     H160155   7.542   6.816   0.437
19971WAT     H260156   7.488   6.851   0.587
19972WAT      O60157   1.653   7.486   1.698
19972WAT     H160158   1.572   7.438   1.663
19972WAT     H260159   1.675   7.452   1.789
19973WAT      O60160   4.296   6.937   5.662
19973WAT     H160161   4.242   6.978   5.588
19973WAT     H260162   4.242   6.865   5.706
19974WAT      O60163   7.398   8.340   3.374
19974WAT     H160164   7.357   8.251   3.358
19974WAT     H260165   7.486   8.329   3.420
19975WAT      O60166   1.471   7.596   7.883
19975WAT     H160167   1.538   7.592   7.957
19975WAT     H260168   1.509   7.646   7.806
19976WAT      O60169   9.502   6.099   2.352
19976WAT     H160170   9.411   6.057   2.360
19976WAT     H260171   9.544   6.104   2.443
19977WAT      O60172   4.432   4.375   4.479
19977WAT     H160173   4.452   4.297   4.420
19977WAT     H260174   4.346   4.360   4.527
19978WAT      O60175   5.475   8.349   2.925
19978WAT     H160176   5.512   8.359   3.017
19978WAT     H260177   5.510   8.422   2.867
19979WAT      O60178   8.195   7.791   5.301
19979WAT     H160179   8.172   7.803   5.398
19979WAT     H260180   8.235   7.876   5.266
19980WAT      O60181   4.553   3.009   7.361
19980WAT     H160182   4.515   2.935   7.306
19980WAT     H260183   4.650   3.020   7.341
19981WAT      O60184   2.324   1.309   4.249
19981WAT     H160185   2.277   1.238   4.196
19981WAT     H260186   2.420   1.284   4.260
19982WAT      O60187   7.655   3.044   0.724
19982WAT     H160188   7.686   3.138   0.711
19982WAT     H260189   7.671   3.016   0.818
19983WAT      O60190   3.605   3.006   1.632
19983WAT     H160191   3.509   3.030   1.622
19983WAT     H260192   3.660   3.090   1.635
19984WAT      O60193   3.467   4.887   9.142
19984WAT     H160194   3.425   4.800   9.164
19984WAT     H260195   3.483   4.892   9.043
19985WAT      O60196   3.916   5.977   4.434
19985WAT     H160197   4.007   6.000   4.399
19985WAT     H260198   3.867   6.060   4.460
19986WAT      O60199   6.600   7.073   5.710
19986WAT     H160200   6.541   7.003   5.750
19986WAT     H260201   6.696   7.051   5.727
19987WAT      O60202   7.202   5.677   9.890
19987WAT     H160203   7.235   5.761   9.847
19987WAT     H260204   7.117   5.648   9.847
19988WAT      O60205   1.635   7.528   8.107
19988WAT     H160206   1.601   7.463   8.175
19988WAT     H260207   1.731   7.547   8.125
19989WAT      O60208   3.159   3.391   2.773
19989WAT     H160209   3.091   3.465   2.774
19989WAT     H260210   3.141   3.331   2.695
19990WAT      O60211   7.919   2.355   5.295
19990WAT     H160212   7.923   2.266   5.340
19990WAT     H260213   7.841   2.358   5.233
19991WAT      O60214   5.270   0.666   8.318
19991WAT     H160215   5.265   0.763   8.294
19991WAT     H260216   5.196   0.644   8.381
19992WAT      O60217   7.585   1.535   4.106
19992WAT     H160218   7.649   1.504   4.035
19992WAT     H260219   7.605   1.488   4.192
19993WAT      O60220   3.437   9.603   1.828
19993WAT     H160221   3.337   9.602   1.815
19993WAT     H260222   3.458   9.647   1.915
19994WAT      O60223   8.655   9.050   7.159
19994WAT     H160224   8.650   9.021   7.063
19994WAT     H260225   8.579   9.010   7.210
19995WAT      O60226   9.441   2.044   5.241
19995WAT     H160227   9.406   2.125   5.288
19995WAT     H260228   9.464   2.067   5.147
19996WAT      O60229   4.124   8.726   4.930
19996WAT     H160230   4.118   8.826   4.923
19996WAT     H260231   4.033   8.686   4.919
19997WAT      O60232   6.447   5.803   6.125
19997WAT     H160233   6.359   5.851   6.123
19997WAT     H260234   6.468   5.768   6.033
19998WAT      O60235   5.556   3.643   6.984
19998WAT     H160236   5.585   3.714   6.920
19998WAT     H260237   5.469   3.605   6.955
19999WAT      O60238   9.531   1.477   1.796
19999WAT     H160239   9.481   1.540   1.855
19999WAT     H260240   9.468   1.435   1.731
20000WAT      O60241   7.584   3.066   8.109
20000WAT     H160242   7.564   2.969   8.095
20000WAT     H260243   7.558   3.117   8.027
20001WAT      O60244   4.026   1.285   4.071
20001WAT     H160245   4.038   1.268   4.168
20001WAT     H260246   4.068   1.372   4.046
20002WAT      O60247   4.174   7.976   4.559
20002WAT     H160248   4.261   7.932   4.582
20002WAT     H260249   4.127   8.003   4.642
20003WAT      O60250   4.384   2.607   3.407
20003WAT     H160251   4.341   2.593   3.496
20003WAT     H260252   4.322   2.660   3.348
20004WAT      O60253   9.437   3.940   2.013
20004WAT     H160254   9.492   3.952   1.931
20004WAT     H260255   9.382   3.857   2.004
20005WAT      O60256   8.772   9.472   3.290
20005WAT     H160257   8.786   9.529   3.208
20005WAT     H260258   8.700   9.512   3.346
20006WAT      O60259   4.960   8.560   3.283
20006WAT     H160260   4.926   8.649   3.313
20006WAT     H260261   4.930   8.490   3.348
20007WAT      O60262   8.011   9.592   6.227
20007WAT     H160263   8.049   9.527   6.293
20007WAT     H260264   7.971   9.541   6.151
20008WAT      O60265   8.414   7.348   3.806
20008WAT     H160266   8.485   7.393   3.861
20008WAT     H260267   8.434   7.250   3.801
20009WAT      O60268   2.506   2.680   6.910
20009WAT     H160269   2.585   2.707   6.856
20009WAT     H260270   2.527   2.597   6.962
20010WAT      O60271   4.536   8.856   4.501
20010WAT     H160272   4.457   8.795   4.511
20010WAT     H260273   4.518   8.922   4.428
20011WAT      O60274   6.757   7.566   3.550
20011WAT     H160275   6.716   7.614   3.472
20011WAT     H260276   6.691   7.501   3.588
20012WAT      O60277   5.317   2.656   9.289
20012WAT     H160278   5.381   2.730   9.311
20012WAT     H260279   5.226   2.681   9.320
20013WAT      O60280   0.398   1.087   0.260
20013WAT     H160281   0.452   1.148   0.318
20013WAT     H260282   0.387   0.999   0.306
20014WAT      O60283   0.840   0.537   3.776
20014WAT     H160284   0.897   0.604   3.824
20014WAT     H260285   0.880   0.446   3.787
20015WAT      O60286   3.861   0.341   0.406
20015WAT     H160287   3.942   0.299   0.446
20015WAT     H260288   3.779   0.307   0.452
20016WAT      O60289   4.865   0.289   5.974
20016WAT     H160290   4.808   0.323   5.900
20016WAT     H260291   4.876   0.190   5.965
20017WAT      O60292   1.247   3.975   2.427
20017WAT     H160293   1.203   3.887   2.413
20017WAT     H260294   1.246   3.997   2.524
20018WAT      O60295   5.206   3.492   3.827
20018WAT     H160296   5.192   3.421   3.757
20018WAT     H260297   5.186   3.454   3.917
20019WAT      O60298   6.879   5.784   8.513
20019WAT     H160299   6.804   5.843   8.485
20019WAT     H260300   6.967   5.827   8.490
20020WAT      O60301   2.674   3.463   4.542
20020WAT     H160302   2.605   3.534   4.552
20020WAT     H260303   2.702   3.455   4.447
20021WAT      O60304   5.283   9.235   2.448
20021WAT     H160305   5.357   9.198   2.504
20021WAT     H260306   5.228   9.297   2.504
20022WAT      O60307   0.018   7.408   0.146
20022WAT     H160308  -0.061   7.355   0.178
20022WAT     H260309   0.077   7.429   0.223
20023WAT      O60310   6.357   7.012   0.380
20023WAT     H160311   6.363   6.937   0.446
20023WAT     H260312   6.413   6.990   0.300
20024WAT      O60313   6.448   2.428   1.930
20024WAT     H160314   6.533   2.482   1.923
20024WAT     H260315   6.430   2.408   2.026
20025WAT      O60316   3.912   0.598   2.682
20025WAT     H160317   3.908   0.689   2.641
20025WAT     H260318   3.835   0.543   2.650
20026WAT      O60319   0.604   8.608   1.411
20026WAT     H160320   0.675   8.676   1.429
20026WAT     H260321   0.642   8.535   1.353
20027WAT      O60322   7.090   3.728   7.272
20027WAT     H160323   7.183   3.715   7.240
20027WAT     H260324   7.026   3.719   7.195
20028WAT      O60325   1.304   2.877   2.486
20028WAT     H160326   1.349   2.929   2.558
20028WAT     H260327   1.206   2.871   2.506
20029WAT      O60328   8.119   3.452   9.829
20029WAT     H160329   8.030   3.493   9.808
20029WAT     H260330   8.108   3.384   9.902
20030WAT      O60331   6.669   7.815   2.937
20030WAT     H160332   6.655   7.911   2.965
20030WAT     H260333   6.695   7.813   2.841
20031WAT      O60334   8.759   1.324   6.854
20031WAT     H160335   8.790   1.418   6.841
20031WAT     H260336   8.770   1.273   6.769
20032WAT      O60337   1.023   2.206   7.326
20032WAT     H160338   1.054   2.148   7.251
20032WAT     H260339   0.960   2.275   7.290
20033WAT      O60340   2.854   8.882   9.020
20033WAT     H160341   2.773   8.909   8.967
20033WAT     H260342   2.936   8.917   8.974
20034WAT      O60343   3.475   5.183   1.401
20034WAT     H160344   3.560   5.132   1.391
20034WAT     H260345   3.411   5.130   1.457
20035WAT      O60346   3.447   1.462   9.245
20035WAT     H160347   3.515   1.396   9.277
20035WAT     H260348   3.356   1.432   9.271
20036WAT      O60349   0.949   4.903   0.625
20036WAT     H160350   1.005   4.882   0.545
20036WAT     H260351   0.875   4.836   0.632
20037WAT      O60352   8.788   5.987   5.208
20037WAT     H160353   8.699   6.012   5.171
20037WAT     H260354   8.778   5.955   5.302
20038WAT      O60355   5.040   5.332   2.974
20038WAT     H160356   4.984   5.398   3.025
20038WAT     H260357   5.097   5.380   2.908
20039WAT      O60358   1.957   0.882   3.004
20039WAT     H160359   2.031   0.924   3.057
20039WAT     H260360   1.950   0.929   2.916
20040WAT      O60361   0.494   8.755   7.791
20040WAT     H160362   0.561   8.769   7.718
20040WAT     H260363   0.539   8.710   7.869
20041WAT      O60364   2.453   1.318   0.340
20041WAT     H160365   2.454   1.289   0.245
20041WAT     H260366   2.515   1.261   0.393
20042WAT      O60367   8.971   2.684   4.365
20042WAT     H160368   8.890   2.691   4.307
20042WAT     H260369   8.947   2.642   4.452
20043WAT      O60370   6.763   2.365   5.655
20043WAT     H160371   6.846   2.328   5.614
20043WAT     H260372   6.688   2.361   5.589
20044WAT      O60373   4.812   1.379   4.186
20044WAT     H160374   4.823   1.341   4.094
20044WAT     H260375   4.779   1.307   4.248
20045WAT      O60376   5.420   9.395   4.503
20045WAT     H160377   5.382   9.329   4.568
20045WAT     H260378   5.374   9.484   4.516
20046WAT      O60379   2.350   4.745   1.343
20046WAT     H160380   2.369   4.823   1.283
20046WAT     H260381   2.327   4.665   1.287
20047WAT      O60382   0.619   8.772   0.527
20047WAT     H160383   0.598   8.717   0.608
20047WAT     H260384   0.548   8.842   0.516
20048WAT      O60385   4.685   2.484   6.467
20048WAT     H160386   4.604   2.425   6.461
20048WAT     H260387   4.755   2.439   6.522
20049WAT      O60388   4.646   5.302   4.148
20049WAT     H160389   4.746   5.298   4.145
20049WAT     H260390   4.616   5.397   4.148
20050WAT      O60391   6.225   0.367   5.765
20050WAT     H160392   6.218   0.267   5.765
20050WAT     H260393   6.254   0.398   5.856
20051WAT      O60394   9.638   8.763   6.630
20051WAT     H160395   9.624   8.731   6.723
20051WAT     H260396   9.613   8.860   6.624
20052WAT      O60397   5.796   2.822   8.829
20052WAT     H160398   5.716   2.880   8.844
20052WAT     H260399   5.770   2.741   8.777
20053WAT      O60400   5.559   9.322   5.623
20053WAT     H160401   5.477   9.272   5.598
20053WAT     H260402   5.537   9.388   5.695
20054WAT      O60403   0.526   3.506   1.346
20054WAT     H160404   0.488   3.508   1.438
20054WAT     H260405   0.565   3.596   1.324
20055WAT      O60406   4.653   7.180   6.421
20055WAT     H160407   4.750   7.162   6.438
20055WAT     H260408   4.640   7.278   6.407
20056WAT      O60409   3.884   3.010   2.759
20056WAT     H160410   3.827   3.069   2.817
20056WAT     H260411   3.829   2.977   2.682
20057WAT      O60412   4.633   3.161   2.984
20057WAT     H160413   4.688   3.098   3.037
20057WAT     H260414   4.619   3.246   3.035
20058WAT      O60415   0.609   3.406   3.473
20058WAT     H160416   0.655   3.495   3.476
20058WAT     H260417   0.573   3.384   3.564
20059WAT      O60418   5.848   6.378   1.137
20059WAT     H160419   5.901   6.422   1.210
20059WAT     H260420   5.790   6.307   1.177
20060WAT      O60421   9.830   3.290   7.013
20060WAT     H160422   9.809   3.236   7.094
20060WAT     H260423   9.810   3.237   6.931
20061WAT      O60424   7.689   7.267   4.188
20061WAT     H160425   7.703   7.298   4.094
20061WAT     H260426   7.651   7.174   4.186
20062WAT      O60427   2.237   1.176   5.552
20062WAT     H160428   2.233   1.273   5.577
20062WAT     H260429   2.173   1.125   5.609
20063WAT      O60430   3.496   9.259   0.066
20063WAT     H160431   3.419   9.298   0.015
20063WAT     H260432   3.469   9.244   0.161
20064WAT      O60433   3.482   9.125   3.161
20064WAT     H160434   3.514   9.217   3.184
20064WAT     H260435   3.429   9.089   3.238
20065WAT      O60436   0.394   4.123   3.275
20065WAT     H160437   0.326   4.192   3.299
20065WAT     H260438   0.352   4.032   3.279
20066WAT      O60439   3.005   2.527   8.094
20066WAT     H160440   2.940   2.509   8.021
20066WAT     H260441   2.980   2.474   8.175
20067WAT      O60442   9.129   0.591   4.698
20067WAT     H160443   9.056   0.569   4.764
20067WAT     H260444   9.112   0.681   4.659
20068WAT      O60445   9.665   7.655   1.998
20068WAT     H160446   9.701   7.579   1.944
20068WAT     H260447   9.685   7.641   2.094
20069WAT      O60448   1.592   1.605   8.915
20069WAT     H160449   1.599   1.579   9.011
20069WAT     H260450   1.627   1.531   8.858
20070WAT      O60451   1.524   0.025   3.735
20070WAT     H160452   1.572  -0.063   3.726
20070WAT     H260453   1.428   0.013   3.710
20071WAT      O60454   6.073   6.843   0.291
20071WAT     H160455   6.019   6.861   0.209
20071WAT     H260456   6.042   6.758   0.333
20072WAT      O60457   9.068   8.643   4.112
20072WAT     H160458   9.076   8.739   4.138
20072WAT     H260459   9.024   8.636   4.023
20073WAT      O60460   9.750   0.257   3.760
20073WAT     H160461   9.670   0.263   3.700
20073WAT     H260462   9.788   0.349   3.774
20074WAT      O60463   3.095   6.124   0.741
20074WAT     H160464   3.087   6.024   0.743
20074WAT     H260465   3.004   6.165   0.746
20075WAT      O60466   2.712   0.096   6.630
20075WAT     H160467   2.809   0.119   6.621
20075WAT     H260468   2.697   0.001   6.603
20076WAT      O60469   3.244   3.298   7.215
20076WAT     H160470   3.158   3.306   7.166
20076WAT     H260471   3.249   3.369   7.286
20077WAT      O60472   9.065   4.137   8.267
20077WAT     H160473   9.066   4.234   8.291
20077WAT     H260474   8.977   4.097   8.292
20078WAT      O60475   2.919   3.987   6.694
20078WAT     H160476   2.928   3.891   6.721
20078WAT     H260477   2.952   4.045   6.768
20079WAT      O60478   1.353   0.244   5.801
20079WAT     H160479   1.435   0.245   5.859
20079WAT     H260480   1.275   0.279   5.853
20080WAT      O60481   7.499   2.830   7.968
20080WAT     H160482   7.492   2.799   7.873
20080WAT     H260483   7.425   2.894   7.988
20081WAT      O60484   2.593   8.082   7.523
20081WAT     H160485   2.574   8.056   7.429
20081WAT     H260486   2.646   8.167   7.524
20082WAT      O60487   4.126   2.123   0.226
20082WAT     H160488   4.042   2.068   0.223
20082WAT     H260489   4.167   2.124   0.134
20083WAT      O60490   2.689   6.511   6.760
20083WAT     H160491   2.776   6.560   6.755
20083WAT     H260492   2.706   6.413   6.754
20084WAT      O60493   8.255   2.141   2.856
20084WAT     H160494   8.252   2.176   2.950
20084WAT     H260495   8.202   2.057   2.850
20085WAT      O60496   7.993   7.534   8.342
20085WAT     H160497   7.913   7.593   8.326
20085WAT     H260498   7.987   7.496   8.435
20086WAT      O60499   7.906   9.272   7.938
20086WAT     H160500   7.928   9.228   7.851
20086WAT     H260501   7.854   9.209   7.995
20087WAT      O60502   0.885   6.068   4.699
20087WAT     H160503   0.836   6.022   4.625
20087WAT     H260504   0.977   6.091   4.670
20088WAT      O60505   8.727   9.159   4.335
20088WAT     H160506   8.728   9.137   4.237
20088WAT     H260507   8.817   9.191   4.363
20089WAT      O60508   8.750   7.392   0.892
20089WAT     H160509   8.704   7.469   0.935
20089WAT     H260510   8.748   7.313   0.953
20090WAT      O60511   8.582   6.306   5.359
20090WAT     H160512   8.578   6.274   5.453
20090WAT     H260513   8.671   6.281   5.320
20091WAT      O60514   8.875   8.042   8.462
20091WAT     H160515   8.939   7.967   8.477
20091WAT     H260516   8.897   8.089   8.377
20092WAT      O60517   4.918   8.949   8.482
20092WAT     H160518   4.827   8.986   8.503
20092WAT     H260519   4.981   9.023   8.463
20093WAT      O60520   2.208   3.328   5.986
20093WAT     H160521   2.180   3.290   5.898
20093WAT     H260522   2.229   3.253   6.049
20094WAT      O60523   1.143   2.137   0.705
20094WAT     H160524   1.122   2.146   0.607
20094WAT     H260525   1.135   2.227   0.749
20095WAT      O60526   2.088   5.372   9.571
20095WAT     H160527   2.048   5.303   9.631
20095WAT     H260528   2.180   5.394   9.603
20096WAT      O60529   4.205   9.460   6.095
20096WAT     H160530   4.222   9.529   6.165
20096WAT     H260531   4.107   9.452   6.079
20097WAT      O60532   5.486   1.232   1.442
20097WAT     H160533   5.543   1.244   1.523
20097WAT     H260534   5.514   1.296   1.371
20098WAT      O60535   7.618   4.736   5.892
20098WAT     H160536   7.660   4.668   5.951
20098WAT     H260537   7.687   4.805   5.866
20099WAT      O60538   9.393   3.687   9.768
20099WAT     H160539   9.472   3.737   9.732
20099WAT     H260540   9.390   3.596   9.727
20100WAT      O60541   4.504   1.345   1.055
20100WAT     H160542   4.527   1.395   0.972
20100WAT     H260543   4.469   1.254   1.032
20101WAT      O60544   1.999   5.761   3.037
20101WAT     H160545   1.973   5.821   2.962
20101WAT     H260546   2.076   5.801   3.087
20102WAT      O60547   4.732   5.851   9.504
20102WAT     H160548   4.691   5.765   9.474
20102WAT     H260549   4.661   5.920   9.514
20103WAT      O60550   8.694   5.016   8.459
20103WAT     H160551   8.611   5.070   8.443
20103WAT     H260552   8.732   5.039   8.548
20104WAT      O60553   0.192   8.938   1.256
20104WAT     H160554   0.235   9.026   1.236
20104WAT     H260555   0.092   8.948   1.254
20105WAT      O60556   5.949   4.748   3.691
20105WAT     H160557   5.991   4.678   3.748
20105WAT     H260558   5.851   4.728   3.679
20106WAT      O60559   9.080   3.392   9.075
20106WAT     H160560   9.012   3.370   9.146
20106WAT     H260561   9.086   3.316   9.010
20107WAT      O60562   6.135   6.416   7.450
20107WAT     H160563   6.120   6.441   7.354
20107WAT     H260564   6.051   6.430   7.501
20108WAT      O60565   5.501   9.006   4.741
20108WAT     H160566   5.506   8.923   4.685
20108WAT     H260567   5.591   9.022   4.783
20109WAT      O60568   9.401   1.074   1.375
20109WAT     H160569   9.409   1.125   1.289
20109WAT     H260570   9.306   1.046   1.387
20110WAT      O60571   4.146   7.128   7.591
20110WAT     H160572   4.049   7.103   7.584
20110WAT     H260573   4.201   7.064   7.537
20111WAT      O60574   7.988   5.538   8.532
20111WAT     H160575   8.071   5.503   8.576
20111WAT     H260576   7.941   5.463   8.485
20112WAT      O60577   4.076   5.128   3.475
20112WAT     H160578   4.004   5.180   3.430
20112WAT     H260579   4.044   5.097   3.564
20113WAT      O60580   5.584   8.977   8.048
20113WAT     H160581   5.509   9.023   8.001
20113WAT     H260582   5.638   8.925   7.981
20114WAT      O60583   8.302   4.308   6.321
20114WAT     H160584   8.316   4.404   6.345
20114WAT     H260585   8.204   4.287   6.322
20115WAT      O60586   9.615   2.454   0.486
20115WAT     H160587   9.588   2.500   0.571
20115WAT     H260588   9.667   2.371   0.508
20116WAT      O60589   7.875   8.899   8.169
20116WAT     H160590   7.854   8.983   8.220
20116WAT     H260591   7.918   8.922   8.082
20117WAT      O60592   8.296   7.544   2.733
20117WAT     H160593   8.223   7.532   2.800
20117WAT     H260594   8.376   7.585   2.777
20118WAT      O60595   7.410   9.831   7.304
20118WAT     H160596   7.507   9.857   7.307
20118WAT     H260597   7.386   9.785   7.389
20119WAT      O60598   1.776   0.243   6.165
20119WAT     H160599   1.791   0.301   6.245
20119WAT     H260600   1.850   0.176   6.157
20120WAT      O60601   4.157   6.805   1.701
20120WAT     H160602   4.158   6.844   1.609
20120WAT     H260603   4.071   6.758   1.716
20121WAT      O60604   0.173   3.431   9.219
20121WAT     H160605   0.154   3.360   9.287
20121WAT     H260606   0.271   3.443   9.210
20122WAT      O60607   6.994   6.327   2.447
20122WAT     H160608   7.061   6.307   2.376
20122WAT     H260609   6.972   6.243   2.497
20123WAT      O60610   3.612   9.108   4.076
20123WAT     H160611   3.584   9.202   4.094
20123WAT     H260612   3.707   9.107   4.044
20124WAT      O60613   7.086   4.294   1.540
20124WAT     H160614   7.164   4.308   1.478
20124WAT     H260615   7.065   4.379   1.587
20125WAT      O60616   9.001   7.954   5.189
20125WAT     H160617   8.928   8.003   5.142
20125WAT     H260618   9.089   7.996   5.168
20126WAT      O60619   6.990   2.077   1.215
20126WAT     H160620   6.933   1.998   1.192
20126WAT     H260621   7.086   2.055   1.199
20127WAT      O60622   8.093   7.915   9.382
20127WAT     H160623   8.045   7.862   9.312
20127WAT     H260624   8.072   7.879   9.472
20128WAT      O60625   8.914   8.739   7.951
20128WAT     H160626   8.908   8.651   7.903
20128WAT     H260627   8.865   8.808   7.898
20129WAT      O60628   8.585   7.969   1.393
20129WAT     H160629   8.578   8.007   1.485
20129WAT     H260630   8.614   7.873   1.398
20130WAT      O60631   4.368   1.561   6.741
20130WAT     H160632   4.424   1.516   6.811
20130WAT     H260633   4.420   1.567   6.656
20131WAT      O60634   1.495   0.275   8.587
20131WAT     H160635   1.513   0.198   8.650
20131WAT     H260636   1.428   0.337   8.629
20132WAT      O60637   4.164   0.672   7.383
20132WAT     H160638   4.237   0.732   7.417
20132WAT     H260639   4.192   0.632   7.296
20133WAT      O60640   1.265   7.377   0.641
20133WAT     H160641   1.316   7.461   0.660
20133WAT     H260642   1.280   7.350   0.546
20134WAT      O60643   0.439   7.936   4.051
20134WAT     H160644   0.485   7.854   4.083
20134WAT     H260645   0.361   7.956   4.111
20135WAT      O60646   7.407   2.178   2.679
20135WAT     H160647   7.326   2.227   2.712
20135WAT     H260648   7.451   2.231   2.606
20136WAT      O60649   0.872   7.835   2.480
20136WAT     H160650   0.897   7.874   2.569
20136WAT     H260651   0.803   7.764   2.492
20137WAT      O60652   4.587   5.559   1.133
20137WAT     H160653   4.634   5.505   1.063
20137WAT     H260654   4.506   5.602   1.094
20138WAT      O60655   6.875   6.184   4.373
20138WAT     H160656   6.824   6.214   4.454
20138WAT     H260657   6.961   6.142   4.400
20139WAT      O60658   2.336   8.815   8.249
20139WAT     H160659   2.332   8.818   8.149
20139WAT     H260660   2.424   8.850   8.280
20140WAT      O60661   5.520   2.592   6.126
20140WAT     H160662   5.505   2.570   6.222
20140WAT     H260663   5.469   2.528   6.068
20141WAT      O60664   1.847   1.743   8.601
20141WAT     H160665   1.812   1.654   8.629
20141WAT     H260666   1.771   1.805   8.584
20142WAT      O60667   6.975   8.979   8.944
20142WAT     H160668   6.909   8.912   8.908
20142WAT     H260669   7.011   8.946   9.031
20143WAT      O60670   5.926   8.920   2.334
20143WAT     H160671   5.850   8.902   2.397
20143WAT     H260672   5.890   8.954   2.247
20144WAT      O60673   0.532   5.498   5.561
20144WAT     H160674   0.549   5.575   5.622
20144WAT     H260675   0.480   5.530   5.481
20145WAT      O60676   5.912   6.776   1.375
20145WAT     H160677   5.914   6.837   1.454
20145WAT     H260678   6.003   6.739   1.359
20146WAT      O60679   8.427   7.915   1.676
20146WAT     H160680   8.519   7.889   1.704
20146WAT     H260681   8.408   8.008   1.707
20147WAT      O60682   5.025   1.068   0.354
20147WAT     H160683   5.107   1.043   0.406
20147WAT     H260684   4.958   1.109   0.416
20148WAT      O60685   2.826   7.587   1.919
20148WAT     H160686   2.840   7.681   1.887
20148WAT     H260687   2.765   7.588   1.999
20149WAT      O60688   3.107   9.626   2.751
20149WAT     H160689   3.081   9.637   2.847
20149WAT     H260690   3.204   9.645   2.740
20150WAT      O60691   9.088   2.175   0.821
20150WAT     H160692   8.993   2.198   0.802
20150WAT     H260693   9.139   2.170   0.735
20151WAT      O60694   7.832   2.549   1.784
20151WAT     H160695   7.867   2.641   1.768
20151WAT     H260696   7.909   2.486   1.797
20152WAT      O60697   5.954   7.019   2.904
20152WAT     H160698   5.929   7.116   2.899
20152WAT     H260699   5.890   6.966   2.848
20153WAT      O60700   1.068   1.501   5.826
20153WAT     H160701   0.976   1.533   5.803
20153WAT     H260702   1.080   1.407   5.794
20154WAT      O60703   2.792   8.835   5.292
20154WAT     H160704   2.820   8.750   5.337
20154WAT     H260705   2.793   8.910   5.358
20155WAT      O60706   3.694   2.587   1.925
20155WAT     H160707   3.708   2.538   2.011
20155WAT     H260708   3.782   2.617   1.889
20156WAT      O60709   0.603   9.032   6.670
20156WAT     H160710   0.660   9.113   6.687
20156WAT     H260711   0.512   9.047   6.708
20157WAT      O60712   8.730   2.836   7.725
20157WAT     H160713   8.687   2.751   7.696
20157WAT     H260714   8.805   2.858   7.664
20158WAT      O60715   9.209   1.226   1.706
20158WAT     H160716   9.215   1.153   1.775
20158WAT     H260717   9.125   1.216   1.654
20159WAT      O60718   5.762   9.184   4.314
20159WAT     H160719   5.672   9.141   4.305
20159WAT     H260720   5.830   9.130   4.265
20160WAT      O60721   9.185   3.643   5.866
20160WAT     H160722   9.201   3.551   5.901
20160WAT     H260723   9.183   3.707   5.943
20161WAT      O60724   6.171   4.860   5.984
20161WAT     H160725   6.165   4.852   6.083
20161WAT     H260726   6.093   4.912   5.950
20162WAT      O60727   5.708   9.026   0.632
20162WAT     H160728   5.682   9.120   0.608
20162WAT     H260729   5.766   8.988   0.560
20163WAT      O60730   0.321   1.480   8.744
20163WAT     H160731   0.234   1.482   8.794
20163WAT     H260732   0.390   1.532   8.793
20164WAT      O60733   3.347   8.005   6.378
20164WAT     H160734   3.421   7.945   6.348
20164WAT     H260735   3.385   8.092   6.409
20165WAT      O60736   3.359   2.816   0.191
20165WAT     H160737   3.355   2.746   0.262
20165WAT     H260738   3.445   2.810   0.142
20166WAT      O60739   3.147   5.675   1.957
20166WAT     H160740   3.128   5.754   1.900
20166WAT     H260741   3.061   5.638   1.993
20167WAT      O60742   4.664   7.775   4.203
20167WAT     H160743   4.676   7.844   4.274
20167WAT     H260744   4.567   7.750   4.197
20168WAT      O60745   8.278   0.264   4.643
20168WAT     H160746   8.359   0.213   4.672
20168WAT     H260747   8.203   0.201   4.624
20169WAT      O60748   9.163   9.102   4.317
20169WAT     H160749   9.248   9.062   4.350
20169WAT     H260750   9.091   9.032   4.319
20170WAT      O60751   2.969   6.607   3.826
20170WAT     H160752   3.014   6.611   3.915
20170WAT     H260753   2.929   6.516   3.814
20171WAT      O60754   8.193   1.288   0.945
20171WAT     H160755   8.176   1.220   1.016
20171WAT     H260756   8.251   1.361   0.982
20172WAT      O60757   9.523   6.549   7.484
20172WAT     H160758   9.502   6.516   7.392
20172WAT     H260759   9.443   6.591   7.524
20173WAT      O60760   1.296   6.935   3.213
20173WAT     H160761   1.301   6.853   3.156
20173WAT     H260762   1.291   7.016   3.155
20174WAT      O60763   4.605   6.324   9.518
20174WAT     H160764   4.565   6.314   9.609
20174WAT     H260765   4.557   6.395   9.468
20175WAT      O60766   6.455   5.191   7.104
20175WAT     H160767   6.427   5.249   7.180
20175WAT     H260768   6.550   5.163   7.117
20176WAT      O60769   0.374   3.890   2.232
20176WAT     H160770   0.373   3.794   2.206
20176WAT     H260771   0.402   3.946   2.154
20177WAT      O60772   4.172   6.769   3.385
20177WAT     H160773   4.251   6.721   3.347
20177WAT     H260774   4.201   6.824   3.463
20178WAT      O60775   2.480   8.156   4.209
20178WAT     H160776   2.578   8.165   4.228
20178WAT     H260777   2.466   8.084   4.141
20179WAT      O60778   2.209   3.531   5.432
20179WAT     H160779   2.275   3.549   5.505
20179WAT     H260780   2.232   3.586   5.352
20180WAT      O60781   0.781   8.727   8.651
20180WAT     H160782   0.862   8.706   8.597
20180WAT     H260783   0.710   8.767   8.592
20181WAT      O60784   1.829   7.689   6.544
20181WAT     H160785   1.779   7.661   6.626
20181WAT     H260786   1.816   7.786   6.528
20182WAT      O60787   7.825   5.273   3.491
20182WAT     H160788   7.775   5.244   3.573
20182WAT     H260789   7.864   5.364   3.507
20183WAT      O60790   6.472   1.810   7.725
20183WAT     H160791   6.505   1.804   7.819
20183WAT     H260792   6.389   1.866   7.722
20184WAT      O60793   7.691   3.014   4.812
20184WAT     H160794   7.727   2.930   4.853
20184WAT     H260795   7.593   3.021   4.828
20185WAT      O60796   1.110   0.842   0.975
20185WAT     H160797   1.052   0.826   1.055
20185WAT     H260798   1.206   0.835   1.001
20186WAT      O60799   4.223   0.632   2.624
20186WAT     H160800   4.158   0.583   2.682
20186WAT     H260801   4.249   0.717   2.669
20187WAT      O60802   4.758   0.815   5.576
20187WAT     H160803   4.677   0.868   5.599
20187WAT     H260804   4.731   0.732   5.526
20188WAT      O60805   7.278   8.575   6.450
20188WAT     H160806   7.317   8.484   6.463
20188WAT     H260807   7.241   8.609   6.536
20189WAT      O60808   0.658   2.373   2.619
20189WAT     H160809   0.627   2.422   2.700
20189WAT     H260810   0.634   2.425   2.537
20190WAT      O60811   7.239   0.975   8.198
20190WAT     H160812   7.168   1.031   8.156
20190WAT     H260813   7.234   0.882   8.161
20191WAT      O60814   8.467   9.134   4.975
20191WAT     H160815   8.434   9.068   5.042
20191WAT     H260816   8.511   9.210   5.021
20192WAT      O60817   8.641   5.402   5.741
20192WAT     H160818   8.694   5.340   5.799
20192WAT     H260819   8.690   5.489   5.732
20193WAT      O60820   6.738   6.758   5.400
20193WAT     H160821   6.678   6.691   5.443
20193WAT     H260822   6.710   6.850   5.427
20194WAT      O60823   2.331   0.261   7.384
20194WAT     H160824   2.429   0.244   7.370
20194WAT     H260825   2.295   0.315   7.308
20195WAT      O60826   7.362   6.695   4.915
20195WAT     H160827   7.336   6.787   4.944
20195WAT     H260828   7.384   6.695   4.818
20196WAT      O60829   5.306   1.560   3.927
20196WAT     H160830   5.325   1.461   3.929
20196WAT     H260831   5.386   1.609   3.961
20197WAT      O60832   4.949   1.066   1.568
20197WAT     H160833   4.962   1.126   1.490
20197WAT     H260834   4.978   1.113   1.652
20198WAT      O60835   2.232   7.440   4.094
20198WAT     H160836   2.315   7.496   4.092
20198WAT     H260837   2.238   7.374   4.168
20199WAT      O60838   8.424   0.588   9.704
20199WAT     H160839   8.340   0.551   9.666
20199WAT     H260840   8.403   0.668   9.761
20200WAT      O60841   2.270   6.514   0.955
20200WAT     H160842   2.234   6.421   0.944
20200WAT     H260843   2.199   6.572   0.996
20201WAT      O60844   4.126   9.079   9.845
20201WAT     H160845   4.066   9.013   9.892
20201WAT     H260846   4.076   9.163   9.828
20202WAT      O60847   1.593   5.776   4.734
20202WAT     H160848   1.568   5.799   4.828
20202WAT     H260849   1.689   5.798   4.719
20203WAT      O60850   8.679   7.924   2.771
20203WAT     H160851   8.609   7.920   2.843
20203WAT     H260852   8.660   7.853   2.703
20204WAT      O60853   2.262   3.365   6.816
20204WAT     H160854   2.224   3.314   6.893
20204WAT     H260855   2.313   3.444   6.851
20205WAT      O60856   0.887   4.477   7.041
20205WAT     H160857   0.981   4.465   7.008
20205WAT     H260858   0.847   4.558   6.997
20206WAT      O60859   4.906   8.800   6.488
20206WAT     H160860   4.854   8.726   6.445
20206WAT     H260861   4.898   8.883   6.433
20207WAT      O60862   8.917   7.778   4.212
20207WAT     H160863   8.996   7.839   4.205
20207WAT     H260864   8.901   7.755   4.308
20208WAT      O60865   5.761   8.844   7.884
20208WAT     H160866   5.846   8.841   7.938
20208WAT     H260867   5.783   8.869   7.790
20209WAT      O60868   2.184   7.823   9.735
20209WAT     H160869   2.159   7.802   9.641
20209WAT     H260870   2.280   7.851   9.739
20210WAT      O60871   6.812   4.266   7.233
20210WAT     H160872   6.776   4.358   7.215
20210WAT     H260873   6.908   4.262   7.208
20211WAT      O60874   2.676   1.359   3.143
20211WAT     H160875   2.662   1.262   3.123
20211WAT     H260876   2.638   1.415   3.070
20212WAT      O60877   6.388   8.340   5.310
20212WAT     H160878   6.372   8.259   5.252
20212WAT     H260879   6.404   8.420   5.252
20213WAT      O60880   1.165   4.438   4.872
20213WAT     H160881   1.151   4.535   4.855
20213WAT     H260882   1.105   4.385   4.812
20214WAT      O60883   3.364   5.979   8.188
20214WAT     H160884   3.283   6.036   8.171
20214WAT     H260885   3.435   6.003   8.123
20215WAT      O60886   0.063   8.143   2.791
20215WAT     H160887   0.005   8.188   2.859
20215WAT     H260888   0.122   8.076   2.836
20216WAT      O60889   2.368   1.089   0.603
20216WAT     H160890   2.356   1.008   0.546
20216WAT     H260891   2.292   1.095   0.668
20217WAT      O60892   1.246   3.947   4.790
20217WAT     H160893   1.285   4.036   4.816
20217WAT     H260894   1.191   3.957   4.707
20218WAT      O60895   9.630   7.077   7.042
20218WAT     H160896   9.662   7.043   6.953
20218WAT     H260897   9.708   7.113   7.094
20219WAT      O60898   6.564   3.655   0.902
20219WAT     H160899   6.475   3.699   0.891
20219WAT     H260900   6.553   3.556   0.900
20220WAT      O60901   8.545   2.044   9.724
20220WAT     H160902   8.562   2.021   9.820
20220WAT     H260903   8.566   2.140   9.708
20221WAT      O60904   2.734   6.537   1.099
20221WAT     H160905   2.695   6.629   1.106
20221WAT     H260906   2.829   6.539   1.131
20222WAT      O60907   3.253   0.855   1.321
20222WAT     H160908   3.266   0.914   1.401
20222WAT     H260909   3.222   0.765   1.351
20223WAT      O60910   3.843   4.424   8.755
20223WAT     H160911   3.751   4.455   8.731
20223WAT     H260912   3.893   4.400   8.672
20224WAT      O60913   6.282   1.941   3.915
20224WAT     H160914   6.220   2.018   3.901
20224WAT     H260915   6.239   1.857   3.881
20225WAT      O60916   5.407   5.705   1.448
20225WAT     H160917   5.443   5.745   1.364
20225WAT     H260918   5.482   5.687   1.511
20226WAT      O60919   6.814   9.622   4.434
20226WAT     H160920   6.892   9.604   4.494
20226WAT     H260921   6.829   9.708   4.385
20227WAT      O60922   7.453   5.716   1.708
20227WAT     H160923   7.469   5.699   1.611
20227WAT     H260924   7.507   5.795   1.737
20228WAT      O60925   4.566   4.970   2.334
20228WAT     H160926   4.535   4.929   2.247
20228WAT     H260927   4.614   4.901   2.388
20229WAT      O60928   3.741   0.471   9.550
20229WAT     H160929   3.780   0.465   9.642
20229WAT     H260930   3.654   0.421   9.547
20230WAT      O60931   7.264   5.401   3.090
20230WAT     H160932   7.225   5.476   3.037
20230WAT     H260933   7.222   5.398   3.180
20231WAT      O60934   8.325   3.646   5.762
20231WAT     H160935   8.285   3.566   5.806
20231WAT     H260936   8.253   3.703   5.724
20232WAT      O60937   1.397   6.942   0.637
20232WAT     H160938   1.314   6.893   0.666
20232WAT     H260939   1.476   6.882   0.649
20233WAT      O60940   6.331   4.126   6.004
20233WAT     H160941   6.294   4.113   5.912
20233WAT     H260942   6.345   4.037   6.048
20234WAT      O60943   3.381   4.307   7.108
20234WAT     H160944   3.447   4.313   7.182
20234WAT     H260945   3.411   4.363   7.031
20235WAT      O60946   3.304   4.886   4.000
20235WAT     H160947   3.264   4.834   4.075
20235WAT     H260948   3.236   4.898   3.928
20236WAT      O60949   6.754   1.277   8.358
20236WAT     H160950   6.664   1.248   8.391
20236WAT     H260951   6.787   1.353   8.413
20237WAT      O60952   6.874   6.024   6.197
20237WAT     H160953   6.780   6.017   6.163
20237WAT     H260954   6.875   6.004   6.295
20238WAT      O60955   4.391   1.736   3.596
20238WAT     H160956   4.447   1.672   3.650
20238WAT     H260957   4.387   1.824   3.643
20239WAT      O60958   8.362   0.528   3.137
20239WAT     H160959   8.373   0.568   3.046
20239WAT     H260960   8.448   0.485   3.165
20240WAT      O60961   8.179   3.595   7.323
20240WAT     H160962   8.257   3.655   7.341
20240WAT     H260963   8.212   3.503   7.302
20241WAT      O60964   3.896   7.747   8.136
20241WAT     H160965   3.911   7.745   8.234
20241WAT     H260966   3.889   7.653   8.101
20242WAT      O60967   8.941   7.373   7.283
20242WAT     H160968   8.869   7.415   7.228
20242WAT     H260969   8.987   7.302   7.229
20243WAT      O60970   4.078   5.587   1.028
20243WAT     H160971   4.033   5.672   1.004
20243WAT     H260972   4.065   5.520   0.954
20244WAT      O60973   6.676   2.482   8.288
20244WAT     H160974   6.683   2.404   8.351
20244WAT     H260975   6.751   2.479   8.222
20245WAT      O60976   5.056   2.223   3.867
20245WAT     H160977   4.962   2.222   3.832
20245WAT     H260978   5.101   2.307   3.837
20246WAT      O60979   3.053   1.715   9.884
20246WAT     H160980   3.058   1.775   9.964
20246WAT     H260981   3.048   1.620   9.914
20247WAT      O60982   3.897   1.543   5.762
20247WAT     H160983   3.920   1.612   5.693
20247WAT     H260984   3.850   1.587   5.838
20248WAT      O60985   8.068   7.164   9.702
20248WAT     H160986   8.057   7.066   9.717
20248WAT     H260987   8.151   7.180   9.649
20249WAT      O60988   2.793   5.437   4.621
20249WAT     H160989   2.847   5.506   4.573
20249WAT     H260990   2.707   5.477   4.653
20250WAT      O60991   6.603   8.693   4.802
20250WAT     H160992   6.638   8.600   4.800
20250WAT     H260993   6.616   8.732   4.894
20251WAT      O60994   5.173   3.804   8.921
20251WAT     H160995   5.145   3.824   8.827
20251WAT     H260996   5.101   3.835   8.985
20252WAT      O60997   3.377   5.427   3.236
20252WAT     H160998   3.379   5.488   3.156
20252WAT     H260999   3.334   5.341   3.211
20253WAT      O61000   1.140   6.319   8.965
20253WAT     H161001   1.085   6.244   9.003
20253WAT     H261002   1.087   6.404   8.967
20254WAT      O61003   9.597   0.190   6.236
20254WAT     H161004   9.593   0.123   6.310
20254WAT     H261005   9.607   0.282   6.275
20255WAT      O61006   7.313   6.509   0.140
20255WAT     H161007   7.228   6.461   0.157
20255WAT     H261008   7.380   6.484   0.210
20256WAT      O61009   0.493   4.404   0.872
20256WAT     H161010   0.487   4.504   0.876
20256WAT     H261011   0.434   4.365   0.943
20257WAT      O61012   0.394   7.825   2.076
20257WAT     H161013   0.365   7.920   2.073
20257WAT     H261014   0.410   7.791   1.984
20258WAT      O61015   5.318   1.169   0.264
20258WAT     H161016   5.279   1.110   0.334
20258WAT     H261017   5.387   1.229   0.306
20259WAT      O61018   7.031   1.162   8.472
20259WAT     H161019   6.989   1.122   8.391
20259WAT     H261020   7.003   1.111   8.553
20260WAT      O61021   1.703   0.727   7.685
20260WAT     H161022   1.691   0.719   7.784
20260WAT     H261023   1.714   0.823   7.660
20261WAT      O61024   2.164   3.197   2.292
20261WAT     H161025   2.180   3.248   2.376
20261WAT     H261026   2.248   3.151   2.264
20262WAT      O61027   4.387   0.525   7.091
20262WAT     H161028   4.314   0.541   7.025
20262WAT     H261029   4.450   0.603   7.090
20263WAT      O61030   8.053   4.465   6.458
20263WAT     H161031   8.074   4.542   6.518
20263WAT     H261032   8.058   4.380   6.510
20264WAT      O61033   8.933   8.743   9.020
20264WAT     H161034   8.981   8.705   9.100
20264WAT     H261035   8.835   8.745   9.039
20265WAT      O61036   5.168   2.342   7.519
20265WAT     H161037   5.112   2.262   7.537
20265WAT     H261038   5.263   2.323   7.545
20266WAT      O61039   2.860   4.268   3.576
20266WAT     H161040   2.953   4.255   3.610
20266WAT     H261041   2.860   4.340   3.506
20267WAT      O61042   5.228   4.002   9.207
20267WAT     H161043   5.300   3.933   9.205
20267WAT     H261044   5.141   3.960   9.182
20268WAT      O61045   8.049   3.112   8.085
20268WAT     H161046   8.119   3.179   8.061
20268WAT     H261047   8.076   3.066   8.170
20269WAT      O61048   9.792   9.219   0.871
20269WAT     H161049   9.853   9.145   0.899
20269WAT     H261050   9.710   9.219   0.928
20270WAT      O61051   0.747   9.149   0.318
20270WAT     H161052   0.818   9.082   0.337
20270WAT     H261053   0.729   9.152   0.219
20271WAT      O61054   5.501   2.583   8.448
20271WAT     H161055   5.412   2.542   8.429
20271WAT     H261056   5.559   2.517   8.495
20272WAT      O61057   6.536   6.627   8.703
20272WAT     H161058   6.479   6.573   8.641
20272WAT     H261059   6.559   6.714   8.659
20273WAT      O61060   8.148   5.052   5.408
20273WAT     H161061   8.091   4.971   5.424
20273WAT     H261062   8.089   5.128   5.380
20274WAT      O61063   9.786   3.217   7.274
20274WAT     H161064   9.804   3.296   7.332
20274WAT     H261065   9.839   3.138   7.307
20275WAT      O61066   0.733   1.721   1.632
20275WAT     H161067   0.695   1.805   1.594
20275WAT     H261068   0.772   1.739   1.722
20276WAT      O61069   7.643   9.550   5.737
20276WAT     H161070   7.678   9.643   5.741
20276WAT     H261071   7.543   9.552   5.734
20277WAT      O61072   5.936   0.706   6.031
20277WAT     H161073   6.004   0.720   5.959
20277WAT     H261074   5.883   0.623   6.012
20278WAT      O61075   3.855   7.479   0.460
20278WAT     H161076   3.904   7.553   0.413
20278WAT     H261077   3.873   7.393   0.414
20279WAT      O61078   4.855   1.360   2.193
20279WAT     H161079   4.826   1.453   2.216
20279WAT     H261080   4.922   1.363   2.119
20280WAT      O61081   9.809   9.774   4.401
20280WAT     H161082   9.723   9.814   4.432
20280WAT     H261083   9.795   9.728   4.313
20281WAT      O61084   7.696   9.336   9.353
20281WAT     H161085   7.782   9.332   9.404
20281WAT     H261086   7.705   9.402   9.278
20282WAT      O61087   8.582   6.823   6.014
20282WAT     H161088   8.487   6.847   5.995
20282WAT     H261089   8.613   6.873   6.096
20283WAT      O61090   6.332   4.756   9.544
20283WAT     H161091   6.239   4.737   9.514
20283WAT     H261092   6.353   4.701   9.625
20284WAT      O61093   4.654   9.425   3.277
20284WAT     H161094   4.706   9.510   3.291
20284WAT     H261095   4.717   9.352   3.250
20285WAT      O61096   8.321   4.285   1.017
20285WAT     H161097   8.231   4.249   0.991
20285WAT     H261098   8.308   4.367   1.073
20286WAT      O61099   8.571   0.252   1.045
20286WAT     H161100   8.558   0.182   1.116
20286WAT     H261101   8.661   0.294   1.057
20287WAT      O61102   8.049   4.394   5.106
20287WAT     H161103   7.975   4.457   5.087
20287WAT     H261104   8.033   4.308   5.057
20288WAT      O61105   3.663   8.373   2.226
20288WAT     H161106   3.663   8.394   2.128
20288WAT     H261107   3.661   8.274   2.239
20289WAT      O61108   0.804   5.746   2.945
20289WAT     H161109   0.862   5.825   2.926
20289WAT     H261110   0.708   5.772   2.933
20290WAT      O61111   1.355   2.100   5.489
20290WAT     H161112   1.315   2.075   5.577
20290WAT     H261113   1.420   2.174   5.501
20291WAT      O61114   2.071   2.445   6.107
20291WAT     H161115   2.000   2.388   6.149
20291WAT     H261116   2.065   2.538   6.144
20292WAT      O61117   7.148   5.609   0.757
20292WAT     H161118   7.205   5.685   0.726
20292WAT     H261119   7.109   5.562   0.678
20293WAT      O61120   5.834   1.566   1.414
20293WAT     H161121   5.815   1.573   1.316
20293WAT     H261122   5.912   1.625   1.437
20294WAT      O61123   7.398   2.955   0.284
20294WAT     H161124   7.464   3.030   0.296
20294WAT     H261125   7.305   2.991   0.288
20295WAT      O61126   9.020   6.733   7.502
20295WAT     H161127   9.001   6.731   7.600
20295WAT     H261128   8.959   6.669   7.456
20296WAT      O61129   4.554   8.019   5.048
20296WAT     H161130   4.630   8.083   5.052
20296WAT     H261131   4.495   8.042   4.970
20297WAT      O61132   4.674   6.505   8.310
20297WAT     H161133   4.713   6.553   8.389
20297WAT     H261134   4.598   6.448   8.340
20298WAT      O61135   8.226   1.060   0.774
20298WAT     H161136   8.278   0.982   0.809
20298WAT     H261137   8.227   1.134   0.841
20299WAT      O61138   5.585   4.626   6.175
20299WAT     H161139   5.582   4.535   6.134
20299WAT     H261140   5.645   4.625   6.254
20300WAT      O61141   9.746   5.832   8.537
20300WAT     H161142   9.665   5.796   8.491
20300WAT     H261143   9.718   5.896   8.609
20301WAT      O61144   7.559   7.574   5.379
20301WAT     H161145   7.525   7.573   5.473
20301WAT     H261146   7.646   7.525   5.375
20302WAT      O61147   3.706   6.437   0.258
20302WAT     H161148   3.728   6.448   0.355
20302WAT     H261149   3.626   6.378   0.248
20303WAT      O61150   4.100   0.867   9.665
20303WAT     H161151   4.096   0.773   9.631
20303WAT     H261152   4.089   0.867   9.764
20304WAT      O61153   7.072   7.448   2.960
20304WAT     H161154   7.159   7.429   3.006
20304WAT     H261155   7.086   7.452   2.862
20305WAT      O61156   2.858   3.679   3.602
20305WAT     H161157   2.887   3.745   3.534
20305WAT     H261158   2.927   3.607   3.611
20306WAT      O61159   0.320   2.296   0.595
20306WAT     H161160   0.239   2.315   0.649
20306WAT     H261161   0.375   2.226   0.640
20307WAT      O61162   5.124   0.595   6.033
20307WAT     H161163   5.141   0.648   5.950
20307WAT     H261164   5.203   0.535   6.051
20308WAT      O61165   4.910   8.692   7.536
20308WAT     H161166   4.941   8.781   7.501
20308WAT     H261167   4.922   8.622   7.465
20309WAT      O61168   2.158   7.876   3.253
20309WAT     H161169   2.076   7.834   3.292
20309WAT     H261170   2.167   7.969   3.287
20310WAT      O61171   1.424   7.968   5.054
20310WAT     H161172   1.510   7.947   5.100
20310WAT     H261173   1.378   8.044   5.101
20311WAT      O61174   8.465   7.834   2.178
20311WAT     H161175   8.377   7.867   2.144
20311WAT     H261176   8.496   7.758   2.121
20312WAT      O61177   9.517   0.039   0.197
20312WAT     H161178   9.582  -0.010   0.255
20312WAT     H261179   9.472   0.111   0.250
20313WAT      O61180   8.540   1.337   5.014
20313WAT     H161181   8.471   1.290   4.959
20313WAT     H261182   8.631   1.313   4.980
20314WAT      O61183   5.222   1.981   0.054
20314WAT     H161184   5.302   1.924   0.075
20314WAT     H261185   5.175   1.943  -0.026
20315WAT      O61186   4.650   4.419   3.545
20315WAT     H161187   4.595   4.484   3.599
20315WAT     H261188   4.742   4.455   3.534
20316WAT      O61189   1.048   2.685   8.147
20316WAT     H161190   1.003   2.623   8.083
20316WAT     H261191   1.010   2.777   8.138
20317WAT      O61192   8.640   9.475   1.211
20317WAT     H161193   8.710   9.537   1.248
20317WAT     H261194   8.659   9.458   1.115
20318WAT      O61195   6.902   5.263   3.669
20318WAT     H161196   6.882   5.330   3.598
20318WAT     H261197   6.911   5.172   3.627
20319WAT      O61198   0.689   6.789   9.514
20319WAT     H161199   0.702   6.816   9.610
20319WAT     H261200   0.758   6.834   9.457
20320WAT      O61201   5.441   2.412   4.149
20320WAT     H161202   5.439   2.387   4.052
20320WAT     H261203   5.351   2.396   4.189
20321WAT      O61204   5.720   2.481   0.775
20321WAT     H161205   5.749   2.533   0.855
20321WAT     H261206   5.794   2.420   0.746
20322WAT      O61207   8.154   1.327   2.094
20322WAT     H161208   8.056   1.345   2.103
20322WAT     H261209   8.199   1.407   2.054
20323WAT      O61210   4.634   7.310   7.087
20323WAT     H161211   4.667   7.273   7.000
20323WAT     H261212   4.643   7.240   7.158
20324WAT      O61213   7.147   0.673   7.613
20324WAT     H161214   7.126   0.676   7.515
20324WAT     H261215   7.065   0.649   7.664
20325WAT      O61216   1.014   3.378   5.933
20325WAT     H161217   0.963   3.337   6.009
20325WAT     H261218   0.986   3.473   5.922
20326WAT      O61219   5.576   8.466   7.398
20326WAT     H161220   5.637   8.398   7.438
20326WAT     H261221   5.507   8.421   7.341
20327WAT      O61222   9.128   5.712   3.602
20327WAT     H161223   9.125   5.621   3.645
20327WAT     H261224   9.105   5.703   3.505
20328WAT      O61225   4.207   3.902   6.515
20328WAT     H161226   4.214   4.001   6.505
20328WAT     H261227   4.268   3.857   6.450
20329WAT      O61228   8.791   5.090   0.178
20329WAT     H161229   8.759   5.001   0.211
20329WAT     H261230   8.805   5.086   0.079
20330WAT      O61231   1.975   5.619   8.496
20330WAT     H161232   1.912   5.654   8.565
20330WAT     H261233   2.067   5.610   8.535
20331WAT      O61234   1.382   3.498   2.998
20331WAT     H161235   1.336   3.503   3.087
20331WAT     H261236   1.322   3.537   2.928
20332WAT      O61237   2.711   1.542   2.772
20332WAT     H161238   2.767   1.523   2.691
20332WAT     H261239   2.762   1.602   2.834
20333WAT      O61240   3.464   0.351   0.222
20333WAT     H161241   3.480   0.357   0.124
20333WAT     H261242   3.433   0.259   0.246
20334WAT      O61243   5.080   0.569   8.514
20334WAT     H161244   5.001   0.535   8.566
20334WAT     H261245   5.156   0.587   8.576
20335WAT      O61246   6.736   8.076   3.010
20335WAT     H161247   6.817   8.044   2.961
20335WAT     H261248   6.713   8.168   2.979
20336WAT      O61249   2.247   9.079   0.064
20336WAT     H161250   2.320   9.102   0.129
20336WAT     H261251   2.199   8.997   0.095
20337WAT      O61252   2.902   1.988   1.362
20337WAT     H161253   2.825   2.002   1.425
20337WAT     H261254   2.905   1.892   1.335
20338WAT      O61255   0.859   2.548   7.717
20338WAT     H161256   0.835   2.482   7.646
20338WAT     H261257   0.910   2.624   7.677
20339WAT      O61258   4.419   4.604   4.807
20339WAT     H161259   4.356   4.667   4.853
20339WAT     H261260   4.384   4.510   4.817
20340WAT      O61261   8.931   5.555   6.792
20340WAT     H161262   8.904   5.466   6.755
20340WAT     H261263   8.944   5.620   6.717
20341WAT      O61264   9.329   3.069   7.050
20341WAT     H161265   9.403   3.098   7.112
20341WAT     H261266   9.361   2.993   6.993
20342WAT      O61267   1.647   2.164   3.756
20342WAT     H161268   1.662   2.132   3.662
20342WAT     H261269   1.620   2.087   3.813
20343WAT      O61270   6.094   6.143   7.872
20343WAT     H161271   6.191   6.120   7.868
20343WAT     H261272   6.049   6.085   7.940
20344WAT      O61273   1.597   9.427   3.897
20344WAT     H161274   1.662   9.419   3.972
20344WAT     H261275   1.579   9.336   3.859
20345WAT      O61276   9.135   2.571   8.451
20345WAT     H161277   9.154   2.555   8.354
20345WAT     H261278   9.195   2.514   8.507
20346WAT      O61279   5.755   4.824   3.309
20346WAT     H161280   5.776   4.854   3.216
20346WAT     H261281   5.839   4.827   3.364
20347WAT      O61282   0.646   6.047   6.191
20347WAT     H161283   0.583   6.123   6.178
20347WAT     H261284   0.740   6.082   6.197
20348WAT      O61285   0.894   8.311   7.657
20348WAT     H161286   0.880   8.212   7.661
20348WAT     H261287   0.819   8.357   7.705
20349WAT      O61288   3.359   2.199   3.131
20349WAT     H161289   3.269   2.173   3.097
20349WAT     H261290   3.350   2.277   3.193
20350WAT      O61291   0.943   8.252   6.962
20350WAT     H161292   0.936   8.282   7.057
20350WAT     H261293   0.896   8.317   6.903
20351WAT      O61294   2.888   4.915   9.308
20351WAT     H161295   2.981   4.951   9.306
20351WAT     H261296   2.824   4.990   9.323
20352WAT      O61297   2.442   9.606   8.295
20352WAT     H161298   2.469   9.664   8.219
20352WAT     H261299   2.379   9.657   8.354
20353WAT      O61300   4.472   7.587   3.500
20353WAT     H161301   4.526   7.581   3.584
20353WAT     H261302   4.533   7.585   3.421
20354WAT      O61303   7.637   5.294   1.278
20354WAT     H161304   7.643   5.328   1.372
20354WAT     H261305   7.590   5.206   1.277
20355WAT      O61306   1.600   0.069   3.282
20355WAT     H161307   1.608  -0.003   3.351
20355WAT     H261308   1.534   0.041   3.213
20356WAT      O61309   2.836   0.325   0.880
20356WAT     H161310   2.807   0.380   0.802
20356WAT     H261311   2.761   0.320   0.946
20357WAT      O61312   7.922   6.084   0.810
20357WAT     H161313   7.900   6.090   0.713
20357WAT     H261314   7.838   6.087   0.864
20358WAT      O61315   2.633   4.752   6.161
20358WAT     H161316   2.640   4.852   6.159
20358WAT     H261317   2.690   4.713   6.089
20359WAT      O61318   6.933   9.579   4.088
20359WAT     H161319   6.919   9.587   3.989
20359WAT     H261320   6.934   9.483   4.114
20360WAT      O61321   8.114   2.442   8.208
20360WAT     H161322   8.103   2.428   8.110
20360WAT     H261323   8.179   2.375   8.244
20361WAT      O61324   5.550   2.158   4.321
20361WAT     H161325   5.497   2.197   4.397
20361WAT     H261326   5.586   2.232   4.264
20362WAT      O61327   0.905   7.540   2.694
20362WAT     H161328   0.818   7.578   2.728
20362WAT     H261329   0.981   7.591   2.734
20363WAT      O61330   6.952   3.357   1.860
20363WAT     H161331   7.027   3.399   1.910
20363WAT     H261332   6.917   3.421   1.791
20364WAT      O61333   3.753   0.853   1.094
20364WAT     H161334   3.707   0.884   1.177
20364WAT     H261335   3.761   0.930   1.030
20365WAT      O61336   6.114   2.416   5.949
20365WAT     H161337   6.178   2.487   5.978
20365WAT     H261338   6.069   2.444   5.864
20366WAT      O61339   1.090   0.708   8.746
20366WAT     H161340   1.153   0.751   8.681
20366WAT     H261341   1.117   0.613   8.761
20367WAT      O61342   8.921   8.264   4.563
20367WAT     H161343   8.916   8.268   4.662
20367WAT     H261344   8.986   8.332   4.530
20368WAT      O61345   9.272   4.664   4.544
20368WAT     H161346   9.329   4.713   4.610
20368WAT     H261347   9.292   4.696   4.452
20369WAT      O61348   4.683   7.458   2.502
20369WAT     H161349   4.777   7.425   2.507
20369WAT     H261350   4.651   7.484   2.593
20370WAT      O61351   5.364   8.283   8.469
20370WAT     H161352   5.300   8.309   8.542
20370WAT     H261353   5.336   8.195   8.430
20371WAT      O61354   0.068   6.069   9.235
20371WAT     H161355  -0.003   6.032   9.175
20371WAT     H261356   0.056   6.168   9.242
20372WAT      O61357   6.010   7.794   2.707
20372WAT     H161358   5.927   7.849   2.719
20372WAT     H261359   6.090   7.853   2.712
20373WAT      O61360   7.475   1.167   9.517
20373WAT     H161361   7.524   1.098   9.571
20373WAT     H261362   7.377   1.159   9.534
20374WAT      O61363   6.866   7.656   8.402
20374WAT     H161364   6.789   7.659   8.464
20374WAT     H261365   6.882   7.747   8.363
20375WAT      O61366   9.819   7.555   0.893
20375WAT     H161367   9.740   7.587   0.841
20375WAT     H261368   9.837   7.619   0.968
20376WAT      O61369   6.301   4.946   5.527
20376WAT     H161370   6.263   4.893   5.602
20376WAT     H261371   6.334   4.884   5.456
20377WAT      O61372   0.123   0.785   4.908
20377WAT     H161373   0.092   0.773   4.813
20377WAT     H261374   0.147   0.696   4.947
20378WAT      O61375   2.264   9.426   3.357
20378WAT     H161376   2.206   9.345   3.364
20378WAT     H261377   2.263   9.460   3.263
20379WAT      O61378   2.685   6.848   5.339
20379WAT     H161379   2.730   6.767   5.302
20379WAT     H261380   2.616   6.881   5.274
20380WAT      O61381   0.904   2.413   4.786
20380WAT     H161382   1.003   2.401   4.779
20380WAT     H261383   0.859   2.325   4.768
20381WAT      O61384   2.922   8.598   5.641
20381WAT     H161385   2.973   8.676   5.677
20381WAT     H261386   2.849   8.574   5.705
20382WAT      O61387   8.481   9.233   3.071
20382WAT     H161388   8.444   9.305   3.130
20382WAT     H261389   8.563   9.267   3.025
20383WAT      O61390   2.609   0.539   7.051
20383WAT     H161391   2.553   0.621   7.051
20383WAT     H261392   2.557   0.463   7.010
20384WAT      O61393   3.362   7.257   4.197
20384WAT     H161394   3.385   7.330   4.133
20384WAT     H261395   3.422   7.262   4.277
20385WAT      O61396   6.303   8.731   5.490
20385WAT     H161397   6.306   8.633   5.511
20385WAT     H261398   6.227   8.773   5.540
20386WAT      O61399   5.869   1.011   0.835
20386WAT     H161400   5.812   0.991   0.914
20386WAT     H261401   5.960   1.038   0.866
20387WAT      O61402   4.944   4.318   5.912
20387WAT     H161403   4.951   4.282   5.819
20387WAT     H261404   5.018   4.383   5.929
20388WAT      O61405   6.338   4.511   5.672
20388WAT     H161406   6.420   4.564   5.693
20388WAT     H261407   6.363   4.432   5.617
20389WAT      O61408   2.508   5.712   5.498
20389WAT     H161409   2.553   5.741   5.414
20389WAT     H261410   2.542   5.621   5.524
20390WAT      O61411   2.020   7.936   5.408
20390WAT     H161412   1.989   7.854   5.457
20390WAT     H261413   1.958   7.955   5.332
20391WAT      O61414   3.241   0.390   7.969
20391WAT     H161415   3.273   0.365   7.877
20391WAT     H261416   3.295   0.467   8.003
20392WAT      O61417   3.813   9.252   7.944
20392WAT     H161418   3.788   9.349   7.937
20392WAT     H261419   3.901   9.244   7.991
20393WAT      O61420   3.910   0.162   3.414
20393WAT     H161421   3.971   0.109   3.355
20393WAT     H261422   3.883   0.108   3.493
20394WAT      O61423   1.884   2.147   1.412
20394WAT     H161424   1.870   2.182   1.320
20394WAT     H261425   1.859   2.218   1.479
20395WAT      O61426   7.498   8.806   9.701
20395WAT     H161427   7.577   8.851   9.743
20395WAT     H261428   7.491   8.834   9.605
20396WAT      O61429   3.215   0.352   7.686
20396WAT     H161430   3.225   0.386   7.592
20396WAT     H261431   3.136   0.396   7.729
20397WAT      O61432   2.010   8.291   6.185
20397WAT     H161433   2.047   8.378   6.215
20397WAT     H261434   1.911   8.290   6.200
20398WAT      O61435   1.076   7.559   3.743
20398WAT     H161436   1.058   7.487   3.810
20398WAT     H261437   1.081   7.519   3.651
20399WAT      O61438   7.861   2.662   9.331
20399WAT     H161439   7.806   2.671   9.248
20399WAT     H261440   7.957   2.647   9.305
20400WAT      O61441   6.190   2.042   6.853
20400WAT     H161442   6.093   2.063   6.841
20400WAT     H261443   6.244   2.122   6.827
20401WAT      O61444   5.225   3.993   0.299
20401WAT     H161445   5.235   3.925   0.371
20401WAT     H261446   5.138   4.041   0.309
20402WAT      O61447   3.691   3.966   1.041
20402WAT     H161448   3.688   4.042   0.976
20402WAT     H261449   3.601   3.956   1.084
20403WAT      O61450   1.795   3.428   6.252
20403WAT     H161451   1.824   3.452   6.160
20403WAT     H261452   1.859   3.468   6.319
20404WAT      O61453   9.488   6.455   7.940
20404WAT     H161454   9.578   6.494   7.918
20404WAT     H261455   9.450   6.413   7.858
20405WAT      O61456   0.671   2.952   6.822
20405WAT     H161457   0.753   2.897   6.839
20405WAT     H261458   0.617   2.910   6.750
20406WAT      O61459   6.540   3.554   0.490
20406WAT     H161460   6.516   3.642   0.531
20406WAT     H261461   6.566   3.568   0.394
20407WAT      O61462   9.495   7.117   1.888
20407WAT     H161463   9.414   7.130   1.830
20407WAT     H261464   9.571   7.085   1.833
20408WAT      O61465   4.302   3.217   0.133
20408WAT     H161466   4.235   3.275   0.086
20408WAT     H261467   4.297   3.233   0.231
20409WAT      O61468   8.235   8.394   7.527
20409WAT     H161469   8.191   8.362   7.611
20409WAT     H261470   8.239   8.494   7.527
20410WAT      O61471   7.494   7.356   7.568
20410WAT     H161472   7.582   7.359   7.520
20410WAT     H261473   7.493   7.428   7.638
20411WAT      O61474   8.910   9.483   4.859
20411WAT     H161475   8.877   9.546   4.788
20411WAT     H261476   9.001   9.449   4.834
20412WAT      O61477   6.045   5.665   2.150
20412WAT     H161478   6.080   5.758   2.157
20412WAT     H261479   6.117   5.604   2.118
20413WAT      O61480   7.287   2.274   8.210
20413WAT     H161481   7.340   2.230   8.137
20413WAT     H261482   7.339   2.272   8.295
20414WAT      O61483   2.015   6.358   4.474
20414WAT     H161484   2.110   6.328   4.486
20414WAT     H261485   1.989   6.348   4.378
20415WAT      O61486   2.224   8.591   6.152
20415WAT     H161487   2.146   8.582   6.214
20415WAT     H261488   2.308   8.567   6.200
20416WAT      O61489   4.118   9.446   4.629
20416WAT     H161490   4.217   9.436   4.639
20416WAT     H261491   4.081   9.366   4.583
20417WAT      O61492   1.089   7.733   8.809
20417WAT     H161493   1.078   7.812   8.749
20417WAT     H261494   1.179   7.737   8.853
20418WAT      O61495   0.035   2.451   1.746
20418WAT     H161496  -0.048   2.397   1.762
20418WAT     H261497   0.049   2.515   1.821
20419WAT      O61498   2.617   1.260   4.275
20419WAT     H161499   2.644   1.164   4.271
20419WAT     H261500   2.693   1.316   4.307
20420WAT      O61501   8.852   5.575   4.492
20420WAT     H161502   8.818   5.599   4.401
20420WAT     H261503   8.779   5.585   4.559
20421WAT      O61504   7.754   7.373   7.369
20421WAT     H161505   7.775   7.464   7.403
20421WAT     H261506   7.791   7.304   7.432
20422WAT      O61507   1.250   3.471   5.995
20422WAT     H161508   1.151   3.468   5.978
20422WAT     H261509   1.298   3.492   5.910
20423WAT      O61510   4.491   8.477   7.214
20423WAT     H161511   4.433   8.494   7.134
20423WAT     H261512   4.505   8.562   7.264
20424WAT      O61513   7.023   3.488   7.868
20424WAT     H161514   7.063   3.468   7.957
20424WAT     H261515   7.077   3.445   7.796
20425WAT      O61516   5.223   8.618   9.563
20425WAT     H161517   5.209   8.636   9.466
20425WAT     H261518   5.139   8.579   9.602
20426WAT      O61519   4.582   7.028   3.644
20426WAT     H161520   4.562   7.008   3.548
20426WAT     H261521   4.579   7.126   3.659
20427WAT      O61522   6.057   5.421   6.684
20427WAT     H161523   5.973   5.413   6.629
20427WAT     H261524   6.043   5.490   6.755
20428WAT      O61525   2.745   0.420   3.643
20428WAT     H161526   2.651   0.411   3.611
20428WAT     H261527   2.765   0.350   3.710
20429WAT      O61528   9.837   4.712   5.797
20429WAT     H161529   9.770   4.736   5.727
20429WAT     H261530   9.886   4.630   5.769
20430WAT      O61531   8.165   2.409   3.510
20430WAT     H161532   8.159   2.408   3.610
20430WAT     H261533   8.075   2.425   3.471
20431WAT      O61534   3.983   8.160   9.776
20431WAT     H161535   3.911   8.121   9.834
20431WAT     H261536   3.970   8.258   9.769
20432WAT      O61537   1.161   9.263   8.097
20432WAT     H161538   1.181   9.212   8.013
20432WAT     H261539   1.238   9.256   8.160
20433WAT      O61540   4.465   8.453   7.610
20433WAT     H161541   4.530   8.376   7.614
20433WAT     H261542   4.465   8.491   7.518
20434WAT      O61543   1.302   3.616   9.713
20434WAT     H161544   1.240   3.542   9.686
20434WAT     H261545   1.346   3.654   9.632
20435WAT      O61546   4.745   0.751   0.455
20435WAT     H161547   4.671   0.773   0.519
20435WAT     H261548   4.714   0.682   0.390
20436WAT      O61549   9.830   4.926   3.452
20436WAT     H161550   9.826   5.010   3.398
20436WAT     H261551   9.925   4.893   3.453
20437WAT      O61552   9.133   8.513   7.038
20437WAT     H161553   9.088   8.439   7.086
20437WAT     H261554   9.076   8.595   7.041
20438WAT      O61555   4.252   0.512   5.390
20438WAT     H161556   4.324   0.526   5.458
20438WAT     H261557   4.251   0.588   5.326
20439WAT      O61558   3.580   6.558   2.216
20439WAT     H161559   3.516   6.485   2.195
20439WAT     H261560   3.630   6.536   2.299
20440WAT      O61561   6.996   3.513   8.613
20440WAT     H161562   6.997   3.611   8.634
20440WAT     H261563   6.980   3.462   8.697
20441WAT      O61564   6.747   7.088   9.260
20441WAT     H161565   6.709   7.150   9.329
20441WAT     H261566   6.830   7.046   9.295
20442WAT      O61567   0.156   9.521   5.024
20442WAT     H161568   0.178   9.613   4.990
20442WAT     H261569   0.125   9.465   4.947
20443WAT      O61570   3.644   2.519   8.549
20443WAT     H161571   3.733   2.555   8.577
20443WAT     H261572   3.649   2.490   8.454
20444WAT      O61573   7.432   8.249   6.188
20444WAT     H161574   7.490   8.196   6.126
20444WAT     H261575   7.485   8.324   6.227
20445WAT      O61576   2.208   5.046   4.495
20445WAT     H161577   2.114   5.031   4.525
20445WAT     H261578   2.223   4.998   4.408
20446WAT      O61579   7.437   1.429   1.333
20446WAT     H161580   7.359   1.484   1.362
20446WAT     H261581   7.418   1.387   1.244
20447WAT      O61582   1.867   1.709   6.148
20447WAT     H161583   1.853   1.785   6.084
20447WAT     H261584   1.951   1.724   6.200
20448WAT      O61585   8.489   3.335   2.789
20448WAT     H161586   8.394   3.343   2.820
20448WAT     H261587   8.521   3.425   2.760
20449WAT      O61588   6.014   1.972   4.448
20449WAT     H161589   6.093   1.982   4.509
20449WAT     H261590   5.987   2.063   4.414
20450WAT      O61591   2.278   2.447   4.401
20450WAT     H161592   2.195   2.498   4.423
20450WAT     H261593   2.271   2.410   4.308
20451WAT      O61594   0.034   2.879   6.605
20451WAT     H161595  -0.001   2.960   6.558
20451WAT     H261596   0.000   2.797   6.560
20452WAT      O61597   4.416   7.876   9.572
20452WAT     H161598   4.325   7.840   9.593
20452WAT     H261599   4.412   7.932   9.489
20453WAT      O61600   6.427   1.787   6.116
20453WAT     H161601   6.437   1.886   6.108
20453WAT     H261602   6.401   1.763   6.210
20454WAT      O61603   7.624   8.801   9.199
20454WAT     H161604   7.694   8.742   9.157
20454WAT     H261605   7.638   8.895   9.170
20455WAT      O61606   0.496   1.550   4.032
20455WAT     H161607   0.402   1.524   4.009
20455WAT     H261608   0.502   1.571   4.130
20456WAT      O61609   4.723   3.114   1.208
20456WAT     H161610   4.813   3.073   1.223
20456WAT     H261611   4.734   3.206   1.170
20457WAT      O61612   7.938   6.978   2.286
20457WAT     H161613   7.844   6.954   2.308
20457WAT     H261614   7.985   6.899   2.246
20458WAT      O61615   7.057   2.904   1.008
20458WAT     H161616   7.111   2.828   0.972
20458WAT     H261617   7.038   2.889   1.105
20459WAT      O61618   9.090   7.842   2.040
20459WAT     H161619   9.090   7.742   2.047
20459WAT     H261620   9.045   7.869   1.955
20460WAT      O61621   6.806   9.785   3.693
20460WAT     H161622   6.708   9.792   3.676
20460WAT     H261623   6.836   9.863   3.748
20461WAT      O61624   9.640   3.608   9.242
20461WAT     H161625   9.576   3.684   9.252
20461WAT     H261626   9.660   3.593   9.145
20462WAT      O61627   9.650   7.589   3.071
20462WAT     H161628   9.558   7.558   3.094
20462WAT     H261629   9.692   7.631   3.152
20463WAT      O61630   5.217   9.657   6.152
20463WAT     H161631   5.122   9.646   6.181
20463WAT     H261632   5.269   9.699   6.226
20464WAT      O61633   7.672   0.847   1.847
20464WAT     H161634   7.728   0.923   1.882
20464WAT     H261635   7.587   0.841   1.899
20465WAT      O61636   3.431   2.524   9.765
20465WAT     H161637   3.337   2.538   9.795
20465WAT     H261638   3.493   2.572   9.827
20466WAT      O61639   4.153   8.189   7.756
20466WAT     H161640   4.195   8.274   7.786
20466WAT     H261641   4.053   8.198   7.759
20467WAT      O61642   3.789   1.898   3.197
20467WAT     H161643   3.726   1.975   3.215
20467WAT     H261644   3.879   1.934   3.173
20468WAT      O61645   2.127   2.931   0.040
20468WAT     H161646   2.173   2.854   0.084
20468WAT     H261647   2.189   3.010   0.038
20469WAT      O61648   1.251   3.192   8.294
20469WAT     H161649   1.287   3.231   8.379
20469WAT     H261650   1.183   3.122   8.316
20470WAT      O61651   8.180   8.093   3.976
20470WAT     H161652   8.165   8.140   3.889
20470WAT     H261653   8.278   8.083   3.992
20471WAT      O61654   7.087   6.001   3.402
20471WAT     H161655   7.166   5.947   3.374
20471WAT     H261656   7.076   5.994   3.501
20472WAT      O61657   3.739   3.887   3.211
20472WAT     H161658   3.662   3.910   3.151
20472WAT     H261659   3.775   3.797   3.186
20473WAT      O61660   8.648   4.502   2.489
20473WAT     H161661   8.638   4.417   2.437
20473WAT     H261662   8.571   4.513   2.551
20474WAT      O61663   4.379   9.434   4.948
20474WAT     H161664   4.471   9.445   4.984
20474WAT     H261665   4.318   9.402   5.022
20475WAT      O61666   9.250   3.218   4.074
20475WAT     H161667   9.233   3.274   3.993
20475WAT     H261668   9.272   3.125   4.046
20476WAT      O61669   0.695   1.010   9.075
20476WAT     H161670   0.606   0.967   9.061
20476WAT     H261671   0.728   1.048   8.988
20477WAT      O61672   9.216   2.801   5.794
20477WAT     H161673   9.224   2.704   5.771
20477WAT     H261674   9.155   2.811   5.872
20478WAT      O61675   7.028   1.309   0.039
20478WAT     H161676   6.944   1.362   0.031
20478WAT     H261677   7.100   1.353  -0.015
20479WAT      O61678   7.860   9.140   1.892
20479WAT     H161679   7.809   9.179   1.968
20479WAT     H261680   7.912   9.061   1.924
20480WAT      O61681   5.685   9.451   4.235
20480WAT     H161682   5.685   9.531   4.295
20480WAT     H261683   5.711   9.370   4.287
20481WAT      O61684   4.722   8.448   1.310
20481WAT     H161685   4.762   8.515   1.248
20481WAT     H261686   4.626   8.469   1.325
20482WAT      O61687   8.586   6.861   2.310
20482WAT     H161688   8.490   6.865   2.335
20482WAT     H261689   8.600   6.789   2.241
20483WAT      O61690   5.439   1.826   0.158
20483WAT     H161691   5.521   1.817   0.101
20483WAT     H261692   5.412   1.736   0.192
20484WAT      O61693   8.505   1.504   3.391
20484WAT     H161694   8.534   1.412   3.364
20484WAT     H261695   8.563   1.537   3.465
20485WAT      O61696   1.507   2.992   4.048
20485WAT     H161697   1.417   3.032   4.063
20485WAT     H261698   1.570   3.024   4.120
20486WAT      O61699   5.661   0.728   7.484
20486WAT     H161700   5.588   0.790   7.456
20486WAT     H261701   5.702   0.761   7.569
20487WAT      O61702   9.781   3.331   2.765
20487WAT     H161703   9.781   3.410   2.827
20487WAT     H261704   9.735   3.254   2.810
20488WAT      O61705   4.065   3.152   7.375
20488WAT     H161706   4.105   3.203   7.451
20488WAT     H261707   4.004   3.081   7.411
20489WAT      O61708   0.550   2.256   4.151
20489WAT     H161709   0.585   2.349   4.142
20489WAT     H261710   0.450   2.257   4.142
20490WAT      O61711   0.190   0.286   3.242
20490WAT     H161712   0.258   0.226   3.200
20490WAT     H261713   0.231   0.374   3.262
20491WAT      O61714   4.902   3.043   9.136
20491WAT     H161715   4.837   2.985   9.186
20491WAT     H261716   4.851   3.106   9.076
20492WAT      O61717   5.600   9.533   1.966
20492WAT     H161718   5.518   9.478   1.954
20492WAT     H261719   5.644   9.509   2.052
20493WAT      O61720   1.655   0.233   1.475
20493WAT     H161721   1.620   0.213   1.567
20493WAT     H261722   1.748   0.269   1.482
20494WAT      O61723   4.277   8.370   8.089
20494WAT     H161724   4.301   8.373   7.992
20494WAT     H261725   4.325   8.294   8.132
20495WAT      O61726   2.023   0.082   1.395
20495WAT     H161727   1.995   0.014   1.327
20495WAT     H261728   2.056   0.035   1.477
20496WAT      O61729   3.079   0.355   4.364
20496WAT     H161730   3.163   0.305   4.342
20496WAT     H261731   3.098   0.453   4.365
20497WAT      O61732   2.349   0.024   4.711
20497WAT     H161733   2.341   0.124   4.706
20497WAT     H261734   2.316  -0.007   4.800
20498WAT      O61735   2.788   1.614   1.954
20498WAT     H161736   2.879   1.606   1.915
20498WAT     H261737   2.761   1.527   1.996
20499WAT      O61738   3.059   2.427   7.266
20499WAT     H161739   3.023   2.513   7.302
20499WAT     H261740   3.075   2.364   7.342
20500WAT      O61741   9.074   2.305   5.755
20500WAT     H161742   9.041   2.250   5.678
20500WAT     H261743   9.074   2.249   5.838
20501WAT      O61744   3.827   6.484   7.930
20501WAT     H161745   3.818   6.573   7.975
20501WAT     H261746   3.813   6.496   7.831
20502WAT      O61747   1.751   8.954   1.298
20502WAT     H161748   1.846   8.971   1.272
20502WAT     H261749   1.734   8.991   1.390
20503WAT      O61750   4.682   4.982   2.837
20503WAT     H161751   4.648   4.888   2.843
20503WAT     H261752   4.778   4.985   2.866
20504WAT      O61753   6.751   3.189   4.025
20504WAT     H161754   6.701   3.191   3.939
20504WAT     H261755   6.785   3.281   4.046
20505WAT      O61756   2.411   9.730   6.460
20505WAT     H161757   2.418   9.637   6.496
20505WAT     H261758   2.419   9.728   6.361
20506WAT      O61759   9.090   6.324   2.991
20506WAT     H161760   9.096   6.421   3.016
20506WAT     H261761   9.024   6.279   3.050
20507WAT      O61762   1.238   2.608   1.749
20507WAT     H161763   1.246   2.617   1.849
20507WAT     H261764   1.324   2.634   1.706
20508WAT      O61765   3.760   9.236   6.933
20508WAT     H161766   3.826   9.170   6.898
20508WAT     H261767   3.680   9.240   6.873
20509WAT      O61768   6.073   5.343   8.753
20509WAT     H161769   6.016   5.367   8.832
20509WAT     H261770   6.144   5.412   8.741
20510WAT      O61771   0.037   2.184   9.835
20510WAT     H161772   0.077   2.110   9.889
20510WAT     H261773  -0.063   2.178   9.840
20511WAT      O61774   8.565   1.335   0.613
20511WAT     H161775   8.492   1.282   0.570
20511WAT     H261776   8.593   1.290   0.697
20512WAT      O61777   1.681   9.646   3.767
20512WAT     H161778   1.780   9.637   3.764
20512WAT     H261779   1.642   9.573   3.822
20513WAT      O61780   4.293   9.026   8.231
20513WAT     H161781   4.260   9.110   8.273
20513WAT     H261782   4.382   9.002   8.270
20514WAT      O61783   7.016   3.421   0.543
20514WAT     H161784   6.955   3.492   0.578
20514WAT     H261785   7.066   3.381   0.620
20515WAT      O61786   2.836   9.333   9.470
20515WAT     H161787   2.862   9.288   9.555
20515WAT     H261788   2.790   9.420   9.490
20516WAT      O61789   1.665   4.390   6.999
20516WAT     H161790   1.740   4.452   7.026
20516WAT     H261791   1.695   4.295   7.008
20517WAT      O61792   6.620   3.858   2.064
20517WAT     H161793   6.713   3.826   2.045
20517WAT     H261794   6.624   3.948   2.109
20518WAT      O61795   1.727   0.625   5.044
20518WAT     H161796   1.761   0.535   5.016
20518WAT     H261797   1.797   0.671   5.098
20519WAT      O61798   9.529   7.930   1.960
20519WAT     H161799   9.461   7.939   2.032
20519WAT     H261800   9.574   7.842   1.967
20520WAT      O61801   3.774   7.855   2.085
20520WAT     H161802   3.841   7.782   2.071
20520WAT     H261803   3.820   7.936   2.123
20521WAT      O61804   0.793   4.683   3.233
20521WAT     H161805   0.797   4.599   3.180
20521WAT     H261806   0.872   4.689   3.294
20522WAT      O61807   9.131   7.429   2.948
20522WAT     H161808   9.209   7.404   2.891
20522WAT     H261809   9.054   7.452   2.889
20523WAT      O61810   7.313   5.647   5.548
20523WAT     H161811   7.219   5.676   5.569
20523WAT     H261812   7.370   5.658   5.630
20524WAT      O61813   8.145   1.792   6.356
20524WAT     H161814   8.080   1.812   6.429
20524WAT     H261815   8.095   1.763   6.274
20525WAT      O61816   5.561   3.733   4.482
20525WAT     H161817   5.588   3.817   4.435
20525WAT     H261818   5.547   3.660   4.414
20526WAT      O61819   9.707   7.010   1.231
20526WAT     H161820   9.695   6.925   1.283
20526WAT     H261821   9.685   6.993   1.135
20527WAT      O61822   3.041   7.329   6.479
20527WAT     H161823   3.117   7.269   6.453
20527WAT     H261824   3.067   7.425   6.463
20528WAT      O61825   0.434   0.835   0.372
20528WAT     H161826   0.501   0.791   0.432
20528WAT     H261827   0.455   0.815   0.277
20529WAT      O61828   8.466   5.933   3.921
20529WAT     H161829   8.372   5.948   3.952
20529WAT     H261830   8.525   6.004   3.959
20530WAT      O61831   3.710   9.702   4.618
20530WAT     H161832   3.809   9.704   4.599
20530WAT     H261833   3.695   9.666   4.710
20531WAT      O61834   9.781   9.178   5.232
20531WAT     H161835   9.760   9.259   5.177
20531WAT     H261836   9.847   9.202   5.303
20532WAT      O61837   6.900   6.220   7.828
20532WAT     H161838   6.963   6.258   7.896
20532WAT     H261839   6.864   6.133   7.860
20533WAT      O61840   5.785   9.164   9.345
20533WAT     H161841   5.824   9.256   9.354
20533WAT     H261842   5.711   9.153   9.411
20534WAT      O61843   1.162   4.800   4.862
20534WAT     H161844   1.069   4.802   4.826
20534WAT     H261845   1.227   4.795   4.785
20535WAT      O61846   1.212   0.247   1.453
20535WAT     H161847   1.228   0.157   1.494
20535WAT     H261848   1.163   0.237   1.367
20536WAT      O61849   7.563   1.427   6.158
20536WAT     H161850   7.505   1.354   6.195
20536WAT     H261851   7.549   1.435   6.060
20537WAT      O61852   8.971   1.570   7.124
20537WAT     H161853   9.053   1.536   7.079
20537WAT     H261854   8.927   1.639   7.067
20538WAT      O61855   8.224   1.437   4.781
20538WAT     H161856   8.144   1.385   4.811
20538WAT     H261857   8.275   1.384   4.713
20539WAT      O61858   4.418   2.921   2.608
20539WAT     H161859   4.431   2.834   2.656
20539WAT     H261860   4.495   2.936   2.546
20540WAT      O61861   9.825   4.841   0.121
20540WAT     H161862   9.822   4.749   0.159
20540WAT     H261863   9.749   4.895   0.157
20541WAT      O61864   2.328   5.995   7.814
20541WAT     H161865   2.311   5.898   7.799
20541WAT     H261866   2.426   6.012   7.823
20542WAT      O61867   0.066   7.029   3.491
20542WAT     H161868   0.037   7.027   3.586
20542WAT     H261869   0.155   7.075   3.484
20543WAT      O61870   7.560   0.209   9.809
20543WAT     H161871   7.561   0.152   9.891
20543WAT     H261872   7.590   0.156   9.730
20544WAT      O61873   1.303   2.582   2.031
20544WAT     H161874   1.263   2.612   2.117
20544WAT     H261875   1.321   2.483   2.035
20545WAT      O61876   9.129   0.715   0.492
20545WAT     H161877   9.082   0.692   0.407
20545WAT     H261878   9.212   0.767   0.471
20546WAT      O61879   9.345   9.499   2.555
20546WAT     H161880   9.326   9.517   2.459
20546WAT     H261881   9.394   9.411   2.563
20547WAT      O61882   1.788   3.561   1.363
20547WAT     H161883   1.837   3.593   1.282
20547WAT     H261884   1.823   3.471   1.390
20548WAT      O61885   7.246   4.076   8.798
20548WAT     H161886   7.199   4.131   8.728
20548WAT     H261887   7.339   4.057   8.768
20549WAT      O61888   7.314   0.532   7.910
20549WAT     H161889   7.400   0.534   7.962
20549WAT     H261890   7.334   0.510   7.814
20550WAT      O61891   3.135   9.431   1.001
20550WAT     H161892   3.175   9.485   0.927
20550WAT     H261893   3.088   9.492   1.065
20551WAT      O61894   2.610   8.090   0.771
20551WAT     H161895   2.685   8.038   0.812
20551WAT     H261896   2.594   8.056   0.678
20552WAT      O61897   3.800   8.991   0.465
20552WAT     H161898   3.810   8.892   0.453
20552WAT     H261899   3.718   9.023   0.417
20553WAT      O61900   6.772   1.834   3.444
20553WAT     H161901   6.851   1.815   3.502
20553WAT     H261902   6.792   1.914   3.387
20554WAT      O61903   5.029   6.351   2.083
20554WAT     H161904   4.929   6.341   2.080
20554WAT     H261905   5.054   6.442   2.052
20555WAT      O61906   2.516   2.952   4.617
20555WAT     H161907   2.420   2.927   4.620
20555WAT     H261908   2.572   2.875   4.649
20556WAT      O61909   9.516   1.635   3.819
20556WAT     H161910   9.528   1.705   3.890
20556WAT     H261911   9.567   1.553   3.845
20557WAT      O61912   1.245   6.318   3.452
20557WAT     H161913   1.267   6.414   3.432
20557WAT     H261914   1.267   6.261   3.373
20558WAT      O61915   0.006   0.219   8.000
20558WAT     H161916   0.072   0.256   7.934
20558WAT     H261917  -0.087   0.232   7.964
20559WAT      O61918   2.587   0.407   8.558
20559WAT     H161919   2.654   0.453   8.499
20559WAT     H261920   2.512   0.470   8.577
20560WAT      O61921   6.232   7.857   0.657
20560WAT     H161922   6.197   7.763   0.664
20560WAT     H261923   6.322   7.855   0.614
20561WAT      O61924   3.588   2.179   8.479
20561WAT     H161925   3.524   2.115   8.521
20561WAT     H261926   3.612   2.147   8.387
20562WAT      O61927   1.005   2.180   9.405
20562WAT     H161928   0.929   2.237   9.437
20562WAT     H261929   1.034   2.119   9.478
20563WAT      O61930   1.172   9.749   9.193
20563WAT     H161931   1.218   9.795   9.269
20563WAT     H261932   1.158   9.814   9.119
20564WAT      O61933   9.653   0.230   2.008
20564WAT     H161934   9.633   0.328   2.016
20564WAT     H261935   9.691   0.212   1.917
20565WAT      O61936   9.156   3.341   7.736
20565WAT     H161937   9.063   3.372   7.715
20565WAT     H261938   9.200   3.407   7.797
20566WAT      O61939   9.513   1.664   3.183
20566WAT     H161940   9.588   1.720   3.147
20566WAT     H261941   9.461   1.626   3.106
20567WAT      O61942   1.965   0.443   5.639
20567WAT     H161943   1.875   0.428   5.681
20567WAT     H261944   2.022   0.362   5.653
20568WAT      O61945   6.677   9.717   9.364
20568WAT     H161946   6.586   9.755   9.349
20568WAT     H261947   6.699   9.653   9.290
20569WAT      O61948   2.037   0.549   4.715
20569WAT     H161949   2.091   0.621   4.758
20569WAT     H261950   2.089   0.463   4.716
20570WAT      O61951   7.922   9.788   9.756
20570WAT     H161952   7.906   9.697   9.720
20570WAT     H261953   7.918   9.786   9.856
20571WAT      O61954   0.239   2.835   4.691
20571WAT     H161955   0.287   2.880   4.616
20571WAT     H261956   0.296   2.762   4.728
20572WAT      O61957   5.793   2.208   5.617
20572WAT     H161958   5.769   2.277   5.686
20572WAT     H261959   5.879   2.232   5.574
20573WAT      O61960   7.037   6.856   1.474
20573WAT     H161961   7.133   6.878   1.452
20573WAT     H261962   6.991   6.939   1.507
20574WAT      O61963   9.590   4.433   1.127
20574WAT     H161964   9.678   4.406   1.088
20574WAT     H261965   9.587   4.407   1.223
20575WAT      O61966   4.195   8.551   2.449
20575WAT     H161967   4.244   8.633   2.420
20575WAT     H261968   4.144   8.514   2.371
20576WAT      O61969   7.658   1.491   3.187
20576WAT     H161970   7.687   1.544   3.267
20576WAT     H261971   7.739   1.457   3.140
20577WAT      O61972   2.880   6.165   7.656
20577WAT     H161973   2.894   6.261   7.630
20577WAT     H261974   2.795   6.131   7.617
20578WAT      O61975   1.491   7.318   2.589
20578WAT     H161976   1.522   7.322   2.683
20578WAT     H261977   1.414   7.380   2.576
20579WAT      O61978   8.247   8.687   7.511
20579WAT     H161979   8.267   8.691   7.609
20579WAT     H261980   8.281   8.769   7.466
20580WAT      O61981   4.217   0.097   5.941
20580WAT     H161982   4.221   0.144   5.853
20580WAT     H261983   4.221  -0.002   5.926
20581WAT      O61984   0.761   0.340   9.017
20581WAT     H161985   0.775   0.243   8.997
20581WAT     H261986   0.771   0.356   9.115
20582WAT      O61987   7.604   7.631   2.630
20582WAT     H161988   7.610   7.721   2.673
20582WAT     H261989   7.520   7.586   2.660
20583WAT      O61990   1.613   2.421   5.847
20583WAT     H161991   1.629   2.402   5.943
20583WAT     H261992   1.548   2.355   5.810
20584WAT      O61993   6.910   1.516   1.134
20584WAT     H161994   6.881   1.519   1.038
20584WAT     H261995   7.010   1.526   1.138
20585WAT      O61996   1.191   0.088   4.532
20585WAT     H161997   1.187  -0.012   4.541
20585WAT     H261998   1.277   0.122   4.569
20586WAT      O61999   8.476   5.792   1.551
20586WAT     H162000   8.504   5.730   1.477
20586WAT     H262001   8.540   5.783   1.627
20587WAT      O62002   0.874   0.586   6.251
20587WAT     H162003   0.810   0.510   6.237
20587WAT     H262004   0.884   0.603   6.349
20588WAT      O62005   0.267   6.417   8.524
20588WAT     H162006   0.217   6.335   8.496
20588WAT     H262007   0.248   6.491   8.460
20589WAT      O62008   0.298   9.394   9.474
20589WAT     H162009   0.283   9.413   9.571
20589WAT     H262010   0.251   9.463   9.419
20590WAT      O62011   3.729   6.466   2.417
20590WAT     H162012   3.693   6.444   2.507
20590WAT     H262013   3.816   6.516   2.426
20591WAT      O62014   6.945   6.320   2.899
20591WAT     H162015   6.846   6.329   2.894
20591WAT     H262016   6.983   6.398   2.949
20592WAT      O62017   5.630   8.032   8.952
20592WAT     H162018   5.624   8.011   9.050
20592WAT     H262019   5.569   8.108   8.930
20593WAT      O62020   9.437   4.398   3.413
20593WAT     H162021   9.527   4.424   3.379
20593WAT     H262022   9.443   4.310   3.461
20594WAT      O62023   3.011   6.896   2.012
20594WAT     H162024   2.982   6.935   2.099
20594WAT     H262025   2.980   6.801   2.006
20595WAT      O62026   8.968   5.033   5.916
20595WAT     H162027   8.947   4.936   5.928
20595WAT     H262028   9.034   5.044   5.842
20596WAT      O62029   1.717   9.050   1.532
20596WAT     H162030   1.746   9.145   1.546
20596WAT     H262031   1.761   8.992   1.600
20597WAT      O62032   8.036   9.613   3.510
20597WAT     H162033   8.035   9.694   3.568
20597WAT     H262034   8.098   9.545   3.548
20598WAT      O62035   0.253   1.155   8.285
20598WAT     H162036   0.351   1.139   8.271
20598WAT     H262037   0.223   1.111   8.369
20599WAT      O62038   8.723   5.953   7.103
20599WAT     H162039   8.772   5.874   7.066
20599WAT     H262040   8.625   5.933   7.107
20600WAT      O62041   0.445   4.273   0.380
20600WAT     H162042   0.427   4.302   0.474
20600WAT     H262043   0.528   4.318   0.347
20601WAT      O62044   1.832   8.461   3.883
20601WAT     H162045   1.925   8.425   3.881
20601WAT     H262046   1.768   8.388   3.904
20602WAT      O62047   2.461   6.114   4.404
20602WAT     H162048   2.546   6.064   4.419
20602WAT     H262049   2.457   6.145   4.309
20603WAT      O62050   4.233   4.902   9.197
20603WAT     H162051   4.228   4.877   9.294
20603WAT     H262052   4.234   4.819   9.142
20604WAT      O62053   0.302   2.709   0.883
20604WAT     H162054   0.261   2.626   0.923
20604WAT     H262055   0.371   2.745   0.945
20605WAT      O62056   7.146   9.194   9.585
20605WAT     H162057   7.178   9.169   9.677
20605WAT     H262058   7.057   9.237   9.592
20606WAT      O62059   5.933   4.447   1.310
20606WAT     H162060   5.904   4.353   1.290
20606WAT     H262061   6.030   4.457   1.291
20607WAT      O62062   1.226   7.915   4.412
20607WAT     H162063   1.224   7.915   4.312
20607WAT     H262064   1.184   7.998   4.446
20608WAT      O62065   4.012   4.112   9.016
20608WAT     H162066   4.020   4.212   9.023
20608WAT     H262067   3.928   4.082   9.061
20609WAT      O62068   1.530   6.220   7.188
20609WAT     H162069   1.600   6.210   7.116
20609WAT     H262070   1.533   6.140   7.248
20610WAT      O62071   2.961   5.644   5.335
20610WAT     H162072   2.928   5.734   5.306
20610WAT     H262073   2.885   5.578   5.332
20611WAT      O62074   9.714   8.369   4.385
20611WAT     H162075   9.786   8.326   4.441
20611WAT     H262076   9.748   8.453   4.345
20612WAT      O62077   2.654   5.669   8.964
20612WAT     H162078   2.711   5.592   8.994
20612WAT     H262079   2.660   5.743   9.032
20613WAT      O62080   1.850   0.302   8.068
20613WAT     H162081   1.893   0.343   8.149
20613WAT     H262082   1.919   0.290   7.997
20614WAT      O62083   4.165   5.689   2.722
20614WAT     H162084   4.239   5.756   2.734
20614WAT     H262085   4.149   5.643   2.809
20615WAT      O62086   6.892   8.836   4.209
20615WAT     H162087   6.889   8.833   4.309
20615WAT     H262088   6.986   8.817   4.178
20616WAT      O62089   2.916   1.317   5.833
20616WAT     H162090   2.871   1.241   5.879
20616WAT     H262091   2.984   1.282   5.768
20617WAT      O62092   0.340   6.511   4.948
20617WAT     H162093   0.307   6.552   4.863
20617WAT     H262094   0.413   6.568   4.986
20618WAT      O62095   4.869   9.526   0.600
20618WAT     H162096   4.846   9.492   0.508
20618WAT     H262097   4.861   9.625   0.602
20619WAT      O62098   6.167   1.974   0.364
20619WAT     H162099   6.234   1.930   0.423
20619WAT     H262100   6.109   2.034   0.418
20620WAT      O62101   1.370   1.940   8.930
20620WAT     H162102   1.351   2.020   8.873
20620WAT     H262103   1.285   1.891   8.949
20621WAT      O62104   0.719   5.098   3.931
20621WAT     H162105   0.655   5.021   3.939
20621WAT     H262106   0.746   5.129   4.022
20622WAT      O62107   3.342   8.892   2.931
20622WAT     H162108   3.342   8.837   3.014
20622WAT     H262109   3.428   8.879   2.882
20623WAT      O62110   3.897   8.219   1.971
20623WAT     H162111   3.822   8.281   1.950
20623WAT     H262112   3.984   8.267   1.961
20624WAT      O62113   7.994   7.162   6.672
20624WAT     H162114   8.010   7.077   6.621
20624WAT     H262115   7.975   7.140   6.768
20625WAT      O62116   6.950   2.605   1.122
20625WAT     H162117   7.006   2.659   1.185
20625WAT     H262118   6.987   2.612   1.029
20626WAT      O62119   9.437   7.110   9.396
20626WAT     H162120   9.508   7.177   9.421
20626WAT     H262121   9.405   7.063   9.479
20627WAT      O62122   1.352   6.518   1.280
20627WAT     H162123   1.283   6.588   1.301
20627WAT     H262124   1.333   6.435   1.332
20628WAT      O62125   9.149   1.422   6.956
20628WAT     H162126   9.165   1.323   6.951
20628WAT     H262127   9.222   1.465   7.009
20629WAT      O62128   9.216   0.580   3.740
20629WAT     H162129   9.200   0.572   3.838
20629WAT     H262130   9.184   0.668   3.707
20630WAT      O62131   1.295   7.977   9.604
20630WAT     H162132   1.376   7.920   9.617
20630WAT     H262133   1.316   8.050   9.539
20631WAT      O62134   7.111   7.108   7.442
20631WAT     H162135   7.206   7.097   7.413
20631WAT     H262136   7.098   7.200   7.479
20632WAT      O62137   2.763   6.400   6.178
20632WAT     H162138   2.673   6.387   6.219
20632WAT     H262139   2.753   6.409   6.079
20633WAT      O62140   3.813   8.957   0.013
20633WAT     H162141   3.803   9.056   0.023
20633WAT     H262142   3.795   8.932  -0.083
20634WAT      O62143   3.772   2.226   1.619
20634WAT     H162144   3.843   2.276   1.669
20634WAT     H262145   3.687   2.229   1.672
20635WAT      O62146   7.276   4.551   0.148
20635WAT     H162147   7.189   4.519   0.187
20635WAT     H262148   7.309   4.486   0.080
20636WAT      O62149   0.759   9.237   6.716
20636WAT     H162150   0.794   9.316   6.665
20636WAT     H262151   0.742   9.264   6.811
20637WAT      O62152   1.747   9.739   4.323
20637WAT     H162153   1.832   9.792   4.328
20637WAT     H262154   1.689   9.775   4.250
20638WAT      O62155   5.212   9.537   3.706
20638WAT     H162156   5.270   9.612   3.739
20638WAT     H262157   5.127   9.535   3.758
20639WAT      O62158   9.801   8.519   7.826
20639WAT     H162159   9.884   8.466   7.839
20639WAT     H262160   9.797   8.553   7.732
20640WAT      O62161   1.636   0.400   7.811
20640WAT     H162162   1.637   0.320   7.871
20640WAT     H262163   1.680   0.477   7.857
20641WAT      O62164   3.834   7.121   1.935
20641WAT     H162165   3.926   7.102   1.970
20641WAT     H262166   3.810   7.216   1.955
20642WAT      O62167   0.609   1.992   0.039
20642WAT     H162168   0.670   2.056  -0.006
20642WAT     H262169   0.657   1.906   0.055
20643WAT      O62170   4.013   6.373   0.986
20643WAT     H162171   4.085   6.439   1.006
20643WAT     H262172   3.928   6.401   1.032
20644WAT      O62173   5.528   4.566   7.365
20644WAT     H162174   5.583   4.586   7.446
20644WAT     H262175   5.498   4.652   7.323
20645WAT      O62176   4.903   2.481   9.403
20645WAT     H162177   4.813   2.440   9.419
20645WAT     H262178   4.896   2.553   9.335
20646WAT      O62179   1.077   0.074   5.874
20646WAT     H162180   1.059   0.025   5.960
20646WAT     H262181   1.084   0.172   5.893
20647WAT      O62182   8.270   4.927   0.916
20647WAT     H162183   8.221   4.839   0.921
20647WAT     H262184   8.322   4.941   1.000
20648WAT      O62185   5.681   2.163   8.524
20648WAT     H162186   5.614   2.091   8.509
20648WAT     H262187   5.634   2.248   8.549
20649WAT      O62188   8.058   5.310   9.433
20649WAT     H162189   8.066   5.362   9.348
20649WAT     H262190   7.996   5.358   9.496
20650WAT      O62191   9.473   2.597   0.279
20650WAT     H162192   9.430   2.533   0.216
20650WAT     H262193   9.520   2.547   0.352
20651WAT      O62194   5.290   6.813   9.751
20651WAT     H162195   5.294   6.722   9.711
20651WAT     H262196   5.198   6.851   9.739
20652WAT      O62197   9.185   4.280   3.400
20652WAT     H162198   9.272   4.328   3.411
20652WAT     H262199   9.199   4.182   3.420
20653WAT      O62200   5.963   0.706   1.572
20653WAT     H162201   6.062   0.715   1.576
20653WAT     H262202   5.928   0.680   1.662
20654WAT      O62203   1.254   5.797   8.166
20654WAT     H162204   1.192   5.822   8.092
20654WAT     H262205   1.291   5.880   8.208
20655WAT      O62206   1.831   6.106   5.000
20655WAT     H162207   1.745   6.115   5.051
20655WAT     H262208   1.862   6.196   4.970
20656WAT      O62209   8.059   5.997   8.378
20656WAT     H162210   7.996   5.929   8.417
20656WAT     H262211   8.041   6.086   8.420
20657WAT      O62212   0.696   2.589   9.387
20657WAT     H162213   0.658   2.587   9.295
20657WAT     H262214   0.623   2.605   9.453
20658WAT      O62215   5.349   6.621   4.705
20658WAT     H162216   5.406   6.552   4.749
20658WAT     H262217   5.396   6.710   4.708
20659WAT      O62218   2.632   0.361   6.723
20659WAT     H162219   2.608   0.396   6.633
20659WAT     H262220   2.664   0.267   6.715
20660WAT      O62221   7.207   7.584   7.971
20660WAT     H162222   7.212   7.652   7.898
20660WAT     H262223   7.265   7.506   7.949
20661WAT      O62224   6.574   3.931   3.532
20661WAT     H162225   6.637   3.957   3.459
20661WAT     H262226   6.584   3.993   3.609
20662WAT      O62227   3.458   7.445   2.188
20662WAT     H162228   3.393   7.370   2.176
20662WAT     H262229   3.490   7.475   2.098
20663WAT      O62230   3.479   5.410   6.928
20663WAT     H162231   3.555   5.430   6.867
20663WAT     H262232   3.512   5.405   7.022
20664WAT      O62233   4.122   2.002   4.815
20664WAT     H162234   4.112   1.918   4.761
20664WAT     H262235   4.067   2.075   4.774
20665WAT      O62236   0.903   1.405   7.911
20665WAT     H162237   0.878   1.483   7.968
20665WAT     H262238   0.830   1.388   7.844
20666WAT      O62239   9.272   7.705   3.057
20666WAT     H162240   9.310   7.703   2.965
20666WAT     H262241   9.172   7.700   3.053
20667WAT      O62242   5.502   2.576   4.576
20667WAT     H162243   5.433   2.520   4.531
20667WAT     H262244   5.548   2.523   4.646
20668WAT      O62245   1.438   9.266   6.445
20668WAT     H162246   1.480   9.272   6.535
20668WAT     H262247   1.409   9.172   6.428
20669WAT      O62248   4.701   9.148   0.082
20669WAT     H162249   4.723   9.069   0.025
20669WAT     H262250   4.602   9.162   0.084
20670WAT      O62251   1.477   4.826   7.680
20670WAT     H162252   1.557   4.770   7.703
20670WAT     H262253   1.495   4.877   7.596
20671WAT      O62254   9.181   3.033   7.474
20671WAT     H162255   9.210   3.128   7.463
20671WAT     H262256   9.259   2.972   7.458
20672WAT      O62257   2.602   6.660   9.379
20672WAT     H162258   2.578   6.566   9.355
20672WAT     H262259   2.696   6.678   9.352
20673WAT      O62260   3.019   0.998   8.507
20673WAT     H162261   3.117   1.012   8.491
20673WAT     H262262   3.003   0.987   8.605
20674WAT      O62263   5.109   5.415   7.803
20674WAT     H162264   5.077   5.430   7.896
20674WAT     H262265   5.177   5.341   7.803
20675WAT      O62266   0.148   2.465   2.622
20675WAT     H162267   0.172   2.385   2.677
20675WAT     H262268   0.072   2.442   2.561
20676WAT      O62269   5.980   1.038   8.030
20676WAT     H162270   5.914   0.963   8.038
20676WAT     H262271   6.043   1.018   7.955
20677WAT      O62272   3.715   0.251   5.189
20677WAT     H162273   3.804   0.291   5.169
20677WAT     H262274   3.643   0.304   5.144
20678WAT      O62275   6.414   6.592   6.357
20678WAT     H162276   6.427   6.580   6.455
20678WAT     H262277   6.504   6.600   6.313
20679WAT      O62278   5.266   7.516   3.881
20679WAT     H162279   5.167   7.508   3.880
20679WAT     H262280   5.292   7.611   3.901
20680WAT      O62281   5.011   3.253   7.882
20680WAT     H162282   4.913   3.233   7.888
20680WAT     H262283   5.028   3.346   7.915
20681WAT      O62284   2.521   6.416   6.952
20681WAT     H162285   2.599   6.448   6.899
20681WAT     H262286   2.474   6.494   6.993
20682WAT      O62287   5.468   3.134   0.987
20682WAT     H162288   5.483   3.061   0.921
20682WAT     H262289   5.443   3.218   0.939
20683WAT      O62290   6.448   3.805   6.413
20683WAT     H162291   6.352   3.824   6.433
20683WAT     H262292   6.506   3.863   6.470
20684WAT      O62293   5.962   6.865   1.005
20684WAT     H162294   5.867   6.832   1.005
20684WAT     H262295   6.006   6.836   0.920
20685WAT      O62296   1.112   2.993   3.325
20685WAT     H162297   1.084   2.907   3.367
20685WAT     H262298   1.209   3.009   3.342
20686WAT      O62299   2.624   0.205   3.441
20686WAT     H162300   2.712   0.166   3.467
20686WAT     H262301   2.552   0.163   3.495
20687WAT      O62302   0.560   7.709   5.686
20687WAT     H162303   0.576   7.799   5.727
20687WAT     H262304   0.606   7.640   5.740
20688WAT      O62305   0.220   7.103   4.854
20688WAT     H162306   0.270   7.084   4.939
20688WAT     H262307   0.166   7.023   4.829
20689WAT      O62308   2.757   7.718   8.601
20689WAT     H162309   2.771   7.671   8.514
20689WAT     H262310   2.812   7.673   8.672
20690WAT      O62311   2.319   4.936   2.510
20690WAT     H162312   2.279   4.875   2.579
20690WAT     H262313   2.379   4.883   2.450
20691WAT      O62314   8.520   5.553   5.324
20691WAT     H162315   8.563   5.506   5.247
20691WAT     H262316   8.552   5.512   5.410
20692WAT      O62317   6.028   6.254   6.829
20692WAT     H162318   6.060   6.185   6.765
20692WAT     H262319   6.102   6.275   6.894
20693WAT      O62320   6.671   4.532   4.844
20693WAT     H162321   6.702   4.506   4.935
20693WAT     H262322   6.604   4.466   4.811
20694WAT      O62323   1.930   9.605   1.467
20694WAT     H162324   1.959   9.639   1.378
20694WAT     H262325   1.980   9.522   1.490
20695WAT      O62326   0.987   1.325   5.181
20695WAT     H162327   1.037   1.390   5.123
20695WAT     H262328   0.997   1.233   5.144
20696WAT      O62329   6.317   7.515   3.793
20696WAT     H162330   6.273   7.426   3.784
20696WAT     H262331   6.416   7.503   3.800
20697WAT      O62332   2.739   0.529   9.151
20697WAT     H162333   2.740   0.456   9.083
20697WAT     H262334   2.644   0.547   9.180
20698WAT      O62335   7.085   7.728   4.094
20698WAT     H162336   7.081   7.828   4.090
20698WAT     H262337   6.993   7.691   4.091
20699WAT      O62338   5.526   4.969   2.849
20699WAT     H162339   5.430   4.993   2.866
20699WAT     H262340   5.573   5.046   2.807
20700WAT      O62341   4.715   4.915   8.128
20700WAT     H162342   4.647   4.973   8.082
20700WAT     H262343   4.729   4.832   8.074
20701WAT      O62344   2.651   9.798   9.747
20701WAT     H162345   2.734   9.751   9.719
20701WAT     H262346   2.588   9.733   9.790
20702WAT      O62347   4.572   8.010   1.126
20702WAT     H162348   4.496   7.958   1.167
20702WAT     H262349   4.654   7.953   1.123
20703WAT      O62350   7.056   9.554   9.191
20703WAT     H162351   7.128   9.544   9.123
20703WAT     H262352   6.983   9.612   9.155
20704WAT      O62353   9.174   2.040   3.555
20704WAT     H162354   9.112   2.003   3.624
20704WAT     H262355   9.191   1.970   3.485
20705WAT      O62356   9.267   4.962   9.070
20705WAT     H162357   9.209   4.928   9.144
20705WAT     H262358   9.337   5.022   9.109
20706WAT      O62359   9.171   2.581   2.551
20706WAT     H162360   9.205   2.675   2.559
20706WAT     H262361   9.083   2.574   2.599
20707WAT      O62362   4.753   5.640   2.017
20707WAT     H162363   4.803   5.652   2.102
20707WAT     H262364   4.662   5.681   2.026
20708WAT      O62365   5.781   0.767   4.340
20708WAT     H162366   5.772   0.735   4.434
20708WAT     H262367   5.875   0.800   4.326
20709WAT      O62368   0.878   4.541   0.209
20709WAT     H162369   0.953   4.576   0.265
20709WAT     H262370   0.885   4.580   0.117
20710WAT      O62371   1.056   9.783   5.633
20710WAT     H162372   1.073   9.845   5.556
20710WAT     H262373   1.036   9.837   5.715
20711WAT      O62374   3.543   8.318   3.289
20711WAT     H162375   3.457   8.269   3.304
20711WAT     H262376   3.619   8.261   3.320
20712WAT      O62377   2.607   9.503   6.703
20712WAT     H162378   2.661   9.578   6.664
20712WAT     H262379   2.529   9.484   6.644
20713WAT      O62380   1.971   4.680   8.835
20713WAT     H162381   1.963   4.762   8.892
20713WAT     H262382   1.927   4.695   8.747
20714WAT      O62383   7.964   6.541   1.878
20714WAT     H162384   7.865   6.552   1.872
20714WAT     H262385   7.991   6.530   1.974
20715WAT      O62386   4.417   6.221   1.804
20715WAT     H162387   4.456   6.304   1.844
20715WAT     H262388   4.487   6.173   1.752
20716WAT      O62389   1.955   4.105   5.944
20716WAT     H162390   1.922   4.048   5.869
20716WAT     H262391   1.941   4.201   5.921
20717WAT      O62392   2.035   5.840   2.417
20717WAT     H162393   2.024   5.803   2.509
20717WAT     H262394   2.052   5.766   2.352
20718WAT      O62395   3.619   4.137   9.365
20718WAT     H162396   3.690   4.078   9.327
20718WAT     H262397   3.641   4.232   9.346
20719WAT      O62398   5.019   2.520   2.211
20719WAT     H162399   5.004   2.523   2.113
20719WAT     H262400   4.978   2.601   2.254
20720WAT      O62401   4.716   6.639   8.554
20720WAT     H162402   4.667   6.669   8.635
20720WAT     H262403   4.814   6.651   8.568
20721WAT      O62404   2.650   6.643   3.804
20721WAT     H162405   2.733   6.630   3.750
20721WAT     H262406   2.672   6.638   3.901
20722WAT      O62407   3.081   4.354   6.514
20722WAT     H162408   3.137   4.283   6.556
20722WAT     H262409   3.063   4.330   6.419
20723WAT      O62410   6.252   0.070   1.816
20723WAT     H162411   6.304   0.141   1.863
20723WAT     H262412   6.170   0.048   1.869
20724WAT      O62413   7.070   8.306   0.495
20724WAT     H162414   7.139   8.240   0.526
20724WAT     H262415   6.987   8.258   0.469
20725WAT      O62416   0.397   8.679   2.531
20725WAT     H162417   0.429   8.772   2.548
20725WAT     H262418   0.312   8.681   2.478
20726WAT      O62419   2.025   2.777   2.768
20726WAT     H162420   1.948   2.787   2.832
20726WAT     H262421   2.004   2.705   2.702
20727WAT      O62422   2.449   3.285   9.391
20727WAT     H162423   2.517   3.291   9.464
20727WAT     H262424   2.430   3.377   9.357
20728WAT      O62425   3.809   8.084   8.587
20728WAT     H162426   3.821   8.159   8.522
20728WAT     H262427   3.733   8.026   8.557
20729WAT      O62428   1.970   7.827   1.087
20729WAT     H162429   1.967   7.837   0.987
20729WAT     H262430   2.013   7.739   1.110
20730WAT      O62431   1.730   2.765   0.332
20730WAT     H162432   1.801   2.802   0.272
20730WAT     H262433   1.654   2.731   0.277
20731WAT      O62434   0.633   3.217   4.676
20731WAT     H162435   0.645   3.120   4.697
20731WAT     H262436   0.693   3.242   4.600
20732WAT      O62437   1.690   5.133   7.417
20732WAT     H162438   1.716   5.178   7.331
20732WAT     H262439   1.746   5.169   7.491
20733WAT      O62440   5.774   2.454   9.844
20733WAT     H162441   5.843   2.385   9.822
20733WAT     H262442   5.683   2.411   9.848
20734WAT      O62443   2.673   9.629   8.637
20734WAT     H162444   2.702   9.703   8.576
20734WAT     H262445   2.618   9.667   8.711
20735WAT      O62446   5.504   6.274   1.841
20735WAT     H162447   5.436   6.282   1.914
20735WAT     H262448   5.456   6.262   1.753
20736WAT      O62449   3.075   3.324   8.042
20736WAT     H162450   3.036   3.407   8.002
20736WAT     H262451   3.163   3.303   7.998
20737WAT      O62452   3.107   8.759   2.078
20737WAT     H162453   3.064   8.779   1.989
20737WAT     H262454   3.182   8.695   2.064
20738WAT      O62455   4.423   3.168   9.733
20738WAT     H162456   4.387   3.261   9.743
20738WAT     H262457   4.522   3.172   9.721
20739WAT      O62458   9.316   0.812   0.144
20739WAT     H162459   9.252   0.735   0.140
20739WAT     H262460   9.409   0.777   0.154
20740WAT      O62461   6.567   2.944   9.781
20740WAT     H162462   6.596   3.010   9.850
20740WAT     H262463   6.480   2.904   9.807
20741WAT      O62464   8.807   0.851   9.804
20741WAT     H162465   8.782   0.775   9.743
20741WAT     H262466   8.874   0.909   9.759
20742WAT      O62467   4.706   6.032   2.470
20742WAT     H162468   4.662   6.034   2.380
20742WAT     H262469   4.649   6.079   2.537
20743WAT      O62470   0.220   5.570   2.197
20743WAT     H162471   0.264   5.557   2.108
20743WAT     H262472   0.187   5.664   2.204
20744WAT      O62473   9.621   7.801   8.554
20744WAT     H162474   9.548   7.732   8.557
20744WAT     H262475   9.587   7.887   8.592
20745WAT      O62476   2.269   9.447   3.946
20745WAT     H162477   2.240   9.355   3.972
20745WAT     H262478   2.239   9.467   3.853
20746WAT      O62479   9.517   1.649   4.585
20746WAT     H162480   9.479   1.562   4.617
20746WAT     H262481   9.556   1.699   4.663
20747WAT      O62482   4.546   4.705   9.207
20747WAT     H162483   4.550   4.739   9.301
20747WAT     H262484   4.629   4.653   9.187
20748WAT      O62485   1.020   4.987   3.505
20748WAT     H162486   0.967   4.962   3.424
20748WAT     H262487   1.070   4.907   3.538
20749WAT      O62488   4.816   8.641   9.469
20749WAT     H162489   4.804   8.703   9.547
20749WAT     H262490   4.811   8.693   9.384
20750WAT      O62491   8.635   6.211   4.450
20750WAT     H162492   8.659   6.139   4.384
20750WAT     H262493   8.714   6.231   4.508
20751WAT      O62494   4.202   3.322   9.145
20751WAT     H162495   4.150   3.293   9.225
20751WAT     H262496   4.200   3.250   9.076
20752WAT      O62497   9.506   4.992   1.059
20752WAT     H162498   9.554   5.048   0.993
20752WAT     H262499   9.494   4.900   1.022
20753WAT      O62500   7.886   6.823   0.537
20753WAT     H162501   7.929   6.863   0.456
20753WAT     H262502   7.810   6.764   0.509
20754WAT      O62503   0.290   8.948   2.319
20754WAT     H162504   0.336   9.032   2.293
20754WAT     H262505   0.331   8.913   2.404
20755WAT      O62506   9.888   3.637   8.010
20755WAT     H162507   9.901   3.680   8.099
20755WAT     H262508   9.844   3.547   8.022
20756WAT      O62509   9.690   7.613   4.133
20756WAT     H162510   9.618   7.677   4.160
20756WAT     H262511   9.662   7.519   4.154
20757WAT      O62512   1.253   8.190   7.297
20757WAT     H162513   1.342   8.212   7.336
20757WAT     H262514   1.249   8.092   7.275
20758WAT      O62515   7.405   1.375   2.641
20758WAT     H162516   7.366   1.464   2.664
20758WAT     H262517   7.462   1.344   2.717
20759WAT      O62518   2.263   7.271   6.857
20759WAT     H162519   2.237   7.282   6.761
20759WAT     H262520   2.216   7.191   6.894
20760WAT      O62521   5.106   2.479   0.257
20760WAT     H162522   5.044   2.432   0.195
20760WAT     H262523   5.070   2.570   0.279
20761WAT      O62524   4.569   5.474   5.915
20761WAT     H162525   4.550   5.383   5.879
20761WAT     H262526   4.606   5.532   5.842
20762WAT      O62527   3.063   1.173   1.085
20762WAT     H162528   3.095   1.099   1.025
20762WAT     H262529   3.084   1.261   1.043
20763WAT      O62530   6.946   5.477   7.859
20763WAT     H162531   6.990   5.421   7.790
20763WAT     H262532   7.013   5.539   7.900
20764WAT      O62533   2.949   6.928   7.406
20764WAT     H162534   2.943   6.844   7.353
20764WAT     H262535   3.036   6.931   7.455
20765WAT      O62536   3.506   5.563   4.127
20765WAT     H162537   3.465   5.479   4.162
20765WAT     H262538   3.458   5.592   4.044
20766WAT      O62539   7.235   3.539   5.372
20766WAT     H162540   7.217   3.455   5.424
20766WAT     H262541   7.180   3.538   5.288
20767WAT      O62542   4.162   4.233   5.804
20767WAT     H162543   4.089   4.294   5.833
20767WAT     H262544   4.222   4.281   5.739
20768WAT      O62545   1.300   4.405   0.092
20768WAT     H162546   1.370   4.413   0.021
20768WAT     H262547   1.314   4.476   0.161
20769WAT      O62548   6.117   8.814   8.205
20769WAT     H162549   6.071   8.726   8.216
20769WAT     H262550   6.067   8.869   8.138
20770WAT      O62551   6.189   3.250   6.811
20770WAT     H162552   6.115   3.318   6.814
20770WAT     H262553   6.258   3.273   6.880
20771WAT      O62554   0.486   8.858   1.668
20771WAT     H162555   0.526   8.878   1.579
20771WAT     H262556   0.479   8.759   1.679
20772WAT      O62557   4.097   5.716   1.515
20772WAT     H162558   4.035   5.773   1.461
20772WAT     H262559   4.154   5.662   1.453
20773WAT      O62560   5.203   8.551   6.833
20773WAT     H162561   5.143   8.523   6.758
20773WAT     H262562   5.164   8.631   6.879
20774WAT      O62563   3.091   8.284   9.206
20774WAT     H162564   3.152   8.363   9.198
20774WAT     H262565   3.141   8.207   9.246
20775WAT      O62566   0.342   9.787   6.058
20775WAT     H162567   0.338   9.875   6.107
20775WAT     H262568   0.419   9.733   6.094
20776WAT      O62569   5.558   9.415   8.036
20776WAT     H162570   5.579   9.451   7.945
20776WAT     H262571   5.526   9.489   8.094
20777WAT      O62572   1.031   5.995   3.477
20777WAT     H162573   1.054   6.063   3.407
20777WAT     H262574   0.996   5.913   3.432
20778WAT      O62575   3.070   8.073   8.353
20778WAT     H162576   3.001   8.035   8.415
20778WAT     H262577   3.025   8.133   8.287
20779WAT      O62578   5.834   0.074   5.657
20779WAT     H162579   5.842   0.099   5.561
20779WAT     H262580   5.772  -0.003   5.667
20780WAT      O62581   4.102   8.376   1.941
20780WAT     H162582   4.059   8.453   1.987
20780WAT     H262583   4.196   8.365   1.973
20781WAT      O62584   1.631   3.252   7.652
20781WAT     H162585   1.570   3.175   7.668
20781WAT     H262586   1.580   3.338   7.660
20782WAT      O62587   9.818   3.724   0.604
20782WAT     H162588   9.847   3.736   0.699
20782WAT     H262589   9.761   3.643   0.596
20783WAT      O62590   5.220   8.008   9.165
20783WAT     H162591   5.124   7.979   9.170
20783WAT     H262592   5.270   7.946   9.104
20784WAT      O62593   8.692   5.699   6.753
20784WAT     H162594   8.721   5.705   6.848
20784WAT     H262595   8.772   5.692   6.694
20785WAT      O62596   7.842   3.941   9.450
20785WAT     H162597   7.854   3.986   9.538
20785WAT     H262598   7.907   3.866   9.440
20786WAT      O62599   3.346   5.845   3.153
20786WAT     H162600   3.322   5.941   3.172
20786WAT     H262601   3.262   5.792   3.140
20787WAT      O62602   0.838   9.157   9.152
20787WAT     H162603   0.738   9.159   9.160
20787WAT     H262604   0.868   9.235   9.096
20788WAT      O62605   5.399   2.131   3.372
20788WAT     H162606   5.487   2.167   3.342
20788WAT     H262607   5.325   2.172   3.318
20789WAT      O62608   6.902   8.816   6.825
20789WAT     H162609   6.935   8.908   6.807
20789WAT     H262610   6.918   8.794   6.921
20790WAT      O62611   9.280   1.810   7.545
20790WAT     H162612   9.328   1.747   7.484
20790WAT     H262613   9.237   1.758   7.619
20791WAT      O62614   0.454   4.662   0.840
20791WAT     H162615   0.441   4.691   0.745
20791WAT     H262616   0.368   4.673   0.890
20792WAT      O62617   9.221   0.646   9.573
20792WAT     H162618   9.158   0.642   9.495
20792WAT     H262619   9.307   0.687   9.543
20793WAT      O62620   8.197   4.775   2.645
20793WAT     H162621   8.219   4.690   2.598
20793WAT     H262622   8.220   4.765   2.742
20794WAT      O62623   7.254   2.708   8.241
20794WAT     H162624   7.203   2.790   8.268
20794WAT     H262625   7.328   2.735   8.179
20795WAT      O62626   9.568   8.730   8.336
20795WAT     H162627   9.582   8.814   8.387
20795WAT     H262628   9.496   8.743   8.267
20796WAT      O62629   6.944   6.075   4.902
20796WAT     H162630   6.851   6.049   4.929
20796WAT     H262631   7.009   6.041   4.970
20797WAT      O62632   1.937   2.834   3.214
20797WAT     H162633   1.934   2.804   3.119
20797WAT     H262634   2.000   2.776   3.265
20798WAT      O62635   9.139   3.686   8.142
20798WAT     H162636   9.152   3.779   8.109
20798WAT     H262637   9.140   3.622   8.065
20799WAT      O62638   4.309   3.438   8.133
20799WAT     H162639   4.371   3.507   8.172
20799WAT     H262640   4.264   3.388   8.207
20800WAT      O62641   4.456   6.367   6.589
20800WAT     H162642   4.468   6.299   6.517
20800WAT     H262643   4.368   6.414   6.578
20801WAT      O62644   5.552   3.500   9.758
20801WAT     H162645   5.454   3.519   9.771
20801WAT     H262646   5.604   3.541   9.833
20802WAT      O62647   6.748   5.467   4.662
20802WAT     H162648   6.659   5.451   4.620
20802WAT     H262649   6.736   5.495   4.757
20803WAT      O62650   6.140   7.271   7.227
20803WAT     H162651   6.200   7.330   7.173
20803WAT     H262652   6.196   7.210   7.283
20804WAT      O62653   2.192   6.248   2.447
20804WAT     H162654   2.254   6.187   2.397
20804WAT     H262655   2.180   6.213   2.540
20805WAT      O62656   8.535   4.670   0.413
20805WAT     H162657   8.588   4.605   0.468
20805WAT     H262658   8.484   4.620   0.343
20806WAT      O62659   2.935   2.668   7.657
20806WAT     H162660   3.012   2.720   7.692
20806WAT     H262661   2.907   2.600   7.724
20807WAT      O62662   6.434   5.406   2.529
20807WAT     H162663   6.339   5.380   2.546
20807WAT     H262664   6.495   5.334   2.564
20808WAT      O62665   0.172   2.416   3.685
20808WAT     H162666   0.216   2.481   3.624
20808WAT     H262667   0.203   2.433   3.779
20809WAT      O62668   1.990   3.577   6.427
20809WAT     H162669   2.006   3.676   6.425
20809WAT     H262670   2.066   3.530   6.381
20810WAT      O62671   8.770   8.977   8.062
20810WAT     H162672   8.772   8.892   8.116
20810WAT     H262673   8.738   8.956   7.970
20811WAT      O62674   6.489   5.807   9.273
20811WAT     H162675   6.489   5.906   9.258
20811WAT     H262676   6.396   5.772   9.264
20812WAT      O62677   2.967   7.196   6.133
20812WAT     H162678   2.990   7.103   6.107
20812WAT     H262679   3.051   7.247   6.150
20813WAT      O62680   9.631   0.775   0.457
20813WAT     H162681   9.706   0.827   0.416
20813WAT     H262682   9.668   0.693   0.501
20814WAT      O62683   4.076   0.140   3.146
20814WAT     H162684   4.175   0.142   3.157
20814WAT     H262685   4.048   0.211   3.081
20815WAT      O62686   1.740   8.438   7.598
20815WAT     H162687   1.795   8.378   7.540
20815WAT     H262688   1.672   8.485   7.542
20816WAT      O62689   1.533   6.868   7.981
20816WAT     H162690   1.507   6.863   8.077
20816WAT     H262691   1.500   6.787   7.933
20817WAT      O62692   3.196   7.722   8.856
20817WAT     H162693   3.202   7.754   8.761
20817WAT     H262694   3.130   7.778   8.906
20818WAT      O62695   5.938   5.617   6.899
20818WAT     H162696   5.996   5.685   6.945
20818WAT     H262697   5.914   5.545   6.964
20819WAT      O62698   8.835   2.227   6.040
20819WAT     H162699   8.791   2.289   5.974
20819WAT     H262700   8.769   2.158   6.069
20820WAT      O62701   3.274   2.088   7.382
20820WAT     H162702   3.275   1.996   7.420
20820WAT     H262703   3.330   2.091   7.299
20821WAT      O62704   5.624   0.865   0.677
20821WAT     H162705   5.588   0.783   0.632
20821WAT     H262706   5.570   0.883   0.760
20822WAT      O62707   2.229   2.575   3.546
20822WAT     H162708   2.253   2.562   3.450
20822WAT     H262709   2.134   2.547   3.561
20823WAT      O62710   3.993   4.420   3.431
20823WAT     H162711   3.967   4.335   3.477
20823WAT     H262712   3.916   4.484   3.433
20824WAT      O62713   2.456   7.224   7.486
20824WAT     H162714   2.462   7.125   7.496
20824WAT     H262715   2.459   7.248   7.389
20825WAT      O62716   0.312   3.542   0.584
20825WAT     H162717   0.222   3.583   0.567
20825WAT     H262718   0.350   3.510   0.497
20826WAT      O62719   2.061   4.334   1.850
20826WAT     H162720   2.074   4.433   1.850
20826WAT     H262721   2.095   4.295   1.936
20827WAT      O62722   8.468   9.120   3.432
20827WAT     H162723   8.472   9.116   3.333
20827WAT     H262724   8.528   9.050   3.471
20828WAT      O62725   0.930   0.598   9.846
20828WAT     H162726   0.965   0.686   9.814
20828WAT     H262727   0.954   0.526   9.781
20829WAT      O62728   2.309   9.606   1.997
20829WAT     H162729   2.231   9.573   1.943
20829WAT     H262730   2.279   9.678   2.059
20830WAT      O62731   4.200   6.815   7.681
20830WAT     H162732   4.199   6.898   7.736
20830WAT     H262733   4.129   6.752   7.714
20831WAT      O62734   7.341   6.117   0.081
20831WAT     H162735   7.287   6.157   0.008
20831WAT     H262736   7.434   6.153   0.077
20832WAT      O62737   3.250   7.791   6.225
20832WAT     H162738   3.298   7.753   6.304
20832WAT     H262739   3.171   7.844   6.256
20833WAT      O62740   9.325   4.064   4.191
20833WAT     H162741   9.405   4.094   4.137
20833WAT     H262742   9.271   4.144   4.217
20834WAT      O62743   6.918   9.484   5.447
20834WAT     H162744   6.862   9.405   5.420
20834WAT     H262745   6.861   9.566   5.450
20835WAT      O62746   6.502   9.144   3.370
20835WAT     H162747   6.542   9.195   3.294
20835WAT     H262748   6.575   9.104   3.426
20836WAT      O62749   6.046   1.683   7.837
20836WAT     H162750   5.989   1.601   7.837
20836WAT     H262751   5.989   1.763   7.820
20837WAT      O62752   9.631   2.849   2.778
20837WAT     H162753   9.723   2.831   2.742
20837WAT     H262754   9.599   2.769   2.828
20838WAT      O62755   4.916   9.035   6.358
20838WAT     H162756   4.846   9.078   6.302
20838WAT     H262757   4.980   8.986   6.299
20839WAT      O62758   0.732   1.299   2.138
20839WAT     H162759   0.696   1.342   2.221
20839WAT     H262760   0.827   1.327   2.125
20840WAT      O62761   5.082   2.120   1.342
20840WAT     H162762   5.156   2.174   1.382
20840WAT     H262763   4.994   2.160   1.368
20841WAT      O62764   4.694   6.348   2.522
20841WAT     H162765   4.646   6.310   2.601
20841WAT     H262766   4.637   6.418   2.479
20842WAT      O62767   0.129   6.666   7.392
20842WAT     H162768   0.182   6.618   7.462
20842WAT     H262769   0.089   6.749   7.431
20843WAT      O62770   8.347   1.969   3.508
20843WAT     H162771   8.314   1.879   3.482
20843WAT     H262772   8.428   1.993   3.453
20844WAT      O62773   2.931   0.170   9.039
20844WAT     H162774   2.928   0.090   9.099
20844WAT     H262775   2.949   0.141   8.945
20845WAT      O62776   3.564   9.129   8.440
20845WAT     H162777   3.494   9.089   8.382
20845WAT     H262778   3.644   9.069   8.442
20846WAT      O62779   8.305   3.529   7.734
20846WAT     H162780   8.321   3.483   7.647
20846WAT     H262781   8.319   3.627   7.723
20847WAT      O62782   5.286   2.321   5.736
20847WAT     H162783   5.233   2.391   5.687
20847WAT     H262784   5.236   2.234   5.734
20848WAT      O62785   2.018   1.670   1.699
20848WAT     H162786   1.980   1.762   1.689
20848WAT     H262787   1.972   1.607   1.637
20849WAT      O62788   6.423   6.879   7.737
20849WAT     H162789   6.490   6.951   7.724
20849WAT     H262790   6.422   6.852   7.834
20850WAT      O62791   5.350   3.802   7.312
20850WAT     H162792   5.365   3.814   7.410
20850WAT     H262793   5.320   3.889   7.272
20851WAT      O62794   8.573   2.075   9.065
20851WAT     H162795   8.559   2.156   9.008
20851WAT     H262796   8.617   2.102   9.151
20852WAT      O62797   8.537   6.912   4.109
20852WAT     H162798   8.507   6.905   4.014
20852WAT     H262799   8.575   6.824   4.139
20853WAT      O62800   8.194   2.857   6.557
20853WAT     H162801   8.182   2.907   6.643
20853WAT     H262802   8.128   2.889   6.490
20854WAT      O62803   0.463   4.156   4.154
20854WAT     H162804   0.458   4.226   4.225
20854WAT     H262805   0.551   4.162   4.107
20855WAT      O62806   6.627   3.507   1.533
20855WAT     H162807   6.577   3.448   1.596
20855WAT     H262808   6.605   3.603   1.552
20856WAT      O62809   2.291   5.312   1.899
20856WAT     H162810   2.280   5.234   1.961
20856WAT     H262811   2.251   5.393   1.941
20857WAT      O62812   0.174   3.616   1.698
20857WAT     H162813   0.236   3.690   1.670
20857WAT     H262814   0.132   3.639   1.786
20858WAT      O62815   5.979   4.696   5.547
20858WAT     H162816   5.994   4.611   5.498
20858WAT     H262817   6.064   4.725   5.592
20859WAT      O62818   8.361   8.865   1.036
20859WAT     H162819   8.363   8.767   1.052
20859WAT     H262820   8.414   8.913   1.106
20860WAT      O62821   4.008   1.220   8.374
20860WAT     H162822   3.957   1.188   8.293
20860WAT     H262823   4.028   1.317   8.364
20861WAT      O62824   2.090   9.323   9.091
20861WAT     H162825   2.075   9.420   9.073
20861WAT     H262826   2.023   9.269   9.039
20862WAT      O62827   4.601   7.244   7.726
20862WAT     H162828   4.507   7.209   7.733
20862WAT     H262829   4.599   7.336   7.689
20863WAT      O62830   7.030   1.345   5.610
20863WAT     H162831   7.113   1.401   5.612
20863WAT     H262832   6.961   1.391   5.554
20864WAT      O62833   5.517   6.831   4.657
20864WAT     H162834   5.491   6.906   4.597
20864WAT     H262835   5.586   6.775   4.612
20865WAT      O62836   7.348   9.776   0.526
20865WAT     H162837   7.394   9.802   0.610
20865WAT     H262838   7.255   9.744   0.547
20866WAT      O62839   4.924   4.706   3.278
20866WAT     H162840   5.008   4.656   3.259
20866WAT     H262841   4.877   4.728   3.193
20867WAT      O62842   7.965   8.762   7.801
20867WAT     H162843   7.961   8.835   7.869
20867WAT     H262844   7.908   8.686   7.831
20868WAT      O62845   0.628   6.150   7.926
20868WAT     H162846   0.568   6.170   8.004
20868WAT     H262847   0.722   6.138   7.959
20869WAT      O62848   2.863   8.196   2.495
20869WAT     H162849   2.930   8.123   2.509
20869WAT     H262850   2.772   8.163   2.524
20870WAT      O62851   5.870   7.157   4.041
20870WAT     H162852   5.825   7.246   4.038
20870WAT     H262853   5.879   7.127   4.136
20871WAT      O62854   5.400   6.415   0.351
20871WAT     H162855   5.412   6.323   0.388
20871WAT     H262856   5.489   6.454   0.328
20872WAT      O62857   4.425   5.767   7.889
20872WAT     H162858   4.385   5.853   7.859
20872WAT     H262859   4.366   5.724   7.957
20873WAT      O62860   4.891   3.266   4.590
20873WAT     H162861   4.812   3.312   4.549
20873WAT     H262862   4.968   3.269   4.526
20874WAT      O62863   2.863   2.071   9.108
20874WAT     H162864   2.765   2.076   9.124
20874WAT     H262865   2.907   2.025   9.184
20875WAT      O62866   4.533   3.667   9.688
20875WAT     H162867   4.563   3.600   9.620
20875WAT     H262868   4.495   3.619   9.767
20876WAT      O62869   7.345   0.484   5.922
20876WAT     H162870   7.410   0.509   5.850
20876WAT     H262871   7.264   0.443   5.880
20877WAT      O62872   7.396   5.283   2.506
20877WAT     H162873   7.362   5.191   2.528
20877WAT     H262874   7.430   5.327   2.589
20878WAT      O62875   8.401   7.855   2.619
20878WAT     H162876   8.446   7.766   2.626
20878WAT     H262877   8.454   7.914   2.557
20879WAT      O62878   9.782   3.045   6.404
20879WAT     H162879   9.782   3.081   6.311
20879WAT     H262880   9.701   3.078   6.452
20880WAT      O62881   5.076   7.865   2.567
20880WAT     H162882   5.164   7.850   2.524
20880WAT     H262883   5.089   7.875   2.666
20881WAT      O62884   3.846   9.089   5.152
20881WAT     H162885   3.756   9.063   5.117
20881WAT     H262886   3.861   9.046   5.241
20882WAT      O62887   4.683   5.245   2.287
20882WAT     H162888   4.711   5.284   2.375
20882WAT     H262889   4.639   5.156   2.303
20883WAT      O62890   0.442   5.096   5.909
20883WAT     H162891   0.420   5.003   5.879
20883WAT     H262892   0.360   5.153   5.900
20884WAT      O62893   9.362   2.278   9.729
20884WAT     H162894   9.307   2.342   9.676
20884WAT     H262895   9.415   2.328   9.797
20885WAT      O62896   9.213   9.822   6.669
20885WAT     H162897   9.293   9.841   6.725
20885WAT     H262898   9.200   9.897   6.604
20886WAT      O62899   8.173   5.935   1.290
20886WAT     H162900   8.122   6.017   1.313
20886WAT     H262901   8.160   5.914   1.193
20887WAT      O62902   6.646   2.089   2.737
20887WAT     H162903   6.616   2.183   2.753
20887WAT     H262904   6.746   2.084   2.741
20888WAT      O62905   6.617   6.894   9.080
20888WAT     H162906   6.630   6.960   9.154
20888WAT     H262907   6.685   6.821   9.088
20889WAT      O62908   0.396   8.828   5.418
20889WAT     H162909   0.454   8.847   5.497
20889WAT     H262910   0.328   8.900   5.408
20890WAT      O62911   0.316   0.268   1.676
20890WAT     H162912   0.319   0.294   1.580
20890WAT     H262913   0.229   0.223   1.695
20891WAT      O62914   5.979   4.026   1.722
20891WAT     H162915   6.028   3.941   1.740
20891WAT     H262916   6.002   4.060   1.631
20892WAT      O62917   4.970   1.941   6.526
20892WAT     H162918   4.921   2.028   6.515
20892WAT     H262919   5.028   1.945   6.607
20893WAT      O62920   2.971   8.833   8.659
20893WAT     H162921   2.936   8.744   8.631
20893WAT     H262922   3.067   8.824   8.685
20894WAT      O62923   4.521   2.160   2.548
20894WAT     H162924   4.596   2.224   2.564
20894WAT     H262925   4.521   2.131   2.452
20895WAT      O62926   6.736   0.447   6.760
20895WAT     H162927   6.763   0.356   6.791
20895WAT     H262928   6.814   0.491   6.714
20896WAT      O62929   8.326   6.646   3.784
20896WAT     H162930   8.366   6.736   3.803
20896WAT     H262931   8.370   6.577   3.842
20897WAT      O62932   8.297   7.018   6.382
20897WAT     H162933   8.313   6.943   6.318
20897WAT     H262934   8.213   7.002   6.433
20898WAT      O62935   3.310   1.114   2.306
20898WAT     H162936   3.240   1.159   2.251
20898WAT     H262937   3.347   1.179   2.372
20899WAT      O62938   6.672   2.717   0.212
20899WAT     H162939   6.577   2.701   0.184
20899WAT     H262940   6.708   2.635   0.256
20900WAT      O62941   6.745   2.266   7.578
20900WAT     H162942   6.781   2.185   7.531
20900WAT     H262943   6.789   2.276   7.667
20901WAT      O62944   1.599   4.842   8.271
20901WAT     H162945   1.696   4.866   8.270
20901WAT     H262946   1.551   4.898   8.338
20902WAT      O62947   3.498   5.915   7.953
20902WAT     H162948   3.595   5.897   7.937
20902WAT     H262949   3.458   5.959   7.873
20903WAT      O62950   1.611   3.505   6.737
20903WAT     H162951   1.711   3.498   6.736
20903WAT     H262952   1.573   3.442   6.804
20904WAT      O62953   2.955   9.224   3.085
20904WAT     H162954   3.041   9.179   3.059
20904WAT     H262955   2.881   9.158   3.083
20905WAT      O62956   1.938   5.698   6.371
20905WAT     H162957   1.914   5.732   6.280
20905WAT     H262958   1.931   5.773   6.437
20906WAT      O62959   6.251   8.629   3.114
20906WAT     H162960   6.275   8.533   3.128
20906WAT     H262961   6.172   8.652   3.171
20907WAT      O62962   9.238   0.588   7.030
20907WAT     H162963   9.164   0.656   7.034
20907WAT     H262964   9.280   0.580   7.120
20908WAT      O62965   5.828   1.885   2.439
20908WAT     H162966   5.778   1.959   2.485
20908WAT     H262967   5.901   1.924   2.383
20909WAT      O62968   2.402   3.617   3.200
20909WAT     H162969   2.460   3.547   3.159
20909WAT     H262970   2.413   3.616   3.299
20910WAT      O62971   1.940   7.198   7.757
20910WAT     H162972   1.893   7.186   7.845
20910WAT     H262973   2.029   7.153   7.760
20911WAT      O62974   1.868   6.376   8.504
20911WAT     H162975   1.868   6.471   8.535
20911WAT     H262976   1.789   6.359   8.445
20912WAT      O62977   4.200   7.954   2.044
20912WAT     H162978   4.191   7.874   2.103
20912WAT     H262979   4.151   8.031   2.085
20913WAT      O62980   8.838   9.293   3.868
20913WAT     H162981   8.869   9.228   3.800
20913WAT     H262982   8.787   9.367   3.823
20914WAT      O62983   8.211   7.133   3.401
20914WAT     H162984   8.241   7.157   3.309
20914WAT     H262985   8.175   7.214   3.447
20915WAT      O62986   5.415   1.140   7.162
20915WAT     H162987   5.500   1.182   7.193
20915WAT     H262988   5.340   1.167   7.223
20916WAT      O62989   1.354   7.295   0.408
20916WAT     H162990   1.333   7.286   0.311
20916WAT     H262991   1.448   7.324   0.419
20917WAT      O62992   3.197   6.652   8.896
20917WAT     H162993   3.098   6.660   8.883
20917WAT     H262994   3.244   6.694   8.818
20918WAT      O62995   9.294   0.613   7.289
20918WAT     H162996   9.347   0.693   7.314
20918WAT     H262997   9.339   0.531   7.324
20919WAT      O62998   2.358   1.625   8.446
20919WAT     H162999   2.423   1.585   8.510
20919WAT     H263000   2.267   1.586   8.460
20920WAT      O63001   8.676   3.855   1.293
20920WAT     H163002   8.765   3.896   1.309
20920WAT     H263003   8.627   3.904   1.221
20921WAT      O63004   3.010   9.471   7.989
20921WAT     H163005   3.083   9.506   8.048
20921WAT     H263006   2.932   9.533   7.994
20922WAT      O63007   8.318   9.203   6.501
20922WAT     H163008   8.221   9.191   6.521
20922WAT     H263009   8.338   9.300   6.487
20923WAT      O63010   2.354   7.093   3.831
20923WAT     H163011   2.303   7.019   3.875
20923WAT     H263012   2.302   7.128   3.753
20924WAT      O63013   3.280   1.105   8.507
20924WAT     H163014   3.268   1.196   8.546
20924WAT     H263015   3.303   1.113   8.410
20925WAT      O63016   6.257   6.783   2.128
20925WAT     H163017   6.302   6.733   2.054
20925WAT     H263018   6.173   6.824   2.095
20926WAT      O63019   4.109   4.836   3.471
20926WAT     H163020   4.097   4.935   3.461
20926WAT     H263021   4.025   4.796   3.507
20927WAT      O63022   4.085   4.041   2.388
20927WAT     H163023   4.011   4.107   2.372
20927WAT     H263024   4.065   3.987   2.470
20928WAT      O63025   0.323   9.489   0.948
20928WAT     H163026   0.278   9.406   0.982
20928WAT     H263027   0.274   9.523   0.868
20929WAT      O63028   4.812   1.319   9.584
20929WAT     H163029   4.856   1.244   9.535
20929WAT     H263030   4.816   1.302   9.682
20930WAT      O63031   1.771   7.325   0.280
20930WAT     H163032   1.861   7.369   0.281
20930WAT     H263033   1.736   7.321   0.187
20931WAT      O63034   2.652   1.375   9.789
20931WAT     H163035   2.598   1.458   9.803
20931WAT     H263036   2.681   1.339   9.877
20932WAT      O63037   2.553   4.605   6.886
20932WAT     H163038   2.647   4.575   6.873
20932WAT     H263039   2.549   4.705   6.887
20933WAT      O63040   5.653   8.511   9.342
20933WAT     H163041   5.707   8.542   9.420
20933WAT     H263042   5.700   8.534   9.257
20934WAT      O63043   3.069   9.533   8.491
20934WAT     H163044   3.079   9.630   8.469
20934WAT     H263045   3.002   9.523   8.565
20935WAT      O63046   9.296   5.013   0.771
20935WAT     H163047   9.330   4.933   0.722
20935WAT     H263048   9.328   5.010   0.866
20936WAT      O63049   8.088   8.673   5.536
20936WAT     H163050   8.017   8.611   5.568
20936WAT     H263051   8.051   8.765   5.527
20937WAT      O63052   1.872   1.327   6.716
20937WAT     H163053   1.938   1.313   6.642
20937WAT     H263054   1.885   1.418   6.755
20938WAT      O63055   8.501   6.512   3.245
20938WAT     H163056   8.548   6.493   3.331
20938WAT     H263057   8.403   6.496   3.257
20939WAT      O63058   9.847   2.952   8.822
20939WAT     H163059   9.767   3.011   8.806
20939WAT     H263060   9.824   2.858   8.798
20940WAT      O63061   4.290   5.497   2.580
20940WAT     H163062   4.252   5.405   2.570
20940WAT     H263063   4.218   5.561   2.605
20941WAT      O63064   2.616   7.283   7.957
20941WAT     H163065   2.676   7.254   8.032
20941WAT     H263066   2.571   7.204   7.917
20942WAT      O63067   8.918   3.594   8.437
20942WAT     H163068   8.905   3.571   8.340
20942WAT     H263069   9.012   3.626   8.452
20943WAT      O63070   4.557   3.064   3.820
20943WAT     H163071   4.523   3.154   3.847
20943WAT     H263072   4.516   3.038   3.733
20944WAT      O63073   7.011   5.410   4.624
20944WAT     H163074   6.916   5.440   4.630
20944WAT     H263075   7.017   5.312   4.642
20945WAT      O63076   1.640   4.817   9.405
20945WAT     H163077   1.591   4.904   9.405
20945WAT     H263078   1.718   4.823   9.468
20946WAT      O63079   6.949   1.226   0.836
20946WAT     H163080   6.876   1.255   0.897
20946WAT     H263081   6.948   1.126   0.827
20947WAT      O63082   2.715   1.065   0.253
20947WAT     H163083   2.691   0.986   0.197
20947WAT     H263084   2.706   1.148   0.197
20948WAT      O63085   7.918   6.864   7.279
20948WAT     H163086   7.964   6.776   7.272
20948WAT     H263087   7.986   6.937   7.287
20949WAT      O63088   5.446   6.984   0.433
20949WAT     H163089   5.486   7.063   0.386
20949WAT     H263090   5.431   7.006   0.529
20950WAT      O63091   2.006   2.591   7.152
20950WAT     H163092   2.036   2.646   7.230
20950WAT     H263093   2.017   2.643   7.068
20951WAT      O63094   1.721   4.497   1.269
20951WAT     H163095   1.690   4.402   1.263
20951WAT     H263096   1.671   4.552   1.202
20952WAT      O63097   6.769   0.351   5.173
20952WAT     H163098   6.736   0.445   5.162
20952WAT     H263099   6.806   0.318   5.087
20953WAT      O63100   6.500   0.943   0.008
20953WAT     H163101   6.403   0.918   0.014
20953WAT     H263102   6.539   0.949   0.099
20954WAT      O63103   5.250   5.163   3.110
20954WAT     H163104   5.290   5.241   3.157
20954WAT     H263105   5.152   5.158   3.129
20955WAT      O63106   8.795   2.280   3.216
20955WAT     H163107   8.857   2.211   3.252
20955WAT     H263108   8.776   2.261   3.120
20956WAT      O63109   0.809   1.209   8.469
20956WAT     H163110   0.821   1.290   8.411
20956WAT     H263111   0.861   1.219   8.553
20957WAT      O63112   9.288   6.536   1.327
20957WAT     H163113   9.217   6.489   1.274
20957WAT     H263114   9.370   6.546   1.272
20958WAT      O63115   3.964   4.488   6.657
20958WAT     H163116   3.891   4.468   6.593
20958WAT     H263117   4.035   4.417   6.650
20959WAT      O63118   9.714   7.575   6.374
20959WAT     H163119   9.693   7.606   6.281
20959WAT     H263120   9.782   7.502   6.369
20960WAT      O63121   3.412   7.539   5.390
20960WAT     H163122   3.508   7.532   5.417
20960WAT     H263123   3.380   7.632   5.403
20961WAT      O63124   1.217   7.673   9.466
20961WAT     H163125   1.213   7.608   9.542
20961WAT     H263126   1.135   7.730   9.466
20962WAT      O63127   6.689   8.698   1.793
20962WAT     H163128   6.622   8.731   1.859
20962WAT     H263129   6.658   8.611   1.754
20963WAT      O63130   1.463   0.585   8.731
20963WAT     H163131   1.513   0.641   8.797
20963WAT     H263132   1.494   0.607   8.639
20964WAT      O63133   4.448   1.754   0.140
20964WAT     H163134   4.381   1.793   0.077
20964WAT     H263135   4.444   1.654   0.134
20965WAT      O63136   0.066   7.653   0.609
20965WAT     H163137   0.108   7.700   0.687
20965WAT     H263138  -0.017   7.606   0.639
20966WAT      O63139   4.211   9.142   1.817
20966WAT     H163140   4.246   9.086   1.741
20966WAT     H263141   4.264   9.226   1.824
20967WAT      O63142   7.848   1.153   3.869
20967WAT     H163143   7.770   1.098   3.839
20967WAT     H263144   7.927   1.133   3.810
20968WAT      O63145   2.268   3.208   0.801
20968WAT     H163146   2.281   3.139   0.872
20968WAT     H263147   2.221   3.288   0.841
20969WAT      O63148   1.922   5.432   5.950
20969WAT     H163149   1.887   5.518   5.913
20969WAT     H263150   1.864   5.356   5.919
20970WAT      O63151   7.978   8.020   2.486
20970WAT     H163152   7.888   8.016   2.442
20970WAT     H263153   8.029   7.937   2.463
20971WAT      O63154   0.686   7.515   6.955
20971WAT     H163155   0.760   7.553   7.010
20971WAT     H263156   0.641   7.588   6.904
20972WAT      O63157   7.657   0.031   2.696
20972WAT     H163158   7.671   0.007   2.792
20972WAT     H263159   7.705  -0.035   2.638
20973WAT      O63160   5.565   7.791   1.126
20973WAT     H163161   5.659   7.789   1.092
20973WAT     H263162   5.502   7.807   1.050
20974WAT      O63163   8.062   8.502   0.894
20974WAT     H163164   7.984   8.544   0.848
20974WAT     H263165   8.141   8.564   0.890
20975WAT      O63166   5.039   8.959   5.745
20975WAT     H163167   5.003   8.872   5.712
20975WAT     H263168   5.085   9.007   5.670
20976WAT      O63169   9.464   7.035   7.636
20976WAT     H163170   9.526   7.035   7.558
20976WAT     H263171   9.481   7.116   7.692
20977WAT      O63172   4.920   4.029   2.217
20977WAT     H163173   4.825   4.025   2.249
20977WAT     H263174   4.966   3.943   2.239
20978WAT      O63175   4.254   4.603   5.572
20978WAT     H163176   4.295   4.529   5.519
20978WAT     H263177   4.324   4.667   5.602
20979WAT      O63178   4.268   1.808   9.810
20979WAT     H163179   4.181   1.760   9.803
20979WAT     H263180   4.297   1.838   9.719
20980WAT      O63181   2.613   4.974   3.728
20980WAT     H163182   2.534   4.918   3.703
20980WAT     H263183   2.589   5.071   3.721
20981WAT      O63184   3.767   9.244   9.630
20981WAT     H163185   3.756   9.253   9.729
20981WAT     H263186   3.865   9.243   9.607
20982WAT      O63187   3.276   4.448   2.092
20982WAT     H163188   3.323   4.535   2.078
20982WAT     H263189   3.343   4.373   2.090
20983WAT      O63190   2.019   6.460   2.677
20983WAT     H163191   1.999   6.478   2.581
20983WAT     H263192   2.101   6.511   2.704
20984WAT      O63193   0.996   8.548   7.519
20984WAT     H163194   0.943   8.539   7.435
20984WAT     H263195   0.967   8.479   7.585
20985WAT      O63196   6.740   9.788   8.415
20985WAT     H163197   6.667   9.736   8.370
20985WAT     H263198   6.813   9.806   8.349
20986WAT      O63199   5.449   0.670   4.061
20986WAT     H163200   5.432   0.710   3.971
20986WAT     H263201   5.423   0.574   4.060
20987WAT      O63202   0.129   8.354   5.284
20987WAT     H163203   0.216   8.387   5.320
20987WAT     H263204   0.054   8.390   5.339
20988WAT      O63205   9.285   8.939   6.731
20988WAT     H163206   9.286   8.940   6.831
20988WAT     H263207   9.206   8.886   6.699
20989WAT      O63208   7.950   3.784   8.939
20989WAT     H163209   8.023   3.782   9.007
20989WAT     H263210   7.969   3.856   8.872
20990WAT      O63211   3.944   6.515   1.415
20990WAT     H163212   3.898   6.550   1.497
20990WAT     H263213   4.042   6.533   1.421
20991WAT      O63214   7.061   9.606   1.114
20991WAT     H163215   6.978   9.641   1.160
20991WAT     H263216   7.126   9.575   1.183
20992WAT      O63217   6.589   9.247   6.536
20992WAT     H163218   6.555   9.293   6.619
20992WAT     H263219   6.655   9.306   6.490
20993WAT      O63220   4.800   7.988   8.986
20993WAT     H163221   4.730   7.928   8.948
20993WAT     H263222   4.764   8.081   8.993
20994WAT      O63223   8.427   2.090   0.993
20994WAT     H163224   8.479   2.048   1.068
20994WAT     H263225   8.406   2.185   1.017
20995WAT      O63226   9.624   6.316   0.087
20995WAT     H163227   9.718   6.287   0.074
20995WAT     H263228   9.620   6.390   0.154
20996WAT      O63229   6.245   8.380   7.982
20996WAT     H163230   6.175   8.426   7.928
20996WAT     H263231   6.317   8.346   7.922
20997WAT      O63232   9.533   3.612   8.205
20997WAT     H163233   9.607   3.553   8.171
20997WAT     H263234   9.523   3.691   8.145
20998WAT      O63235   9.479   2.589   5.693
20998WAT     H163236   9.533   2.523   5.746
20998WAT     H263237   9.498   2.577   5.596
20999WAT      O63238   2.445   6.521   9.609
20999WAT     H163239   2.451   6.421   9.613
20999WAT     H263240   2.494   6.554   9.529
21000WAT      O63241   1.676   6.562   4.483
21000WAT     H163242   1.699   6.658   4.471
21000WAT     H263243   1.589   6.543   4.438
21001WAT      O63244   7.472   9.057   3.220
21001WAT     H163245   7.479   9.128   3.151
21001WAT     H263246   7.397   8.994   3.196
21002WAT      O63247   2.227   6.350   5.158
21002WAT     H163248   2.237   6.299   5.073
21002WAT     H263249   2.317   6.375   5.194
21003WAT      O63250   2.708   4.224   7.094
21003WAT     H163251   2.618   4.206   7.134
21003WAT     H263252   2.736   4.146   7.038
21004WAT      O63253   0.561   0.034   9.376
21004WAT     H163254   0.636   0.026   9.310
21004WAT     H263255   0.507  -0.050   9.375
21005WAT      O63256   2.563   5.881   6.231
21005WAT     H163257   2.646   5.914   6.185
21005WAT     H263258   2.589   5.820   6.305
21006WAT      O63259   8.447   8.266   8.801
21006WAT     H163260   8.368   8.326   8.813
21006WAT     H263261   8.494   8.254   8.888
21007WAT      O63262   7.305   5.194   6.920
21007WAT     H163263   7.211   5.165   6.938
21007WAT     H263264   7.352   5.209   7.007
21008WAT      O63265   0.750   4.299   4.289
21008WAT     H163266   0.745   4.246   4.204
21008WAT     H263267   0.832   4.273   4.340
21009WAT      O63268   7.759   7.218   1.985
21009WAT     H163269   7.845   7.204   2.035
21009WAT     H263270   7.780   7.243   1.890
21010WAT      O63271   7.027   2.474   3.709
21010WAT     H163272   6.944   2.448   3.758
21010WAT     H263273   7.092   2.514   3.773
21011WAT      O63274   6.127   1.099   9.096
21011WAT     H163275   6.082   1.111   9.008
21011WAT     H263276   6.075   1.148   9.167
21012WAT      O63277   9.002   8.891   9.752
21012WAT     H163278   8.976   8.808   9.704
21012WAT     H263279   8.986   8.879   9.850
21013WAT      O63280   3.772   2.774   9.756
21013WAT     H163281   3.817   2.787   9.668
21013WAT     H263282   3.804   2.844   9.820
21014WAT      O63283   3.098   0.284   7.268
21014WAT     H163284   3.055   0.374   7.280
21014WAT     H263285   3.027   0.217   7.248
21015WAT      O63286   4.952   4.192   2.456
21015WAT     H163287   4.981   4.168   2.363
21015WAT     H263288   5.032   4.200   2.516
21016WAT      O63289   2.116   1.273   8.696
21016WAT     H163290   2.158   1.260   8.786
21016WAT     H263291   2.019   1.250   8.701
21017WAT      O63292   5.398   0.656   9.509
21017WAT     H163293   5.309   0.699   9.525
21017WAT     H263294   5.445   0.703   9.434
21018WAT      O63295   4.319   4.043   7.536
21018WAT     H163296   4.243   4.100   7.565
21018WAT     H263297   4.343   4.065   7.441
21019WAT      O63298   1.509   6.755   2.324
21019WAT     H163299   1.500   6.851   2.298
21019WAT     H263300   1.564   6.748   2.407
21020WAT      O63301   9.043   0.130   6.844
21020WAT     H163302   9.074   0.083   6.761
21020WAT     H263303   8.966   0.189   6.822
21021WAT      O63304   7.178   1.165   7.004
21021WAT     H163305   7.083   1.195   7.015
21021WAT     H263306   7.227   1.176   7.091
21022WAT      O63307   1.510   9.036   8.298
21022WAT     H163308   1.568   9.109   8.263
21022WAT     H263309   1.565   8.955   8.318
21023WAT      O63310   6.666   3.041   7.335
21023WAT     H163311   6.661   2.942   7.347
21023WAT     H263312   6.753   3.075   7.370
21024WAT      O63313   2.373   1.173   7.633
21024WAT     H163314   2.307   1.233   7.588
21024WAT     H263315   2.357   1.078   7.604
21025WAT      O63316   0.827   2.251   1.971
21025WAT     H163317   0.731   2.278   1.985
21025WAT     H263318   0.832   2.153   1.953
21026WAT      O63319   5.380   2.974   3.525
21026WAT     H163320   5.438   3.019   3.457
21026WAT     H263321   5.380   3.028   3.609
21027WAT      O63322   5.165   1.491   7.804
21027WAT     H163323   5.071   1.496   7.837
21027WAT     H263324   5.226   1.465   7.880
21028WAT      O63325   8.781   5.576   0.430
21028WAT     H163326   8.853   5.620   0.376
21028WAT     H263327   8.788   5.606   0.525
21029WAT      O63328   5.050   9.662   1.324
21029WAT     H163329   5.145   9.667   1.293
21029WAT     H263330   5.002   9.746   1.298
21030WAT      O63331   4.668   2.520   6.029
21030WAT     H163332   4.687   2.481   5.939
21030WAT     H263333   4.738   2.489   6.094
21031WAT      O63334   6.115   5.311   9.280
21031WAT     H163335   6.094   5.230   9.225
21031WAT     H263336   6.206   5.303   9.319
21032WAT      O63337   7.573   5.572   6.018
21032WAT     H163338   7.541   5.533   6.105
21032WAT     H263339   7.587   5.670   6.028
21033WAT      O63340   4.206   4.012   2.777
21033WAT     H163341   4.166   3.956   2.705
21033WAT     H263342   4.293   3.973   2.806
21034WAT      O63343   4.758   6.611   0.330
21034WAT     H163344   4.845   6.648   0.298
21034WAT     H263345   4.683   6.665   0.292
21035WAT      O63346   5.979   4.607   3.112
21035WAT     H163347   6.038   4.594   3.032
21035WAT     H263348   5.903   4.542   3.109
21036WAT      O63349   5.910   9.395   7.082
21036WAT     H163350   5.848   9.376   7.158
21036WAT     H263351   5.978   9.464   7.111
21037WAT      O63352   1.015   6.988   4.359
21037WAT     H163353   1.045   6.911   4.303
21037WAT     H263354   1.064   7.070   4.331
21038WAT      O63355   6.759   8.253   0.971
21038WAT     H163356   6.814   8.302   0.903
21038WAT     H263357   6.679   8.213   0.926
21039WAT      O63358   0.584   3.738   4.582
21039WAT     H163359   0.660   3.674   4.573
21039WAT     H263360   0.598   3.796   4.663
21040WAT      O63361   4.249   2.119   0.611
21040WAT     H163362   4.290   2.110   0.520
21040WAT     H263363   4.153   2.092   0.607
21041WAT      O63364   0.991   3.240   5.690
21041WAT     H163365   0.961   3.287   5.773
21041WAT     H263366   1.077   3.279   5.658
21042WAT      O63367   6.004   5.540   5.518
21042WAT     H163368   6.023   5.456   5.467
21042WAT     H263369   6.035   5.619   5.466
21043WAT      O63370   0.864   0.595   5.900
21043WAT     H163371   0.794   0.524   5.907
21043WAT     H263372   0.821   0.685   5.900
21044WAT      O63373   6.960   2.284   5.495
21044WAT     H163374   6.959   2.366   5.438
21044WAT     H263375   6.952   2.202   5.438
21045WAT      O63376   7.322   4.497   4.081
21045WAT     H163377   7.325   4.447   4.167
21045WAT     H263378   7.323   4.433   4.005
21046WAT      O63379   7.075   8.935   1.079
21046WAT     H163380   7.079   8.847   1.031
21046WAT     H263381   7.139   8.999   1.037
21047WAT      O63382   4.216   7.429   2.380
21047WAT     H163383   4.152   7.501   2.352
21047WAT     H263384   4.308   7.452   2.348
21048WAT      O63385   9.072   0.613   1.223
21048WAT     H163386   8.994   0.632   1.162
21048WAT     H263387   9.139   0.686   1.213
21049WAT      O63388   3.835   8.071   4.606
21049WAT     H163389   3.911   8.104   4.660
21049WAT     H263390   3.752   8.070   4.662
21050WAT      O63391   4.807   6.820   8.282
21050WAT     H163392   4.825   6.743   8.220
21050WAT     H263393   4.708   6.836   8.288
21051WAT      O63394   9.820   5.209   1.723
21051WAT     H163395   9.766   5.260   1.790
21051WAT     H263396   9.869   5.274   1.664
21052WAT      O63397   0.295   3.670   0.129
21052WAT     H163398   0.350   3.631   0.055
21052WAT     H263399   0.337   3.755   0.161
21053WAT      O63400   4.303   9.581   8.780
21053WAT     H163401   4.379   9.594   8.717
21053WAT     H263402   4.277   9.484   8.783
21054WAT      O63403   3.482   6.942   7.014
21054WAT     H163404   3.515   6.956   7.108
21054WAT     H263405   3.556   6.960   6.950
21055WAT      O63406   1.477   8.882   7.432
21055WAT     H163407   1.419   8.820   7.485
21055WAT     H263408   1.439   8.974   7.436
21056WAT      O63409   2.937   9.188   7.891
21056WAT     H163410   2.922   9.126   7.815
21056WAT     H263411   3.032   9.219   7.892
21057WAT      O63412   3.641   9.349   2.157
21057WAT     H163413   3.583   9.405   2.216
21057WAT     H263414   3.591   9.328   2.072
21058WAT      O63415   8.836   5.130   1.586
21058WAT     H163416   8.853   5.032   1.599
21058WAT     H263417   8.747   5.144   1.544
21059WAT      O63418   3.776   6.208   8.026
21059WAT     H163419   3.775   6.195   8.125
21059WAT     H263420   3.817   6.297   8.005
21060WAT      O63421   6.913   5.889   0.268
21060WAT     H163422   6.889   5.952   0.342
21060WAT     H263423   6.984   5.931   0.211
21061WAT      O63424   1.567   9.421   2.392
21061WAT     H163425   1.596   9.441   2.486
21061WAT     H263426   1.544   9.324   2.384
21062WAT      O63427   7.260   7.652   5.627
21062WAT     H163428   7.181   7.713   5.626
21062WAT     H263429   7.341   7.703   5.656
21063WAT      O63430   3.690   1.918   6.939
21063WAT     H163431   3.649   1.829   6.916
21063WAT     H263432   3.622   1.990   6.926
21064WAT      O63433   0.878   5.452   7.046
21064WAT     H163434   0.917   5.540   7.074
21064WAT     H263435   0.926   5.418   6.965
21065WAT      O63436   1.441   1.369   1.691
21065WAT     H163437   1.457   1.315   1.608
21065WAT     H263438   1.515   1.435   1.702
21066WAT      O63439   4.461   0.963   1.464
21066WAT     H163440   4.468   0.873   1.507
21066WAT     H263441   4.552   0.993   1.435
21067WAT      O63442   6.245   1.637   8.046
21067WAT     H163443   6.329   1.664   7.998
21067WAT     H263444   6.167   1.646   7.984
21068WAT      O63445   4.949   7.239   9.750
21068WAT     H163446   4.861   7.256   9.705
21068WAT     H263447   5.018   7.218   9.680
21069WAT      O63448   3.460   6.012   4.065
21069WAT     H163449   3.530   6.008   3.994
21069WAT     H263450   3.494   6.065   4.143
21070WAT      O63451   7.421   7.989   0.321
21070WAT     H163452   7.476   7.966   0.241
21070WAT     H263453   7.348   8.052   0.295
21071WAT      O63454   9.836   0.957   2.595
21071WAT     H163455   9.872   1.028   2.535
21071WAT     H263456   9.743   0.933   2.568
21072WAT      O63457   8.061   6.624   3.369
21072WAT     H163458   8.004   6.668   3.300
21072WAT     H263459   8.058   6.676   3.454
21073WAT      O63460   1.503   6.653   7.807
21073WAT     H163461   1.504   6.682   7.711
21073WAT     H263462   1.468   6.560   7.814
21074WAT      O63463   4.650   8.555   0.149
21074WAT     H163464   4.565   8.607   0.150
21074WAT     H263465   4.648   8.488   0.075
21075WAT      O63466   3.887   0.388   3.552
21075WAT     H163467   3.894   0.300   3.504
21075WAT     H263468   3.919   0.377   3.646
21076WAT      O63469   2.936   5.679   7.804
21076WAT     H163470   2.931   5.615   7.729
21076WAT     H263471   2.844   5.695   7.841
21077WAT      O63472   8.225   7.809   6.098
21077WAT     H163473   8.125   7.808   6.091
21077WAT     H263474   8.261   7.889   6.049
21078WAT      O63475   9.747   4.674   8.440
21078WAT     H163476   9.669   4.727   8.475
21078WAT     H263477   9.739   4.665   8.341
21079WAT      O63478   7.462   6.930   3.212
21079WAT     H163479   7.473   6.978   3.125
21079WAT     H263480   7.485   6.833   3.200
21080WAT      O63481   3.360   2.016   3.653
21080WAT     H163482   3.348   1.988   3.749
21080WAT     H263483   3.445   2.068   3.645
21081WAT      O63484   2.394   2.419   4.880
21081WAT     H163485   2.468   2.400   4.943
21081WAT     H263486   2.428   2.472   4.802
21082WAT      O63487   5.794   7.034   3.820
21082WAT     H163488   5.817   7.074   3.908
21082WAT     H263489   5.758   6.941   3.833
21083WAT      O63490   3.393   5.070   3.353
21083WAT     H163491   3.455   5.147   3.369
21083WAT     H263492   3.434   5.008   3.287
21084WAT      O63493   9.865   1.036   4.012
21084WAT     H163494   9.864   1.130   4.048
21084WAT     H263495   9.847   0.972   4.087
21085WAT      O63496   2.222   9.398   1.063
21085WAT     H163497   2.164   9.463   1.112
21085WAT     H263498   2.317   9.409   1.093
21086WAT      O63499   5.824   8.262   3.005
21086WAT     H163500   5.739   8.214   3.027
21086WAT     H263501   5.883   8.266   3.086
21087WAT      O63502   4.238   7.513   6.413
21087WAT     H163503   4.245   7.592   6.474
21087WAT     H263504   4.256   7.430   6.465
21088WAT      O63505   5.149   8.818   3.774
21088WAT     H163506   5.224   8.878   3.802
21088WAT     H263507   5.147   8.811   3.674
21089WAT      O63508   1.382   6.373   9.112
21089WAT     H163509   1.356   6.385   9.208
21089WAT     H263510   1.303   6.340   9.060
21090WAT      O63511   6.091   6.982   0.770
21090WAT     H163512   6.127   6.896   0.732
21090WAT     H263513   6.156   7.056   0.751
21091WAT      O63514   2.962   4.248   5.445
21091WAT     H163515   3.033   4.303   5.401
21091WAT     H263516   2.900   4.212   5.376
21092WAT      O63517   6.778   1.127   9.844
21092WAT     H163518   6.789   1.208   9.901
21092WAT     H263519   6.696   1.077   9.871
21093WAT      O63520   5.668   1.705   5.377
21093WAT     H163521   5.642   1.628   5.435
21093WAT     H263522   5.743   1.755   5.419
21094WAT      O63523   6.468   2.342   1.677
21094WAT     H163524   6.479   2.377   1.770
21094WAT     H263525   6.408   2.403   1.625
21095WAT      O63526   7.135   4.203   9.879
21095WAT     H163527   7.151   4.125   9.819
21095WAT     H263528   7.053   4.187   9.934
21096WAT      O63529   2.092   1.279   1.332
21096WAT     H163530   2.187   1.259   1.306
21096WAT     H263531   2.032   1.261   1.253
21097WAT      O63532   5.793   8.701   1.345
21097WAT     H163533   5.821   8.612   1.382
21097WAT     H263534   5.875   8.756   1.325
21098WAT      O63535   1.035   9.006   9.448
21098WAT     H163536   1.089   9.002   9.532
21098WAT     H263537   1.077   8.947   9.379
21099WAT      O63538   3.979   9.325   5.108
21099WAT     H163539   3.949   9.233   5.135
21099WAT     H263540   4.066   9.346   5.153
21100WAT      O63541   3.796   9.373   3.917
21100WAT     H163542   3.740   9.349   3.837
21100WAT     H263543   3.853   9.295   3.942
21101WAT      O63544   2.134   1.737   9.455
21101WAT     H163545   2.175   1.687   9.531
21101WAT     H263546   2.041   1.705   9.440
21102WAT      O63547   5.240   3.710   9.416
21102WAT     H163548   5.201   3.762   9.492
21102WAT     H263549   5.318   3.760   9.379
21103WAT      O63550   4.317   7.671   5.951
21103WAT     H163551   4.359   7.582   5.932
21103WAT     H263552   4.266   7.666   6.037
21104WAT      O63553   5.018   9.527   3.302
21104WAT     H163554   5.007   9.478   3.216
21104WAT     H263555   4.950   9.600   3.308
21105WAT      O63556   1.534   6.638   6.551
21105WAT     H163557   1.516   6.660   6.455
21105WAT     H263558   1.588   6.712   6.592
21106WAT      O63559   5.444   6.575   6.103
21106WAT     H163560   5.372   6.644   6.113
21106WAT     H263561   5.499   6.574   6.187
21107WAT      O63562   2.830   7.212   1.434
21107WAT     H163563   2.805   7.191   1.339
21107WAT     H263564   2.757   7.266   1.476
21108WAT      O63565   2.754   3.260   8.298
21108WAT     H163566   2.674   3.210   8.333
21108WAT     H263567   2.769   3.341   8.355
21109WAT      O63568   7.232   0.090   4.459
21109WAT     H163569   7.149   0.121   4.412
21109WAT     H263570   7.286   0.034   4.396
21110WAT      O63571   6.593   6.080   5.024
21110WAT     H163572   6.566   5.991   5.063
21110WAT     H263573   6.542   6.153   5.071
21111WAT      O63574   1.070   9.732   0.152
21111WAT     H163575   1.034   9.689   0.235
21111WAT     H263576   1.043   9.678   0.073
21112WAT      O63577   0.221   6.318   7.779
21112WAT     H163578   0.205   6.225   7.814
21112WAT     H263579   0.287   6.364   7.839
21113WAT      O63580   5.980   9.107   5.613
21113WAT     H163581   5.975   9.061   5.701
21113WAT     H263582   5.927   9.056   5.546
21114WAT      O63583   0.425   3.972   6.450
21114WAT     H163584   0.436   3.873   6.458
21114WAT     H263585   0.484   4.007   6.377
21115WAT      O63586   7.418   6.981   8.277
21115WAT     H163587   7.482   6.928   8.221
21115WAT     H263588   7.462   7.066   8.306
21116WAT      O63589   2.855   3.582   7.702
21116WAT     H163590   2.781   3.539   7.754
21116WAT     H263591   2.872   3.529   7.618
21117WAT      O63592   1.122   1.406   8.559
21117WAT     H163593   1.214   1.367   8.550
21117WAT     H263594   1.110   1.479   8.491
21118WAT      O63595   5.762   0.019   3.743
21118WAT     H163596   5.712   0.020   3.657
21118WAT     H263597   5.854   0.057   3.729
21119WAT      O63598   4.667   9.476   0.867
21119WAT     H163599   4.703   9.563   0.899
21119WAT     H263600   4.723   9.444   0.790
21120WAT      O63601   2.906   4.543   9.889
21120WAT     H163602   2.963   4.618   9.857
21120WAT     H263603   2.930   4.521   9.984
21121WAT      O63604   9.116   5.383   2.627
21121WAT     H163605   9.157   5.395   2.717
21121WAT     H263606   9.188   5.372   2.558
21122WAT      O63607   8.654   8.925   7.484
21122WAT     H163608   8.579   8.948   7.421
21122WAT     H263609   8.711   8.854   7.443
21123WAT      O63610   2.266   0.805   4.691
21123WAT     H163611   2.209   0.826   4.770
21123WAT     H263612   2.360   0.792   4.720
21124WAT      O63613   4.735   9.753   6.355
21124WAT     H163614   4.653   9.704   6.385
21124WAT     H263615   4.769   9.811   6.429
21125WAT      O63616   5.895   4.813   0.262
21125WAT     H163617   5.957   4.785   0.336
21125WAT     H263618   5.804   4.830   0.299
21126WAT      O63619   1.710   0.342   0.594
21126WAT     H163620   1.740   0.360   0.687
21126WAT     H263621   1.790   0.340   0.533
21127WAT      O63622   8.375   0.818   7.807
21127WAT     H163623   8.472   0.840   7.822
21127WAT     H263624   8.318   0.885   7.855
21128WAT      O63625   8.365   0.080   9.563
21128WAT     H163626   8.295   0.073   9.634
21128WAT     H263627   8.324   0.116   9.479
21129WAT      O63628   2.202   0.600   0.249
21129WAT     H163629   2.286   0.563   0.289
21129WAT     H263630   2.166   0.536   0.181
21130WAT      O63631   2.215   2.181   9.244
21130WAT     H163632   2.120   2.174   9.215
21130WAT     H263633   2.270   2.111   9.197
21131WAT      O63634   0.366   8.170   5.077
21131WAT     H163635   0.276   8.147   5.113
21131WAT     H263636   0.385   8.266   5.095
21132WAT      O63637   3.520   5.376   7.248
21132WAT     H163638   3.605   5.429   7.244
21132WAT     H263639   3.542   5.278   7.245
21133WAT      O63640   1.652   5.901   6.485
21133WAT     H163641   1.751   5.901   6.503
21133WAT     H263642   1.604   5.871   6.567
21134WAT      O63643   4.880   3.241   0.664
21134WAT     H163644   4.924   3.323   0.699
21134WAT     H263645   4.923   3.160   0.706
21135WAT      O63646   3.259   4.229   1.257
21135WAT     H163647   3.341   4.172   1.270
21135WAT     H263648   3.200   4.189   1.188
21136WAT      O63649   7.734   3.370   0.367
21136WAT     H163650   7.716   3.440   0.435
21136WAT     H263651   7.705   3.402   0.277
21137WAT      O63652   7.992   5.607   0.831
21137WAT     H163653   8.059   5.552   0.881
21137WAT     H263654   8.038   5.685   0.788
21138WAT      O63655   0.512   5.333   8.389
21138WAT     H163656   0.443   5.395   8.354
21138WAT     H263657   0.472   5.275   8.461
21139WAT      O63658   9.753   6.120   5.878
21139WAT     H163659   9.818   6.045   5.888
21139WAT     H263660   9.779   6.195   5.939
21140WAT      O63661   4.937   2.350   8.465
21140WAT     H163662   4.960   2.448   8.463
21140WAT     H263663   5.000   2.300   8.406
21141WAT      O63664   7.496   3.203   0.286
21141WAT     H163665   7.590   3.229   0.306
21141WAT     H263666   7.449   3.280   0.242
21142WAT      O63667   7.491   2.364   9.011
21142WAT     H163668   7.498   2.415   8.926
21142WAT     H263669   7.562   2.395   9.075
21143WAT      O63670   1.788   5.187   4.386
21143WAT     H163671   1.739   5.241   4.454
21143WAT     H263672   1.865   5.239   4.350
21144WAT      O63673   3.097   2.587   3.842
21144WAT     H163674   3.052   2.667   3.880
21144WAT     H263675   3.196   2.597   3.849
21145WAT      O63676   4.847   5.388   1.682
21145WAT     H163677   4.831   5.419   1.588
21145WAT     H263678   4.941   5.408   1.708
21146WAT      O63679   4.830   1.249   1.921
21146WAT     H163680   4.869   1.328   1.874
21146WAT     H263681   4.744   1.224   1.877
21147WAT      O63682   9.045   7.714   2.412
21147WAT     H163683   9.043   7.813   2.415
21147WAT     H263684   9.124   7.680   2.463
21148WAT      O63685   4.462   8.456   5.920
21148WAT     H163686   4.390   8.412   5.972
21148WAT     H263687   4.539   8.476   5.980
21149WAT      O63688   4.751   7.252   2.290
21149WAT     H163689   4.692   7.267   2.211
21149WAT     H263690   4.695   7.241   2.372
21150WAT      O63691   7.375   4.972   4.111
21150WAT     H163692   7.460   4.949   4.158
21150WAT     H263693   7.356   4.903   4.042
21151WAT      O63694   5.394   2.553   7.100
21151WAT     H163695   5.472   2.604   7.063
21151WAT     H263696   5.312   2.608   7.094
21152WAT      O63697   8.383   9.438   6.032
21152WAT     H163698   8.362   9.506   5.961
21152WAT     H263699   8.481   9.416   6.028
21153WAT      O63700   2.035   2.773   7.331
21153WAT     H163701   2.039   2.871   7.348
21153WAT     H263702   1.979   2.729   7.401
21154WAT      O63703   7.085   6.329   0.110
21154WAT     H163704   6.987   6.323   0.130
21154WAT     H263705   7.137   6.297   0.190
21155WAT      O63706   1.674   6.317   0.517
21155WAT     H163707   1.671   6.290   0.613
21155WAT     H263708   1.769   6.318   0.485
21156WAT      O63709   4.328   9.080   3.090
21156WAT     H163710   4.360   9.080   2.995
21156WAT     H263711   4.395   9.034   3.148
21157WAT      O63712   4.015   1.475   0.055
21157WAT     H163713   4.055   1.416  -0.015
21157WAT     H263714   3.924   1.442   0.078
21158WAT      O63715   5.036   9.267   4.744
21158WAT     H163716   4.999   9.352   4.781
21158WAT     H263717   5.074   9.212   4.819
21159WAT      O63718   8.440   1.212   7.656
21159WAT     H163719   8.390   1.267   7.722
21159WAT     H263720   8.399   1.121   7.649
21160WAT      O63721   4.743   3.349   2.816
21160WAT     H163722   4.698   3.435   2.840
21160WAT     H263723   4.706   3.276   2.874
21161WAT      O63724   5.138   5.710   8.769
21161WAT     H163725   5.169   5.633   8.713
21161WAT     H263726   5.061   5.682   8.826
21162WAT      O63727   6.704   1.612   9.554
21162WAT     H163728   6.660   1.648   9.473
21162WAT     H263729   6.683   1.514   9.563
21163WAT      O63730   5.897   8.253   4.187
21163WAT     H163731   5.944   8.195   4.121
21163WAT     H263732   5.800   8.227   4.190
21164WAT      O63733   2.599   0.914   6.953
21164WAT     H163734   2.635   0.939   7.044
21164WAT     H263735   2.671   0.926   6.885
21165WAT      O63736   1.695   2.294   9.870
21165WAT     H163737   1.602   2.264   9.850
21165WAT     H263738   1.711   2.383   9.829
21166WAT      O63739   3.619   4.153   6.316
21166WAT     H163740   3.610   4.088   6.241
21166WAT     H263741   3.715   4.157   6.345
21167WAT      O63742   5.832   7.847   5.997
21167WAT     H163743   5.760   7.810   6.057
21167WAT     H263744   5.895   7.903   6.051
21168WAT      O63745   4.037   5.394   0.819
21168WAT     H163746   4.112   5.329   0.825
21168WAT     H263747   3.951   5.348   0.842
21169WAT      O63748   3.691   5.764   9.263
21169WAT     H163749   3.788   5.742   9.253
21169WAT     H263750   3.654   5.792   9.174
21170WAT      O63751   0.448   4.384   2.243
21170WAT     H163752   0.513   4.325   2.290
21170WAT     H263753   0.469   4.387   2.145
21171WAT      O63754   9.254   8.300   1.862
21171WAT     H163755   9.230   8.309   1.765
21171WAT     H263756   9.183   8.344   1.918
21172WAT      O63757   5.922   6.013   0.214
21172WAT     H163758   6.018   6.038   0.227
21172WAT     H263759   5.896   5.943   0.281
21173WAT      O63760   7.570   3.747   3.079
21173WAT     H163761   7.583   3.763   3.177
21173WAT     H263762   7.485   3.790   3.049
21174WAT      O63763   0.571   9.331   8.805
21174WAT     H163764   0.662   9.290   8.810
21174WAT     H263765   0.530   9.334   8.896
21175WAT      O63766   6.203   7.414   8.834
21175WAT     H163767   6.282   7.468   8.864
21175WAT     H263768   6.204   7.326   8.882
21176WAT      O63769   0.697   2.383   0.102
21176WAT     H163770   0.788   2.346   0.088
21176WAT     H263771   0.641   2.316   0.151
21177WAT      O63772   0.255   3.461   4.318
21177WAT     H163773   0.333   3.517   4.345
21177WAT     H263774   0.189   3.517   4.267
21178WAT      O63775   9.013   8.181   1.084
21178WAT     H163776   8.976   8.090   1.102
21178WAT     H263777   8.996   8.205   0.988
21179WAT      O63778   7.402   6.273   6.089
21179WAT     H163779   7.414   6.240   6.183
21179WAT     H263780   7.306   6.294   6.073
21180WAT      O63781   4.509   6.405   1.298
21180WAT     H163782   4.593   6.441   1.259
21180WAT     H263783   4.446   6.378   1.225
21181WAT      O63784   9.631   5.584   9.661
21181WAT     H163785   9.691   5.640   9.718
21181WAT     H263786   9.639   5.488   9.688
21182WAT      O63787   0.616   9.308   0.790
21182WAT     H163788   0.578   9.377   0.728
21182WAT     H263789   0.648   9.230   0.737
21183WAT      O63790   1.005   9.365   8.595
21183WAT     H163791   0.993   9.279   8.546
21183WAT     H263792   1.059   9.349   8.677
21184WAT      O63793   2.255   0.995   3.686
21184WAT     H163794   2.217   1.077   3.729
21184WAT     H263795   2.203   0.973   3.604
21185WAT      O63796   8.055   9.700   8.292
21185WAT     H163797   8.142   9.658   8.316
21185WAT     H263798   8.063   9.745   8.203
21186WAT      O63799   4.014   0.815   4.967
21186WAT     H163800   3.995   0.913   4.972
21186WAT     H263801   4.113   0.800   4.977
21187WAT      O63802   2.792   2.349   8.831
21187WAT     H163803   2.758   2.275   8.772
21187WAT     H263804   2.882   2.378   8.799
21188WAT      O63805   1.318   8.315   3.007
21188WAT     H163806   1.220   8.308   3.029
21188WAT     H263807   1.343   8.240   2.946
21189WAT      O63808   6.842   3.768   5.971
21189WAT     H163809   6.757   3.740   6.016
21189WAT     H263810   6.899   3.818   6.037
21190WAT      O63811   4.079   1.960   8.229
21190WAT     H163812   4.172   1.923   8.225
21190WAT     H263813   4.047   1.979   8.137
21191WAT      O63814   0.104   9.269   7.477
21191WAT     H163815   0.026   9.218   7.443
21191WAT     H263816   0.078   9.318   7.561
21192WAT      O63817   8.249   4.644   6.109
21192WAT     H163818   8.180   4.595   6.056
21192WAT     H263819   8.213   4.732   6.139
21193WAT      O63820   2.850   2.550   4.472
21193WAT     H163821   2.886   2.629   4.521
21193WAT     H263822   2.905   2.535   4.389
21194WAT      O63823   4.892   8.985   4.574
21194WAT     H163824   4.903   9.081   4.547
21194WAT     H263825   4.982   8.943   4.587
21195WAT      O63826   7.145   6.063   6.214
21195WAT     H163827   7.045   6.070   6.215
21195WAT     H263828   7.171   5.966   6.205
21196WAT      O63829   3.086   4.642   6.522
21196WAT     H163830   3.054   4.549   6.543
21196WAT     H263831   3.186   4.640   6.512
21197WAT      O63832   9.330   5.925   5.768
21197WAT     H163833   9.307   5.849   5.707
21197WAT     H263834   9.424   5.915   5.800
21198WAT      O63835   0.916   5.049   1.392
21198WAT     H163836   1.009   5.024   1.416
21198WAT     H263837   0.914   5.143   1.357
21199WAT      O63838   1.864   1.911   9.232
21199WAT     H163839   1.907   1.831   9.191
21199WAT     H263840   1.900   1.994   9.190
21200WAT      O63841   8.581   1.496   4.594
21200WAT     H163842   8.560   1.591   4.571
21200WAT     H263843   8.614   1.448   4.512
21201WAT      O63844   7.575   6.373   8.323
21201WAT     H163845   7.662   6.335   8.355
21201WAT     H263846   7.505   6.361   8.393
21202WAT      O63847   7.554   6.969   7.064
21202WAT     H163848   7.578   6.894   7.003
21202WAT     H263849   7.618   6.971   7.141
21203WAT      O63850   5.031   4.457   9.297
21203WAT     H163851   5.030   4.409   9.210
21203WAT     H263852   5.080   4.402   9.365
21204WAT      O63853   1.457   6.528   5.909
21204WAT     H163854   1.538   6.548   5.854
21204WAT     H263855   1.460   6.580   5.994
21205WAT      O63856   1.881   7.813   7.986
21205WAT     H163857   1.819   7.890   7.971
21205WAT     H263858   1.895   7.766   7.899
21206WAT      O63859   2.204   8.239   7.131
21206WAT     H163860   2.191   8.322   7.186
21206WAT     H263861   2.252   8.170   7.185
21207WAT      O63862   5.341   4.656   6.641
21207WAT     H163863   5.327   4.574   6.697
21207WAT     H263864   5.408   4.715   6.686
21208WAT      O63865   5.754   7.214   8.611
21208WAT     H163866   5.759   7.145   8.684
21208WAT     H263867   5.687   7.186   8.543
21209WAT      O63868   9.791   1.240   4.400
21209WAT     H163869   9.865   1.188   4.443
21209WAT     H263870   9.800   1.337   4.425
21210WAT      O63871   2.984   9.519   5.317
21210WAT     H163872   2.894   9.522   5.362
21210WAT     H263873   3.055   9.541   5.384
21211WAT      O63874   4.908   6.991   3.982
21211WAT     H163875   4.853   6.931   4.040
21211WAT     H263876   4.960   7.054   4.039
21212WAT      O63877   2.795   0.743   1.406
21212WAT     H163878   2.845   0.749   1.493
21212WAT     H263879   2.716   0.683   1.417
21213WAT      O63880   4.897   2.237   5.209
21213WAT     H163881   4.938   2.147   5.193
21213WAT     H263882   4.961   2.294   5.260
21214WAT      O63883   6.748   7.887   6.740
21214WAT     H163884   6.739   7.986   6.753
21214WAT     H263885   6.659   7.843   6.754
21215WAT      O63886   6.433   8.399   2.362
21215WAT     H163887   6.408   8.318   2.308
21215WAT     H263888   6.407   8.482   2.311
21216WAT      O63889   2.951   8.747   7.575
21216WAT     H163890   2.950   8.650   7.598
21216WAT     H263891   3.045   8.776   7.555
21217WAT      O63892   3.832   2.900   6.853
21217WAT     H163893   3.904   2.902   6.922
21217WAT     H263894   3.797   2.807   6.843
21218WAT      O63895   2.330   9.350   7.053
21218WAT     H163896   2.381   9.430   7.083
21218WAT     H263897   2.343   9.275   7.118
21219WAT      O63898   9.229   4.656   2.977
21219WAT     H163899   9.216   4.617   3.068
21219WAT     H263900   9.228   4.756   2.983
21220WAT      O63901   7.003   4.841   2.817
21220WAT     H163902   7.017   4.833   2.916
21220WAT     H263903   6.976   4.934   2.794
21221WAT      O63904   1.794   5.484   5.216
21221WAT     H163905   1.825   5.557   5.277
21221WAT     H263906   1.862   5.410   5.218
21222WAT      O63907   3.614   4.518   2.229
21222WAT     H163908   3.646   4.435   2.183
21222WAT     H263909   3.687   4.586   2.228
21223WAT      O63910   8.787   4.168   8.374
21223WAT     H163911   8.780   4.265   8.399
21223WAT     H263912   8.758   4.111   8.451
21224WAT      O63913   4.917   4.539   2.045
21224WAT     H163914   4.989   4.583   1.991
21224WAT     H263915   4.904   4.446   2.013
21225WAT      O63916   1.038   8.890   5.567
21225WAT     H163917   1.075   8.983   5.569
21225WAT     H263918   1.113   8.824   5.563
21226WAT      O63919   0.410   9.128   5.116
21226WAT     H163920   0.337   9.081   5.067
21226WAT     H263921   0.480   9.158   5.051
21227WAT      O63922   0.941   3.919   6.605
21227WAT     H163923   0.883   3.858   6.551
21227WAT     H263924   1.031   3.877   6.616
21228WAT      O63925   6.182   0.487   1.722
21228WAT     H163926   6.244   0.556   1.760
21228WAT     H263927   6.157   0.422   1.794
21229WAT      O63928   9.620   5.554   6.288
21229WAT     H163929   9.658   5.502   6.364
21229WAT     H263930   9.594   5.491   6.215
21230WAT      O63931   4.692   5.919   8.668
21230WAT     H163932   4.757   5.877   8.604
21230WAT     H263933   4.727   5.910   8.761
21231WAT      O63934   2.932   0.579   3.927
21231WAT     H163935   2.926   0.564   3.828
21231WAT     H263936   2.840   0.578   3.966
21232WAT      O63937   2.472   9.227   7.244
21232WAT     H163938   2.538   9.280   7.298
21232WAT     H263939   2.444   9.146   7.294
21233WAT      O63940   7.725   4.944   0.339
21233WAT     H163941   7.774   4.859   0.321
21233WAT     H263942   7.689   4.942   0.433
21234WAT      O63943   4.611   1.798   1.610
21234WAT     H163944   4.632   1.712   1.564
21234WAT     H263945   4.515   1.797   1.639
21235WAT      O63946   7.553   5.257   0.424
21235WAT     H163947   7.460   5.293   0.429
21235WAT     H263948   7.592   5.253   0.516
21236WAT      O63949   8.979   5.591   2.525
21236WAT     H163950   9.046   5.527   2.563
21236WAT     H263951   9.009   5.685   2.541
21237WAT      O63952   3.519   7.313   2.466
21237WAT     H163953   3.488   7.222   2.439
21237WAT     H263954   3.519   7.374   2.387
21238WAT      O63955   3.545   6.504   5.533
21238WAT     H163956   3.446   6.495   5.546
21238WAT     H263957   3.563   6.557   5.450
21239WAT      O63958   1.830   0.328   4.242
21239WAT     H163959   1.891   0.360   4.315
21239WAT     H263960   1.864   0.241   4.206
21240WAT      O63961   6.991   7.755   7.504
21240WAT     H163962   6.941   7.740   7.589
21240WAT     H263963   7.025   7.849   7.502
21241WAT      O63964   4.356   7.765   8.829
21241WAT     H163965   4.343   7.788   8.732
21241WAT     H263966   4.409   7.837   8.874
21242WAT      O63967   9.524   0.010   6.431
21242WAT     H163968   9.428   0.005   6.403
21242WAT     H263969   9.545  -0.066   6.493
21243WAT      O63970   4.435   7.106   3.386
21243WAT     H163971   4.503   7.179   3.380
21243WAT     H263972   4.360   7.134   3.445
21244WAT      O63973   1.154   6.917   1.524
21244WAT     H163974   1.202   6.994   1.565
21244WAT     H263975   1.068   6.901   1.573
21245WAT      O63976   5.520   0.964   2.862
21245WAT     H163977   5.516   0.966   2.962
21245WAT     H263978   5.499   1.055   2.827
21246WAT      O63979   4.566   2.138   6.146
21246WAT     H163980   4.536   2.234   6.152
21246WAT     H263981   4.497   2.080   6.190
21247WAT      O63982   9.833   7.216   4.656
21247WAT     H163983   9.920   7.189   4.616
21247WAT     H263984   9.767   7.236   4.583
21248WAT      O63985   3.027   0.397   9.160
21248WAT     H163986   2.984   0.315   9.121
21248WAT     H263987   2.962   0.443   9.220
21249WAT      O63988   6.331   9.717   4.033
21249WAT     H163989   6.288   9.703   3.944
21249WAT     H263990   6.360   9.628   4.070
21250WAT      O63991   7.523   5.370   4.242
21250WAT     H163992   7.472   5.338   4.321
21250WAT     H263993   7.584   5.298   4.209
21251WAT      O63994   3.843   3.637   6.014
21251WAT     H163995   3.852   3.686   6.100
21251WAT     H263996   3.934   3.626   5.972
21252WAT      O63997   0.218   3.343   5.831
21252WAT     H163998   0.281   3.402   5.782
21252WAT     H263999   0.130   3.340   5.783
21253WAT      O64000   4.515   2.594   1.188
21253WAT     H164001   4.551   2.688   1.192
21253WAT     H264002   4.514   2.563   1.093
21254WAT      O64003   7.034   9.064   8.181
21254WAT     H164004   7.050   9.098   8.274
21254WAT     H264005   7.033   9.141   8.117
21255WAT      O64006   1.167   9.125   8.991
21255WAT     H164007   1.146   9.054   8.924
21255WAT     H264008   1.252   9.103   9.038
21256WAT      O64009   9.532   8.922   9.257
21256WAT     H164010   9.593   8.855   9.298
21256WAT     H264011   9.449   8.876   9.225
21257WAT      O64012   6.764   6.338   6.363
21257WAT     H164013   6.854   6.296   6.359
21257WAT     H264014   6.695   6.274   6.330
21258WAT      O64015   0.866   6.686   1.135
21258WAT     H164016   0.927   6.609   1.155
21258WAT     H264017   0.814   6.666   1.052
21259WAT      O64018   4.383   0.591   0.191
21259WAT     H164019   4.464   0.566   0.244
21259WAT     H264020   4.400   0.676   0.141
21260WAT      O64021   4.221   8.220   5.904
21260WAT     H164022   4.202   8.291   5.837
21260WAT     H264023   4.222   8.260   5.996
21261WAT      O64024   9.106   4.306   1.460
21261WAT     H164025   9.149   4.302   1.370
21261WAT     H264026   9.129   4.392   1.506
21262WAT      O64027   9.553   5.805   5.111
21262WAT     H164028   9.479   5.789   5.046
21262WAT     H264029   9.581   5.901   5.106
21263WAT      O64030   1.646   3.397   4.289
21263WAT     H164031   1.547   3.413   4.279
21263WAT     H264032   1.663   3.348   4.374
21264WAT      O64033   0.051   0.245   6.232
21264WAT     H164034   0.016   0.336   6.212
21264WAT     H264035   0.140   0.233   6.187
21265WAT      O64036   9.631   8.418   3.957
21265WAT     H164037   9.713   8.449   3.909
21265WAT     H264038   9.658   8.367   4.039
21266WAT      O64039   9.268   5.414   4.187
21266WAT     H164040   9.188   5.474   4.182
21266WAT     H264041   9.239   5.320   4.170
21267WAT      O64042   8.962   4.073   2.656
21267WAT     H164043   8.876   4.061   2.607
21267WAT     H264044   8.992   4.168   2.650
21268WAT      O64045   5.972   7.377   7.812
21268WAT     H164046   6.066   7.361   7.842
21268WAT     H264047   5.909   7.336   7.877
21269WAT      O64048   1.037   5.192   9.701
21269WAT     H164049   0.954   5.172   9.754
21269WAT     H264050   1.072   5.282   9.728
21270WAT      O64051   5.528   4.405   2.752
21270WAT     H164052   5.557   4.466   2.826
21270WAT     H264053   5.608   4.358   2.714
21271WAT      O64054   5.536   0.716   2.415
21271WAT     H164055   5.585   0.667   2.343
21271WAT     H264056   5.603   0.764   2.473
21272WAT      O64057   3.642   2.140   0.174
21272WAT     H164058   3.649   2.233   0.137
21272WAT     H264059   3.655   2.074   0.100
21273WAT      O64060   6.375   1.133   0.882
21273WAT     H164061   6.458   1.082   0.858
21273WAT     H264062   6.382   1.165   0.976
21274WAT      O64063   0.682   7.262   6.827
21274WAT     H164064   0.751   7.211   6.879
21274WAT     H264065   0.695   7.360   6.843
21275WAT      O64066   9.070   9.741   6.246
21275WAT     H164067   8.998   9.787   6.298
21275WAT     H264068   9.044   9.646   6.230
21276WAT      O64069   4.651   0.624   3.319
21276WAT     H164070   4.650   0.715   3.360
21276WAT     H264071   4.576   0.616   3.253
21277WAT      O64072   8.776   4.759   4.435
21277WAT     H164073   8.858   4.717   4.395
21277WAT     H264074   8.764   4.850   4.397
21278WAT      O64075   4.729   0.253   3.584
21278WAT     H164076   4.683   0.329   3.538
21278WAT     H264077   4.825   0.276   3.599
21279WAT      O64078   3.062   2.200   6.389
21279WAT     H164079   3.023   2.223   6.478
21279WAT     H264080   3.159   2.177   6.401
21280WAT      O64081   5.663   7.449   2.623
21280WAT     H164082   5.678   7.446   2.722
21280WAT     H264083   5.726   7.514   2.582
21281WAT      O64084   2.690   4.069   9.762
21281WAT     H164085   2.723   3.993   9.819
21281WAT     H264086   2.750   4.148   9.776
21282WAT      O64087   7.485   6.127   1.842
21282WAT     H164088   7.488   6.224   1.868
21282WAT     H264089   7.438   6.075   1.913
21283WAT      O64090   5.757   6.408   8.800
21283WAT     H164091   5.771   6.507   8.810
21283WAT     H264092   5.793   6.361   8.880
21284WAT      O64093   6.241   6.071   0.994
21284WAT     H164094   6.278   6.113   1.077
21284WAT     H264095   6.293   5.988   0.973
21285WAT      O64096   5.085   6.706   7.442
21285WAT     H164097   5.011   6.702   7.509
21285WAT     H264098   5.046   6.710   7.350
21286WAT      O64099   5.682   0.771   1.687
21286WAT     H164100   5.724   0.683   1.669
21286WAT     H264101   5.664   0.819   1.601
21287WAT      O64102   7.405   4.766   6.879
21287WAT     H164103   7.429   4.679   6.922
21287WAT     H264104   7.475   4.790   6.812
21288WAT      O64105   4.868   0.037   6.568
21288WAT     H164106   4.897   0.128   6.538
21288WAT     H264107   4.937  -0.000   6.630
21289WAT      O64108   0.889   2.115   4.454
21289WAT     H164109   0.847   2.155   4.536
21289WAT     H264110   0.983   2.149   4.446
21290WAT      O64111   5.733   4.170   4.156
21290WAT     H164112   5.793   4.105   4.108
21290WAT     H264113   5.705   4.242   4.093
21291WAT      O64114   8.632   3.262   3.063
21291WAT     H164115   8.593   3.243   2.973
21291WAT     H264116   8.706   3.330   3.053
21292WAT      O64117   2.628   3.926   2.016
21292WAT     H164118   2.538   3.933   2.059
21292WAT     H264119   2.644   3.831   1.990
21293WAT      O64120   0.658   7.400   1.879
21293WAT     H164121   0.613   7.415   1.967
21293WAT     H264122   0.687   7.488   1.840
21294WAT      O64123   6.335   0.942   3.948
21294WAT     H164124   6.290   0.866   3.900
21294WAT     H264125   6.368   1.008   3.881
21295WAT      O64126   0.358   9.412   0.477
21295WAT     H164127   0.299   9.367   0.544
21295WAT     H264128   0.441   9.444   0.523
21296WAT      O64129   3.546   9.014   6.498
21296WAT     H164130   3.471   9.075   6.471
21296WAT     H264131   3.612   9.007   6.423
21297WAT      O64132   8.343   9.584   2.508
21297WAT     H164133   8.312   9.638   2.429
21297WAT     H264134   8.368   9.646   2.583
21298WAT      O64135   0.307   0.276   4.037
21298WAT     H164136   0.272   0.186   4.064
21298WAT     H264137   0.230   0.339   4.024
21299WAT      O64138   8.022   3.508   7.515
21299WAT     H164139   8.092   3.545   7.452
21299WAT     H264140   8.057   3.425   7.558
21300WAT      O64141   1.325   3.571   0.731
21300WAT     H164142   1.331   3.622   0.817
21300WAT     H264143   1.286   3.630   0.660
21301WAT      O64144   8.942   5.339   0.740
21301WAT     H164145   8.921   5.282   0.661
21301WAT     H264146   9.039   5.329   0.764
21302WAT      O64147   6.443   5.888   7.718
21302WAT     H164148   6.371   5.863   7.653
21302WAT     H264149   6.524   5.919   7.667
21303WAT      O64150   1.656   6.879   0.875
21303WAT     H164151   1.670   6.880   0.775
21303WAT     H264152   1.681   6.969   0.913
21304WAT      O64153   4.258   5.171   8.653
21304WAT     H164154   4.329   5.172   8.723
21304WAT     H264155   4.174   5.134   8.692
21305WAT      O64156   0.873   9.100   5.548
21305WAT     H164157   0.789   9.132   5.591
21305WAT     H264158   0.881   9.001   5.558
21306WAT      O64159   6.412   0.669   0.557
21306WAT     H164160   6.336   0.714   0.511
21306WAT     H264161   6.473   0.629   0.488
21307WAT      O64162   8.249   4.738   0.067
21307WAT     H164163   8.160   4.782   0.056
21307WAT     H264164   8.314   4.776   0.001
21308WAT      O64165   8.735   0.486   5.733
21308WAT     H164166   8.638   0.467   5.720
21308WAT     H264167   8.747   0.581   5.760
21309WAT      O64168   1.534   5.622   6.348
21309WAT     H164169   1.558   5.718   6.333
21309WAT     H264170   1.599   5.580   6.411
21310WAT      O64171   4.451   3.862   8.798
21310WAT     H164172   4.453   3.957   8.766
21310WAT     H264173   4.514   3.851   8.874
21311WAT      O64174   0.766   8.416   6.825
21311WAT     H164175   0.707   8.473   6.882
21311WAT     H264176   0.809   8.472   6.754
21312WAT      O64177   4.416   1.354   3.089
21312WAT     H164178   4.400   1.449   3.060
21312WAT     H264179   4.503   1.349   3.138
21313WAT      O64180   9.773   0.540   9.452
21313WAT     H164181   9.825   0.459   9.479
21313WAT     H264182   9.791   0.561   9.356
21314WAT      O64183   7.073   0.636   0.921
21314WAT     H164184   7.153   0.682   0.957
21314WAT     H264185   7.023   0.591   0.995
21315WAT      O64186   8.943   8.765   6.426
21315WAT     H164187   8.921   8.851   6.380
21315WAT     H264188   8.890   8.759   6.511
21316WAT      O64189   0.715   5.004   8.946
21316WAT     H164190   0.756   5.042   9.029
21316WAT     H264191   0.669   5.077   8.895
21317WAT      O64192   4.160   3.391   6.412
21317WAT     H164193   4.234   3.458   6.409
21317WAT     H264194   4.198   3.299   6.420
21318WAT      O64195   6.788   7.315   8.314
21318WAT     H164196   6.719   7.309   8.242
21318WAT     H264197   6.875   7.347   8.275
21319WAT      O64198   1.935   0.922   0.820
21319WAT     H164199   1.933   0.973   0.734
21319WAT     H264200   1.977   0.979   0.891
21320WAT      O64201   4.175   1.618   5.252
21320WAT     H164202   4.207   1.713   5.246
21320WAT     H264203   4.172   1.590   5.348
21321WAT      O64204   2.897   2.693   1.142
21321WAT     H164205   2.948   2.743   1.212
21321WAT     H264206   2.948   2.694   1.056
21322WAT      O64207   9.555   4.713   4.268
21322WAT     H164208   9.456   4.714   4.283
21322WAT     H264209   9.599   4.662   4.342
21323WAT      O64210   7.155   0.145   6.907
21323WAT     H164211   7.209   0.103   6.980
21323WAT     H264212   7.216   0.186   6.840
21324WAT      O64213   0.897   5.360   4.380
21324WAT     H164214   0.914   5.335   4.475
21324WAT     H264215   0.799   5.363   4.363
21325WAT      O64216   3.509   6.863   7.276
21325WAT     H164217   3.424   6.911   7.257
21325WAT     H264218   3.498   6.805   7.356
21326WAT      O64219   5.251   8.821   1.247
21326WAT     H164220   5.297   8.861   1.326
21326WAT     H264221   5.255   8.885   1.170
21327WAT      O64222   7.251   5.879   9.692
21327WAT     H164223   7.219   5.930   9.613
21327WAT     H264224   7.346   5.905   9.712
21328WAT      O64225   3.899   1.612   8.795
21328WAT     H164226   3.922   1.637   8.701
21328WAT     H264227   3.962   1.657   8.858
21329WAT      O64228   5.451   3.868   8.115
21329WAT     H164229   5.382   3.926   8.159
21329WAT     H264230   5.524   3.848   8.181
21330WAT      O64231   3.026   1.667   1.129
21330WAT     H164232   3.120   1.697   1.149
21330WAT     H264233   2.990   1.721   1.053
21331WAT      O64234   2.194   7.880   7.472
21331WAT     H164235   2.270   7.887   7.536
21331WAT     H264236   2.195   7.790   7.428
21332WAT      O64237   0.847   2.907   8.974
21332WAT     H164238   0.885   2.984   9.025
21332WAT     H264239   0.760   2.933   8.934
21333WAT      O64240   8.856   7.519   4.535
21333WAT     H164241   8.784   7.515   4.466
21333WAT     H264242   8.913   7.600   4.519
21334WAT      O64243   3.166   1.600   9.355
21334WAT     H164244   3.189   1.510   9.319
21334WAT     H264245   3.142   1.592   9.452
21335WAT      O64246   4.583   4.929   5.438
21335WAT     H164247   4.627   4.974   5.516
21335WAT     H264248   4.523   4.994   5.392
21336WAT      O64249   2.457   8.922   2.075
21336WAT     H164250   2.415   8.892   2.161
21336WAT     H264251   2.392   8.979   2.025
21337WAT      O64252   1.262   6.825   1.970
21337WAT     H164253   1.215   6.743   2.004
21337WAT     H264254   1.349   6.798   1.928
21338WAT      O64255   6.377   3.523   8.633
21338WAT     H164256   6.332   3.443   8.673
21338WAT     H264257   6.438   3.563   8.701
21339WAT      O64258   9.222   6.408   0.224
21339WAT     H164259   9.143   6.388   0.282
21339WAT     H264260   9.262   6.496   0.251
21340WAT      O64261   2.786   6.528   4.068
21340WAT     H164262   2.751   6.524   4.162
21340WAT     H264263   2.793   6.435   4.032
21341WAT      O64264   1.082   1.256   5.707
21341WAT     H164265   1.162   1.222   5.755
21341WAT     H264266   1.000   1.242   5.763
21342WAT      O64267   2.515   9.237   3.787
21342WAT     H164268   2.526   9.182   3.870
21342WAT     H264269   2.604   9.274   3.760
21343WAT      O64270   9.333   2.028   7.296
21343WAT     H164271   9.345   1.991   7.388
21343WAT     H264272   9.411   2.086   7.273
21344WAT      O64273   1.961   9.421   2.262
21344WAT     H164274   2.053   9.380   2.266
21344WAT     H264275   1.968   9.514   2.228
21345WAT      O64276   1.500   8.417   3.175
21345WAT     H164277   1.568   8.449   3.109
21345WAT     H264278   1.426   8.369   3.127
21346WAT      O64279   1.954   6.048   0.184
21346WAT     H164280   2.033   5.986   0.193
21346WAT     H264281   1.983   6.141   0.204
21347WAT      O64282   3.097   7.568   9.158
21347WAT     H164283   3.042   7.639   9.115
21347WAT     H264284   3.048   7.481   9.154
21348WAT      O64285   2.127   9.593   9.307
21348WAT     H164286   2.113   9.517   9.370
21348WAT     H264287   2.050   9.597   9.243
21349WAT      O64288   8.871   7.865   3.107
21349WAT     H164289   8.903   7.773   3.130
21349WAT     H264290   8.782   7.859   3.063
21350WAT      O64291   8.473   8.222   2.414
21350WAT     H164292   8.376   8.222   2.388
21350WAT     H264293   8.507   8.128   2.414
21351WAT      O64294   3.571   9.421   4.809
21351WAT     H164295   3.649   9.373   4.848
21351WAT     H264296   3.544   9.496   4.869
21352WAT      O64297   5.172   9.069   4.412
21352WAT     H164298   5.112   9.143   4.443
21352WAT     H264299   5.136   9.031   4.327
21353WAT      O64300   7.599   1.651   9.578
21353WAT     H164301   7.631   1.740   9.613
21353WAT     H264302   7.617   1.581   9.647
21354WAT      O64303   1.608   5.890   9.843
21354WAT     H164304   1.708   5.892   9.850
21354WAT     H264305   1.579   5.943   9.763
21355WAT      O64306   7.498   8.910   0.738
21355WAT     H164307   7.513   8.893   0.640
21355WAT     H264308   7.416   8.860   0.767
21356WAT      O64309   8.847   5.956   4.641
21356WAT     H164310   8.901   5.989   4.718
21356WAT     H264311   8.898   5.969   4.556
21357WAT      O64312   0.145   5.653   9.031
21357WAT     H164313   0.239   5.636   9.059
21357WAT     H264314   0.143   5.687   8.937
21358WAT      O64315   2.634   6.854   8.333
21358WAT     H164316   2.695   6.790   8.286
21358WAT     H264317   2.686   6.905   8.402
21359WAT      O64318   8.167   5.645   5.690
21359WAT     H164319   8.185   5.672   5.785
21359WAT     H264320   8.068   5.643   5.674
21360WAT      O64321   6.357   7.713   6.340
21360WAT     H164322   6.367   7.616   6.320
21360WAT     H264323   6.417   7.766   6.281
21361WAT      O64324   8.801   3.391   1.958
21361WAT     H164325   8.809   3.336   2.042
21361WAT     H264326   8.741   3.469   1.975
21362WAT      O64327   7.363   9.372   4.092
21362WAT     H164328   7.328   9.318   4.169
21362WAT     H264329   7.366   9.314   4.010
21363WAT      O64330   1.877   5.488   3.359
21363WAT     H164331   1.869   5.582   3.327
21363WAT     H264332   1.852   5.425   3.286
21364WAT      O64333   8.604   5.197   7.371
21364WAT     H164334   8.612   5.235   7.279
21364WAT     H264335   8.684   5.222   7.425
21365WAT      O64336   4.112   5.216   7.219
21365WAT     H164337   4.026   5.219   7.270
21365WAT     H264338   4.184   5.259   7.274
21366WAT      O64339   2.902   6.591   0.207
21366WAT     H164340   2.954   6.516   0.167
21366WAT     H264341   2.832   6.621   0.143
21367WAT      O64342   1.285   9.087   7.170
21367WAT     H164343   1.319   9.177   7.144
21367WAT     H264344   1.345   9.048   7.240
21368WAT      O64345   4.075   7.360   0.183
21368WAT     H164346   4.017   7.289   0.223
21368WAT     H264347   4.085   7.345   0.085
21369WAT      O64348   6.780   7.099   0.338
21369WAT     H164349   6.762   7.127   0.433
21369WAT     H264350   6.760   7.002   0.328
21370WAT      O64351   1.562   6.708   6.904
21370WAT     H164352   1.618   6.762   6.842
21370WAT     H264353   1.560   6.613   6.874
21371WAT      O64354   6.167   6.194   5.385
21371WAT     H164355   6.250   6.247   5.371
21371WAT     H264356   6.087   6.249   5.360
21372WAT      O64357   1.710   6.908   9.141
21372WAT     H164358   1.735   6.811   9.141
21372WAT     H264359   1.699   6.940   9.235
21373WAT      O64360   6.987   9.746   5.744
21373WAT     H164361   6.993   9.752   5.844
21373WAT     H264362   6.977   9.837   5.705
21374WAT      O64363   3.632   7.632   9.639
21374WAT     H164364   3.546   7.580   9.636
21374WAT     H264365   3.708   7.569   9.652
21375WAT      O64366   1.733   5.708   9.482
21375WAT     H164367   1.651   5.663   9.446
21375WAT     H264368   1.719   5.807   9.485
21376WAT      O64369   9.484   4.868   3.925
21376WAT     H164370   9.395   4.832   3.952
21376WAT     H264371   9.540   4.795   3.886
21377WAT      O64372   2.222   9.468   0.176
21377WAT     H164373   2.128   9.494   0.197
21377WAT     H264374   2.256   9.524   0.100
21378WAT      O64375   5.454   2.042   0.355
21378WAT     H164376   5.459   1.964   0.293
21378WAT     H264377   5.359   2.056   0.383
21379WAT      O64378   1.387   5.371   3.363
21379WAT     H164379   1.313   5.319   3.407
21379WAT     H264380   1.386   5.465   3.397
21380WAT      O64381   6.582   8.256   8.466
21380WAT     H164382   6.662   8.250   8.406
21380WAT     H264383   6.526   8.334   8.439
21381WAT      O64384   4.138   3.135   4.178
21381WAT     H164385   4.111   3.095   4.091
21381WAT     H264386   4.099   3.227   4.186
21382WAT      O64387   7.124   6.022   5.117
21382WAT     H164388   7.140   6.086   5.192
21382WAT     H264389   7.171   5.936   5.135
21383WAT      O64390   5.032   8.852   5.171
21383WAT     H164391   4.985   8.921   5.226
21383WAT     H264392   5.033   8.765   5.221
21384WAT      O64393   5.656   4.952   1.621
21384WAT     H164394   5.623   4.860   1.599
21384WAT     H264395   5.687   4.997   1.537
21385WAT      O64396   6.575   8.106   6.744
21385WAT     H164397   6.529   8.187   6.783
21385WAT     H264398   6.627   8.133   6.663
21386WAT      O64399   4.667   1.911   7.157
21386WAT     H164400   4.668   1.867   7.247
21386WAT     H264401   4.646   2.008   7.168
21387WAT      O64402   7.935   7.785   9.175
21387WAT     H164403   7.881   7.731   9.240
21387WAT     H264404   7.993   7.725   9.122
21388WAT      O64405   7.502   6.490   9.766
21388WAT     H164406   7.433   6.494   9.838
21388WAT     H264407   7.472   6.547   9.689
21389WAT      O64408   2.296   2.947   3.142
21389WAT     H164409   2.339   2.885   3.208
21389WAT     H264410   2.241   2.895   3.077
21390WAT      O64411   8.676   3.626   4.306
21390WAT     H164412   8.694   3.703   4.368
21390WAT     H264413   8.731   3.547   4.333
21391WAT      O64414   3.173   5.067   7.933
21391WAT     H164415   3.148   5.155   7.892
21391WAT     H264416   3.128   5.058   8.022
21392WAT      O64417   3.082   0.055   4.054
21392WAT     H164418   3.020  -0.005   4.002
21392WAT     H264419   3.060   0.047   4.151
21393WAT      O64420   5.988   4.612   7.758
21393WAT     H164421   6.087   4.605   7.767
21393WAT     H264422   5.945   4.529   7.795
21394WAT      O64423   9.284   6.166   0.661
21394WAT     H164424   9.248   6.198   0.749
21394WAT     H264425   9.350   6.093   0.676
21395WAT      O64426   0.315   2.319   1.468
21395WAT     H164427   0.333   2.330   1.566
21395WAT     H264428   0.225   2.278   1.455
21396WAT      O64429   5.720   7.714   2.982
21396WAT     H164430   5.746   7.650   3.054
21396WAT     H264431   5.707   7.664   2.896
21397WAT      O64432   4.622   0.936   2.254
21397WAT     H164433   4.576   0.997   2.189
21397WAT     H264434   4.708   0.905   2.215
21398WAT      O64435   9.112   8.481   9.824
21398WAT     H164436   9.207   8.449   9.827
21398WAT     H264437   9.090   8.511   9.731
21399WAT      O64438   1.867   4.075   8.042
21399WAT     H164439   1.934   4.004   8.020
21399WAT     H264440   1.904   4.165   8.021
21400WAT      O64441   6.608   1.728   8.421
21400WAT     H164442   6.563   1.653   8.373
21400WAT     H264443   6.657   1.693   8.500
21401WAT      O64444   8.159   9.055   2.813
21401WAT     H164445   8.249   9.022   2.782
21401WAT     H264446   8.171   9.114   2.893
21402WAT      O64447   4.253   6.114   4.496
21402WAT     H164448   4.325   6.184   4.492
21402WAT     H264449   4.190   6.135   4.570
21403WAT      O64450   6.032   9.331   6.290
21403WAT     H164451   6.122   9.349   6.328
21403WAT     H264452   5.971   9.408   6.311
21404WAT      O64453   5.092   1.844   4.922
21404WAT     H164454   5.182   1.804   4.939
21404WAT     H264455   5.081   1.861   4.824
21405WAT      O64456   4.283   4.889   2.756
21405WAT     H164457   4.348   4.933   2.693
21405WAT     H264458   4.318   4.896   2.850
21406WAT      O64459   5.523   8.063   4.675
21406WAT     H164460   5.567   8.041   4.589
21406WAT     H264461   5.427   8.035   4.671
21407WAT      O64462   1.108   4.670   0.335
21407WAT     H164463   1.096   4.766   0.309
21407WAT     H264464   1.196   4.637   0.301
21408WAT      O64465   8.783   7.601   1.170
21408WAT     H164466   8.855   7.534   1.149
21408WAT     H264467   8.739   7.630   1.085
21409WAT      O64468   5.342   0.368   3.180
21409WAT     H164469   5.405   0.441   3.153
21409WAT     H264470   5.250   0.389   3.147
21410WAT      O64471   6.972   3.255   4.737
21410WAT     H164472   6.906   3.272   4.664
21410WAT     H264473   6.991   3.158   4.743
21411WAT      O64474   1.885   5.265   7.256
21411WAT     H164475   1.936   5.266   7.170
21411WAT     H264476   1.931   5.204   7.322
21412WAT      O64477   3.506   4.377   1.746
21412WAT     H164478   3.425   4.320   1.756
21412WAT     H264479   3.580   4.324   1.705
21413WAT      O64480   4.866   5.388   1.937
21413WAT     H164481   4.850   5.385   1.839
21413WAT     H264482   4.833   5.475   1.974
21414WAT      O64483   2.474   1.662   7.485
21414WAT     H164484   2.463   1.601   7.564
21414WAT     H264485   2.456   1.611   7.401
21415WAT      O64486   2.715   4.516   8.440
21415WAT     H164487   2.637   4.573   8.469
21415WAT     H264488   2.683   4.424   8.420
21416WAT      O64489   1.647   3.143   8.068
21416WAT     H164490   1.576   3.200   8.111
21416WAT     H264491   1.632   3.048   8.093
21417WAT      O64492   5.054   1.589   8.908
21417WAT     H164493   5.132   1.624   8.960
21417WAT     H264494   5.055   1.629   8.816
21418WAT      O64495   1.162   7.707   3.414
21418WAT     H164496   1.100   7.784   3.396
21418WAT     H264497   1.109   7.623   3.422
21419WAT      O64498   9.522   3.568   0.118
21419WAT     H164499   9.539   3.666   0.129
21419WAT     H264500   9.434   3.553   0.075
21420WAT      O64501   1.825   6.400   5.903
21420WAT     H164502   1.866   6.471   5.959
21420WAT     H264503   1.790   6.327   5.962
21421WAT      O64504   2.549   1.899   2.141
21421WAT     H164505   2.524   1.993   2.166
21421WAT     H264506   2.469   1.840   2.152
21422WAT      O64507   8.749   7.648   2.396
21422WAT     H164508   8.726   7.690   2.309
21422WAT     H264509   8.848   7.654   2.412
21423WAT      O64510   6.306   7.404   6.287
21423WAT     H164511   6.242   7.472   6.252
21423WAT     H264512   6.341   7.348   6.212
21424WAT      O64513   9.110   5.610   1.047
21424WAT     H164514   9.190   5.646   1.096
21424WAT     H264515   9.134   5.523   1.003
21425WAT      O64516   0.951   5.464   4.081
21425WAT     H164517   0.852   5.456   4.068
21425WAT     H264518   0.971   5.544   4.138
21426WAT      O64519   6.272   0.320   7.946
21426WAT     H164520   6.358   0.311   7.996
21426WAT     H264521   6.290   0.324   7.848
21427WAT      O64522   8.678   6.228   3.425
21427WAT     H164523   8.638   6.305   3.475
21427WAT     H264524   8.679   6.249   3.327
21428WAT      O64525   2.759   7.723   2.572
21428WAT     H164526   2.778   7.796   2.638
21428WAT     H264527   2.793   7.637   2.608
21429WAT      O64528   9.391   0.792   6.097
21429WAT     H164529   9.393   0.696   6.070
21429WAT     H264530   9.380   0.799   6.197
21430WAT      O64531   9.756   0.938   6.354
21430WAT     H164532   9.848   0.933   6.393
21430WAT     H264533   9.696   0.875   6.402
21431WAT      O64534   4.362   5.555   2.291
21431WAT     H164535   4.331   5.519   2.379
21431WAT     H264536   4.421   5.488   2.247
21432WAT      O64537   7.086   9.090   3.972
21432WAT     H164538   7.025   9.019   3.938
21432WAT     H264539   7.178   9.053   3.986
21433WAT      O64540   7.014   7.124   0.657
21433WAT     H164541   6.914   7.122   0.650
21433WAT     H264542   7.040   7.138   0.753
21434WAT      O64543   1.405   0.056   2.840
21434WAT     H164544   1.375   0.086   2.749
21434WAT     H264545   1.340   0.086   2.908
21435WAT      O64546   5.498   1.233   7.914
21435WAT     H164547   5.475   1.196   8.004
21435WAT     H264548   5.502   1.333   7.918
21436WAT      O64549   7.357   2.687   6.139
21436WAT     H164550   7.401   2.617   6.082
21436WAT     H264551   7.345   2.651   6.232
21437WAT      O64552   7.284   1.459   9.895
21437WAT     H164553   7.253   1.505   9.811
21437WAT     H264554   7.328   1.372   9.870
21438WAT      O64555   2.888   6.231   7.199
21438WAT     H164556   2.941   6.271   7.274
21438WAT     H264557   2.792   6.228   7.225
21439WAT      O64558   1.157   6.732   1.312
21439WAT     H164559   1.129   6.777   1.228
21439WAT     H264560   1.173   6.801   1.383
21440WAT      O64561   2.377   0.966   1.983
21440WAT     H164562   2.461   0.915   1.999
21440WAT     H264563   2.301   0.902   1.973
21441WAT      O64564   2.828   0.817   7.728
21441WAT     H164565   2.807   0.864   7.814
21441WAT     H264566   2.837   0.885   7.655
21442WAT      O64567   2.490   5.075   8.225
21442WAT     H164568   2.513   5.034   8.137
21442WAT     H264569   2.505   5.174   8.221
21443WAT      O64570   0.437   2.645   4.777
21443WAT     H164571   0.434   2.579   4.852
21443WAT     H264572   0.417   2.598   4.691
21444WAT      O64573   5.745   1.921   3.290
21444WAT     H164574   5.845   1.923   3.301
21444WAT     H264575   5.702   1.909   3.380
21445WAT      O64576   1.356   9.584   5.337
21445WAT     H164577   1.351   9.596   5.436
21445WAT     H264578   1.354   9.674   5.292
21446WAT      O64579   1.231   8.976   4.995
21446WAT     H164580   1.174   8.952   4.917
21446WAT     H264581   1.294   9.050   4.970
21447WAT      O64582   7.139   2.633   2.266
21447WAT     H164583   7.175   2.544   2.239
21447WAT     H264584   7.189   2.666   2.347
21448WAT      O64585   7.890   4.033   1.719
21448WAT     H164586   7.822   4.064   1.653
21448WAT     H264587   7.934   3.950   1.686
21449WAT      O64588   9.059   5.987   5.180
21449WAT     H164589   8.961   5.973   5.192
21449WAT     H264590   9.090   5.941   5.097
21450WAT      O64591   9.666   7.217   3.892
21450WAT     H164592   9.710   7.157   3.959
21450WAT     H264593   9.580   7.177   3.862
21451WAT      O64594   4.940   6.272   2.464
21451WAT     H164595   4.846   6.304   2.472
21451WAT     H264596   4.940   6.173   2.449
21452WAT      O64597   4.019   8.773   8.507
21452WAT     H164598   4.016   8.676   8.483
21452WAT     H264599   4.031   8.827   8.424
21453WAT      O64600   2.861   1.434   1.269
21453WAT     H164601   2.892   1.528   1.285
21453WAT     H264602   2.930   1.370   1.302
21454WAT      O64603   6.226   7.175   8.926
21454WAT     H164604   6.301   7.142   8.869
21454WAT     H264605   6.177   7.097   8.965
21455WAT      O64606   1.053   1.598   7.478
21455WAT     H164607   1.076   1.674   7.539
21455WAT     H264608   0.956   1.578   7.485
21456WAT      O64609   1.484   4.170   4.480
21456WAT     H164610   1.486   4.206   4.387
21456WAT     H264611   1.454   4.242   4.543
21457WAT      O64612   0.064   4.705   2.141
21457WAT     H164613   0.111   4.741   2.060
21457WAT     H264614   0.105   4.744   2.224
21458WAT      O64615   9.888   8.115   5.961
21458WAT     H164616   9.861   8.054   5.887
21458WAT     H264617   9.855   8.079   6.048
21459WAT      O64618   5.794   9.745   9.730
21459WAT     H164619   5.866   9.676   9.719
21459WAT     H264620   5.758   9.741   9.823
21460WAT      O64621   5.679   0.321   6.604
21460WAT     H164622   5.724   0.347   6.518
21460WAT     H264623   5.647   0.226   6.597
21461WAT      O64624   1.025   1.579   3.000
21461WAT     H164625   0.987   1.583   2.908
21461WAT     H264626   1.113   1.531   2.999
21462WAT      O64627   1.971   4.758   5.432
21462WAT     H164628   1.939   4.719   5.518
21462WAT     H264629   2.014   4.686   5.377
21463WAT      O64630   6.138   2.254   7.432
21463WAT     H164631   6.227   2.210   7.421
21463WAT     H264632   6.094   2.264   7.343
21464WAT      O64633   4.841   6.068   5.763
21464WAT     H164634   4.922   6.040   5.815
21464WAT     H264635   4.868   6.095   5.671
21465WAT      O64636   4.885   8.247   7.277
21465WAT     H164637   4.915   8.152   7.289
21465WAT     H264638   4.794   8.247   7.235
21466WAT      O64639   4.376   5.365   5.373
21466WAT     H164640   4.328   5.420   5.305
21466WAT     H264641   4.400   5.424   5.451
21467WAT      O64642   0.426   1.876   9.156
21467WAT     H164643   0.461   1.952   9.102
21467WAT     H264644   0.328   1.886   9.169
21468WAT      O64645   1.063   5.989   4.345
21468WAT     H164646   0.970   6.001   4.312
21468WAT     H264647   1.078   6.044   4.426
21469WAT      O64648   4.463   8.026   2.481
21469WAT     H164649   4.396   7.979   2.538
21469WAT     H264650   4.473   8.121   2.512
21470WAT      O64651   7.734   1.782   7.610
21470WAT     H164652   7.832   1.785   7.591
21470WAT     H264653   7.710   1.854   7.675
21471WAT      O64654   5.493   3.034   9.035
21471WAT     H164655   5.456   3.086   9.111
21471WAT     H264656   5.466   2.938   9.043
21472WAT      O64657   3.841   3.087   8.968
21472WAT     H164658   3.879   3.022   9.034
21472WAT     H264659   3.742   3.071   8.959
21473WAT      O64660   5.680   9.714   1.109
21473WAT     H164661   5.703   9.665   1.025
21473WAT     H264662   5.726   9.670   1.187
21474WAT      O64663   8.153   6.084   2.953
21474WAT     H164664   8.133   6.181   2.967
21474WAT     H264665   8.096   6.048   2.880
21475WAT      O64666   3.256   8.370   2.169
21475WAT     H164667   3.183   8.360   2.237
21475WAT     H264668   3.341   8.397   2.214
21476WAT      O64669   6.388   5.779   7.313
21476WAT     H164670   6.348   5.694   7.280
21476WAT     H264671   6.334   5.814   7.390
21477WAT      O64672   6.471   5.383   3.483
21477WAT     H164673   6.468   5.426   3.393
21477WAT     H264674   6.478   5.453   3.554
21478WAT      O64675   7.953   4.204   1.929
21478WAT     H164676   7.913   4.167   1.845
21478WAT     H264677   8.052   4.190   1.928
21479WAT      O64678   9.042   3.390   3.211
21479WAT     H164679   9.092   3.345   3.137
21479WAT     H264680   8.947   3.401   3.185
21480WAT      O64681   2.518   1.937   4.813
21480WAT     H164682   2.569   1.880   4.877
21480WAT     H264683   2.536   2.033   4.833
21481WAT      O64684   2.047   8.440   8.483
21481WAT     H164685   2.069   8.506   8.412
21481WAT     H264686   2.114   8.366   8.482
21482WAT      O64687   6.833   6.537   5.893
21482WAT     H164688   6.914   6.592   5.912
21482WAT     H264689   6.760   6.594   5.856
21483WAT      O64690   8.522   3.587   5.581
21483WAT     H164691   8.453   3.557   5.515
21483WAT     H264692   8.478   3.610   5.668
21484WAT      O64693   0.599   5.324   0.214
21484WAT     H164694   0.522   5.343   0.152
21484WAT     H264695   0.631   5.409   0.254
21485WAT      O64696   3.724   5.244   1.728
21485WAT     H164697   3.813   5.262   1.687
21485WAT     H264698   3.706   5.145   1.725
21486WAT      O64699   9.452   2.771   4.616
21486WAT     H164700   9.428   2.679   4.586
21486WAT     H264701   9.375   2.833   4.598
21487WAT      O64702   5.107   8.293   6.254
21487WAT     H164703   5.083   8.196   6.260
21487WAT     H264704   5.140   8.313   6.162
21488WAT      O64705   4.187   8.761   3.788
21488WAT     H164706   4.146   8.806   3.867
21488WAT     H264707   4.140   8.791   3.705
21489WAT      O64708   9.387   4.198   7.791
21489WAT     H164709   9.336   4.211   7.876
21489WAT     H264710   9.473   4.150   7.810
21490WAT      O64711   0.536   2.644   3.040
21490WAT     H164712   0.443   2.679   3.045
21490WAT     H264713   0.588   2.694   2.971
21491WAT      O64714   8.524   4.509   8.097
21491WAT     H164715   8.440   4.477   8.053
21491WAT     H264716   8.509   4.518   8.196
21492WAT      O64717   7.990   5.441   3.087
21492WAT     H164718   7.896   5.471   3.102
21492WAT     H264719   7.993   5.382   3.006
21493WAT      O64720   3.363   8.231   8.977
21493WAT     H164721   3.369   8.285   9.061
21493WAT     H264722   3.288   8.267   8.920
21494WAT      O64723   9.244   3.766   3.238
21494WAT     H164724   9.263   3.829   3.162
21494WAT     H264725   9.293   3.680   3.222
21495WAT      O64726   0.917   6.825   2.169
21495WAT     H164727   1.015   6.833   2.184
21495WAT     H264728   0.900   6.767   2.090
21496WAT      O64729   3.806   8.597   0.732
21496WAT     H164730   3.892   8.566   0.694
21496WAT     H264731   3.734   8.530   0.713
21497WAT      O64732   8.189   4.111   1.731
21497WAT     H164733   8.100   4.066   1.732
21497WAT     H264734   8.252   4.059   1.675
21498WAT      O64735   7.721   3.983   7.634
21498WAT     H164736   7.786   3.947   7.568
21498WAT     H264737   7.670   4.059   7.593
21499WAT      O64738   2.521   1.171   8.464
21499WAT     H164739   2.429   1.144   8.495
21499WAT     H264740   2.517   1.194   8.367
21500WAT      O64741   4.284   8.036   9.115
21500WAT     H164742   4.299   8.134   9.101
21500WAT     H264743   4.186   8.017   9.122
21501WAT      O64744   6.095   7.414   1.993
21501WAT     H164745   6.162   7.483   1.965
21501WAT     H264746   6.133   7.322   1.978
21502WAT      O64747   6.053   5.292   5.938
21502WAT     H164748   6.000   5.218   5.979
21502WAT     H264749   6.024   5.305   5.843
21503WAT      O64750   9.843   6.317   3.883
21503WAT     H164751   9.868   6.368   3.801
21503WAT     H264752   9.855   6.374   3.964
21504WAT      O64753   1.106   3.492   5.654
21504WAT     H164754   1.063   3.531   5.735
21504WAT     H264755   1.066   3.534   5.572
21505WAT      O64756   3.236   8.781   7.573
21505WAT     H164757   3.316   8.841   7.578
21505WAT     H264758   3.248   8.705   7.637
21506WAT      O64759   7.576   9.137   5.387
21506WAT     H164760   7.583   9.222   5.440
21506WAT     H264761   7.536   9.066   5.445
21507WAT      O64762   7.372   3.617   9.237
21507WAT     H164763   7.408   3.546   9.175
21507WAT     H264764   7.429   3.621   9.319
21508WAT      O64765   4.450   8.914   0.994
21508WAT     H164766   4.438   8.817   0.973
21508WAT     H264767   4.508   8.956   0.925
21509WAT      O64768   3.339   3.284   2.443
21509WAT     H164769   3.350   3.383   2.433
21509WAT     H264770   3.423   3.246   2.482
21510WAT      O64771   5.317   4.187   2.747
21510WAT     H164772   5.333   4.092   2.774
21510WAT     H264773   5.405   4.233   2.737
21511WAT      O64774   4.659   1.859   9.848
21511WAT     H164775   4.582   1.875   9.910
21511WAT     H264776   4.743   1.848   9.902
21512WAT      O64777   3.451   3.771   7.435
21512WAT     H164778   3.492   3.861   7.449
21512WAT     H264779   3.352   3.778   7.444
21513WAT      O64780   9.810   8.235   1.467
21513WAT     H164781   9.751   8.284   1.402
21513WAT     H264782   9.904   8.236   1.434
21514WAT      O64783   4.650   0.246   3.858
21514WAT     H164784   4.665   0.250   3.759
21514WAT     H264785   4.737   0.231   3.904
21515WAT      O64786   8.946   5.173   2.740
21515WAT     H164787   8.968   5.269   2.721
21515WAT     H264788   8.868   5.146   2.683
21516WAT      O64789   9.396   1.337   8.506
21516WAT     H164790   9.432   1.374   8.420
21516WAT     H264791   9.382   1.239   8.497
21517WAT      O64792   5.501   0.973   5.441
21517WAT     H164793   5.549   0.958   5.527
21517WAT     H264794   5.452   1.060   5.444
21518WAT      O64795   3.468   9.814   7.497
21518WAT     H164796   3.391   9.841   7.554
21518WAT     H264797   3.495   9.891   7.439
21519WAT      O64798   0.701   6.632   5.739
21519WAT     H164799   0.675   6.583   5.822
21519WAT     H264800   0.775   6.696   5.760
21520WAT      O64801   8.728   4.817   5.236
21520WAT     H164802   8.752   4.866   5.320
21520WAT     H264803   8.774   4.860   5.159
21521WAT      O64804   8.398   3.231   4.127
21521WAT     H164805   8.399   3.307   4.192
21521WAT     H264806   8.304   3.214   4.096
21522WAT      O64807   1.061   8.780   4.258
21522WAT     H164808   1.113   8.697   4.239
21522WAT     H264809   0.994   8.795   4.185
21523WAT      O64810   3.030   8.369   7.266
21523WAT     H164811   2.940   8.408   7.251
21523WAT     H264812   3.076   8.418   7.341
21524WAT      O64813   3.773   5.920   8.746
21524WAT     H164814   3.845   5.851   8.741
21524WAT     H264815   3.689   5.884   8.704
21525WAT      O64816   8.310   8.307   1.397
21525WAT     H164817   8.284   8.211   1.408
21525WAT     H264818   8.407   8.312   1.371
21526WAT      O64819   8.712   0.373   4.722
21526WAT     H164820   8.766   0.319   4.658
21526WAT     H264821   8.659   0.313   4.781
21527WAT      O64822   2.792   8.835   0.163
21527WAT     H164823   2.807   8.887   0.078
21527WAT     H264824   2.876   8.786   0.186
21528WAT      O64825   8.012   1.111   3.024
21528WAT     H164826   8.073   1.067   2.958
21528WAT     H264827   7.918   1.085   3.005
21529WAT      O64828   2.606   4.544   1.861
21529WAT     H164829   2.569   4.599   1.786
21529WAT     H264830   2.535   4.484   1.897
21530WAT      O64831   8.352   7.859   9.279
21530WAT     H164832   8.257   7.889   9.285
21530WAT     H264833   8.357   7.761   9.299
21531WAT      O64834   3.079   3.457   1.066
21531WAT     H164835   3.174   3.433   1.046
21531WAT     H264836   3.063   3.553   1.042
21532WAT      O64837   4.711   6.384   7.118
21532WAT     H164838   4.706   6.284   7.113
21532WAT     H264839   4.803   6.411   7.149
21533WAT      O64840   0.337   2.396   8.127
21533WAT     H164841   0.370   2.392   8.222
21533WAT     H264842   0.415   2.392   8.064
21534WAT      O64843   5.920   4.693   5.915
21534WAT     H164844   5.865   4.612   5.898
21534WAT     H264845   5.988   4.674   5.985
21535WAT      O64846   8.465   7.772   9.647
21535WAT     H164847   8.534   7.783   9.718
21535WAT     H264848   8.445   7.862   9.606
21536WAT      O64849   6.863   4.560   8.254
21536WAT     H164850   6.953   4.546   8.212
21536WAT     H264851   6.835   4.476   8.300
21537WAT      O64852   5.140   2.049   9.130
21537WAT     H164853   5.116   2.064   9.034
21537WAT     H264854   5.110   1.957   9.157
21538WAT      O64855   4.456   3.926   2.866
21538WAT     H164856   4.408   3.901   2.951
21538WAT     H264857   4.544   3.967   2.888
21539WAT      O64858   1.739   8.215   3.501
21539WAT     H164859   1.726   8.122   3.536
21539WAT     H264860   1.676   8.277   3.547
21540WAT      O64861   3.688   4.713   9.872
21540WAT     H164862   3.728   4.767   9.798
21540WAT     H264863   3.610   4.662   9.837
21541WAT      O64864   3.119   9.790   9.629
21541WAT     H164865   3.029   9.780   9.672
21541WAT     H264866   3.107   9.817   9.534
21542WAT      O64867   1.564   4.293   4.235
21542WAT     H164868   1.632   4.357   4.273
21542WAT     H264869   1.580   4.282   4.137
21543WAT      O64870   3.514   9.432   8.694
21543WAT     H164871   3.431   9.481   8.667
21543WAT     H264872   3.593   9.474   8.650
21544WAT      O64873   9.165   3.794   7.506
21544WAT     H164874   9.230   3.732   7.549
21544WAT     H264875   9.174   3.885   7.547
21545WAT      O64876   1.098   3.694   2.433
21545WAT     H164877   1.077   3.602   2.469
21545WAT     H264878   1.178   3.689   2.374
21546WAT      O64879   3.266   3.290   1.711
21546WAT     H164880   3.202   3.346   1.763
21546WAT     H264881   3.350   3.278   1.763
21547WAT      O64882   6.541   0.893   7.138
21547WAT     H164883   6.555   0.834   7.058
21547WAT     H264884   6.496   0.977   7.110
21548WAT      O64885   1.650   0.869   4.889
21548WAT     H164886   1.711   0.938   4.927
21548WAT     H264887   1.676   0.779   4.923
21549WAT      O64888   0.132   1.643   1.788
21549WAT     H164889   0.066   1.712   1.757
21549WAT     H264890   0.101   1.552   1.760
21550WAT      O64891   8.684   4.097   2.631
21550WAT     H164892   8.637   4.093   2.543
21550WAT     H264893   8.629   4.048   2.699
21551WAT      O64894   9.618   3.834   7.013
21551WAT     H164895   9.638   3.738   6.993
21551WAT     H264896   9.691   3.871   7.071
21552WAT      O64897   0.866   9.384   8.980
21552WAT     H164898   0.876   9.312   8.911
21552WAT     H264899   0.892   9.472   8.941
21553WAT      O64900   8.368   1.692   3.934
21553WAT     H164901   8.418   1.632   3.871
21553WAT     H264902   8.421   1.703   4.018
21554WAT      O64903   2.670   8.925   1.870
21554WAT     H164904   2.596   8.952   1.931
21554WAT     H264905   2.732   9.002   1.857
21555WAT      O64906   1.596   8.619   3.541
21555WAT     H164907   1.525   8.593   3.475
21555WAT     H264908   1.613   8.718   3.533
21556WAT      O64909   8.146   0.228   2.188
21556WAT     H164910   8.130   0.326   2.178
21556WAT     H264911   8.242   0.212   2.211
21557WAT      O64912   8.228   8.931   5.751
21557WAT     H164913   8.283   8.963   5.828
21557WAT     H264914   8.281   8.868   5.696
21558WAT      O64915   3.819   7.573   3.946
21558WAT     H164916   3.871   7.626   3.880
21558WAT     H264917   3.747   7.631   3.986
21559WAT      O64918   4.741   3.825   6.012
21559WAT     H164919   4.840   3.817   5.997
21559WAT     H264920   4.717   3.921   6.029
21560WAT      O64921   0.319   6.872   5.405
21560WAT     H164922   0.262   6.922   5.339
21560WAT     H264923   0.360   6.938   5.469
21561WAT      O64924   2.693   8.677   1.075
21561WAT     H164925   2.614   8.627   1.040
21561WAT     H264926   2.694   8.769   1.036
21562WAT      O64927   5.476   1.658   1.309
21562WAT     H164928   5.538   1.584   1.336
21562WAT     H264929   5.483   1.733   1.375
21563WAT      O64930   4.662   7.203   1.513
21563WAT     H164931   4.660   7.273   1.442
21563WAT     H264932   4.690   7.245   1.600
21564WAT      O64933   0.388   3.840   8.568
21564WAT     H164934   0.423   3.900   8.496
21564WAT     H264935   0.295   3.810   8.545
21565WAT      O64936   1.599   0.840   9.150
21565WAT     H164937   1.512   0.877   9.184
21565WAT     H264938   1.665   0.837   9.224
21566WAT      O64939   1.024   1.868   7.298
21566WAT     H164940   1.000   1.932   7.224
21566WAT     H264941   1.045   1.779   7.259
21567WAT      O64942   1.679   7.124   4.985
21567WAT     H164943   1.712   7.121   5.079
21567WAT     H264944   1.754   7.103   4.922
21568WAT      O64945   3.398   7.512   5.704
21568WAT     H164946   3.307   7.478   5.727
21568WAT     H264947   3.391   7.584   5.636
21569WAT      O64948   0.234   7.720   6.670
21569WAT     H164949   0.178   7.780   6.613
21569WAT     H264950   0.265   7.771   6.751
21570WAT      O64951   7.484   5.156   1.714
21570WAT     H164952   7.454   5.107   1.796
21570WAT     H264953   7.405   5.203   1.672
21571WAT      O64954   9.842   5.542   4.708
21571WAT     H164955   9.754   5.497   4.696
21571WAT     H264956   9.894   5.496   4.780
21572WAT      O64957   9.034   5.851   2.574
21572WAT     H164958   9.056   5.898   2.659
21572WAT     H264959   9.034   5.917   2.499
21573WAT      O64960   8.785   7.383   1.372
21573WAT     H164961   8.814   7.426   1.458
21573WAT     H264962   8.754   7.453   1.308
21574WAT      O64963   2.987   6.511   5.950
21574WAT     H164964   2.906   6.487   5.896
21574WAT     H264965   3.048   6.433   5.955
21575WAT      O64966   5.698   1.881   9.619
21575WAT     H164967   5.668   1.814   9.687
21575WAT     H264968   5.683   1.844   9.528
21576WAT      O64969   7.596   4.844   7.339
21576WAT     H164970   7.615   4.940   7.360
21576WAT     H264971   7.682   4.793   7.335
21577WAT      O64972   0.627   0.727   7.521
21577WAT     H164973   0.630   0.826   7.525
21577WAT     H264974   0.688   0.689   7.591
21578WAT      O64975   1.733   4.872   5.541
21578WAT     H164976   1.775   4.921   5.617
21578WAT     H264977   1.774   4.902   5.455
21579WAT      O64978   1.075   7.290   2.805
21579WAT     H164979   1.024   7.292   2.719
21579WAT     H264980   1.133   7.372   2.811
21580WAT      O64981   8.667   5.433   1.257
21580WAT     H164982   8.747   5.436   1.316
21580WAT     H264983   8.585   5.453   1.312
21581WAT      O64984   1.348   2.373   6.972
21581WAT     H164985   1.346   2.409   6.879
21581WAT     H264986   1.352   2.448   7.038
21582WAT      O64987   4.257   6.097   0.747
21582WAT     H164988   4.197   6.177   0.744
21582WAT     H264989   4.202   6.014   0.744
21583WAT      O64990   7.054   3.533   0.148
21583WAT     H164991   6.966   3.581   0.138
21583WAT     H264992   7.118   3.566   0.079
21584WAT      O64993   0.888   3.289   2.335
21584WAT     H164994   0.799   3.245   2.346
21584WAT     H264995   0.953   3.225   2.296
21585WAT      O64996   7.663   3.807   8.015
21585WAT     H164997   7.659   3.820   8.114
21585WAT     H264998   7.585   3.855   7.973
21586WAT      O64999   7.831   9.070   0.492
21586WAT     H165000   7.911   9.127   0.471
21586WAT     H265001   7.797   9.028   0.407
21587WAT      O65002   8.384   3.859   7.020
21587WAT     H165003   8.398   3.911   6.936
21587WAT     H265004   8.433   3.903   7.095
21588WAT      O65005   0.766   6.365   6.166
21588WAT     H165006   0.806   6.455   6.180
21588WAT     H265007   0.792   6.304   6.241
21589WAT      O65008   8.527   6.818   3.201
21589WAT     H165009   8.525   6.721   3.227
21589WAT     H265010   8.577   6.870   3.270
21590WAT      O65011   5.453   9.255   7.158
21590WAT     H165012   5.397   9.174   7.176
21590WAT     H265013   5.393   9.333   7.137
21591WAT      O65014   2.306   1.133   0.891
21591WAT     H165015   2.240   1.178   0.830
21591WAT     H265016   2.395   1.178   0.881
21592WAT      O65017   1.910   1.495   2.216
21592WAT     H165018   1.964   1.433   2.161
21592WAT     H265019   1.965   1.530   2.292
21593WAT      O65020   2.327   7.377   9.517
21593WAT     H165021   2.315   7.279   9.500
21593WAT     H265022   2.389   7.390   9.595
21594WAT      O65023   7.211   1.685   1.851
21594WAT     H165024   7.172   1.594   1.867
21594WAT     H265025   7.310   1.676   1.834
21595WAT      O65026   2.371   4.197   2.989
21595WAT     H165027   2.320   4.261   2.931
21595WAT     H265028   2.414   4.128   2.932
21596WAT      O65029   4.544   6.250   6.844
21596WAT     H165030   4.475   6.287   6.906
21596WAT     H265031   4.518   6.271   6.749
21597WAT      O65032   6.968   2.061   3.725
21597WAT     H165033   6.972   1.968   3.690
21597WAT     H265034   6.916   2.118   3.662
21598WAT      O65035   6.912   1.725   0.086
21598WAT     H165036   6.888   1.812   0.043
21598WAT     H265037   6.901   1.651   0.019
21599WAT      O65038   4.497   3.845   7.635
21599WAT     H165039   4.570   3.914   7.634
21599WAT     H265040   4.409   3.889   7.616
21600WAT      O65041   5.820   7.404   5.927
21600WAT     H165042   5.738   7.455   5.952
21600WAT     H265043   5.799   7.341   5.852
21601WAT      O65044   1.628   1.148   0.180
21601WAT     H165045   1.591   1.120   0.268
21601WAT     H265046   1.670   1.238   0.189
21602WAT      O65047   8.325   4.767   2.338
21602WAT     H165048   8.410   4.816   2.357
21602WAT     H265049   8.305   4.703   2.412
21603WAT      O65050   8.687   5.326   9.701
21603WAT     H165051   8.735   5.245   9.734
21603WAT     H265052   8.753   5.393   9.667
21604WAT      O65053   0.549   5.605   5.832
21604WAT     H165054   0.559   5.511   5.864
21604WAT     H265055   0.481   5.652   5.888
21605WAT      O65056   5.429   8.265   8.037
21605WAT     H165057   5.343   8.272   7.985
21605WAT     H265058   5.452   8.169   8.050
21606WAT      O65059   9.650   6.039   1.227
21606WAT     H165060   9.597   5.969   1.180
21606WAT     H265061   9.631   6.129   1.186
21607WAT      O65062   6.900   5.425   6.627
21607WAT     H165063   6.993   5.408   6.595
21607WAT     H265064   6.839   5.356   6.588
21608WAT      O65065   7.898   7.536   1.003
21608WAT     H165066   7.974   7.556   0.941
21608WAT     H265067   7.814   7.521   0.950
21609WAT      O65068   5.820   6.455   5.928
21609WAT     H165069   5.759   6.534   5.922
21609WAT     H265070   5.847   6.427   5.835
21610WAT      O65071   0.478   4.894   1.291
21610WAT     H165072   0.406   4.836   1.329
21610WAT     H265073   0.567   4.854   1.312
21611WAT      O65074   0.682   8.292   4.876
21611WAT     H165075   0.767   8.278   4.826
21611WAT     H265076   0.684   8.239   4.962
21612WAT      O65077   3.863   8.612   6.381
21612WAT     H165078   3.868   8.597   6.480
21612WAT     H265079   3.767   8.606   6.351
21613WAT      O65080   6.109   0.010   3.204
21613WAT     H165081   6.097  -0.002   3.106
21613WAT     H265082   6.097  -0.078   3.250
21614WAT      O65083   0.008   4.242   7.501
21614WAT     H165084  -0.065   4.221   7.435
21614WAT     H265085   0.034   4.338   7.492
21615WAT      O65086   2.152   7.818   5.835
21615WAT     H165087   2.243   7.788   5.865
21615WAT     H265088   2.121   7.760   5.759
21616WAT      O65089   9.602   2.955   4.776
21616WAT     H165090   9.571   2.894   4.704
21616WAT     H265091   9.528   2.971   4.842
21617WAT      O65092   8.530   7.064   9.678
21617WAT     H165093   8.604   7.019   9.629
21617WAT     H265094   8.539   7.046   9.776
21618WAT      O65095   2.353   9.745   9.235
21618WAT     H165096   2.277   9.686   9.260
21618WAT     H265097   2.317   9.827   9.189
21619WAT      O65098   9.671   1.747   2.128
21619WAT     H165099   9.599   1.790   2.182
21619WAT     H265100   9.661   1.648   2.132
21620WAT      O65101   3.050   4.478   2.278
21620WAT     H165102   3.133   4.487   2.222
21620WAT     H265103   3.045   4.386   2.315
21621WAT      O65104   4.978   0.055   1.235
21621WAT     H165105   4.953   0.045   1.138
21621WAT     H265106   4.904   0.100   1.284
21622WAT      O65107   6.764   2.739   9.007
21622WAT     H165108   6.733   2.665   8.948
21622WAT     H265109   6.735   2.827   8.968
21623WAT      O65110   9.786   2.507   8.213
21623WAT     H165111   9.853   2.451   8.165
21623WAT     H265112   9.697   2.460   8.213
21624WAT      O65113   7.134   4.508   2.811
21624WAT     H165114   7.145   4.560   2.726
21624WAT     H265115   7.188   4.551   2.883
21625WAT      O65116   8.476   4.664   9.376
21625WAT     H165117   8.534   4.744   9.391
21625WAT     H265118   8.513   4.609   9.301
21626WAT      O65119   4.483   3.232   8.070
21626WAT     H165120   4.574   3.232   8.111
21626WAT     H265121   4.438   3.320   8.088
21627WAT      O65122   0.942   3.208   3.312
21627WAT     H165123   1.017   3.142   3.305
21627WAT     H265124   0.870   3.170   3.370
21628WAT      O65125   0.039   5.430   8.010
21628WAT     H165126   0.061   5.418   7.914
21628WAT     H265127  -0.005   5.347   8.045
21629WAT      O65128   9.003   3.827   9.183
21629WAT     H165129   9.094   3.819   9.143
21629WAT     H265130   8.943   3.876   9.120
21630WAT      O65131   7.495   5.932   7.823
21630WAT     H165132   7.553   6.002   7.781
21630WAT     H265133   7.548   5.849   7.837
21631WAT      O65134   1.135   2.547   9.600
21631WAT     H165135   1.049   2.509   9.632
21631WAT     H265136   1.127   2.647   9.594
21632WAT      O65137   7.727   7.843   4.243
21632WAT     H165138   7.814   7.872   4.203
21632WAT     H265139   7.656   7.846   4.172
21633WAT      O65140   1.529   7.866   7.973
21633WAT     H165141   1.462   7.939   7.971
21633WAT     H265142   1.526   7.815   7.887
21634WAT      O65143   6.163   9.635   3.832
21634WAT     H165144   6.221   9.647   3.752
21634WAT     H265145   6.067   9.647   3.806
21635WAT      O65146   8.518   8.580   6.062
21635WAT     H165147   8.533   8.651   5.993
21635WAT     H265148   8.594   8.516   6.061
21636WAT      O65149   6.223   2.824   9.043
21636WAT     H165150   6.293   2.894   9.060
21636WAT     H265151   6.155   2.828   9.115
21637WAT      O65152   2.721   3.494   8.486
21637WAT     H165153   2.731   3.585   8.445
21637WAT     H265154   2.649   3.496   8.555
21638WAT      O65155   7.243   1.230   2.045
21638WAT     H165156   7.217   1.158   1.980
21638WAT     H265157   7.330   1.207   2.087
21639WAT      O65158   3.716   5.304   9.265
21639WAT     H165159   3.638   5.247   9.240
21639WAT     H265160   3.768   5.259   9.338
21640WAT      O65161   8.774   1.919   5.583
21640WAT     H165162   8.736   1.840   5.536
21640WAT     H265163   8.754   1.913   5.681
21641WAT      O65164   7.956   5.020   2.807
21641WAT     H165165   7.938   5.056   2.716
21641WAT     H265166   7.922   5.084   2.875
21642WAT      O65167   7.464   6.312   8.582
21642WAT     H165168   7.458   6.400   8.629
21642WAT     H265169   7.517   6.248   8.637
21643WAT      O65170   0.227   8.219   9.329
21643WAT     H165171   0.224   8.152   9.404
21643WAT     H265172   0.322   8.243   9.310
21644WAT      O65173   0.908   5.952   7.374
21644WAT     H165174   0.950   5.957   7.465
21644WAT     H265175   0.829   5.891   7.377
21645WAT      O65176   8.714   9.691   8.405
21645WAT     H165177   8.737   9.640   8.487
21645WAT     H265178   8.616   9.712   8.405
21646WAT      O65179   5.513   5.156   0.340
21646WAT     H165180   5.557   5.238   0.376
21646WAT     H265181   5.510   5.086   0.411
21647WAT      O65182   9.546   3.650   4.693
21647WAT     H165183   9.536   3.734   4.746
21647WAT     H265184   9.626   3.657   4.634
21648WAT      O65185   4.123   1.579   9.150
21648WAT     H165186   4.192   1.548   9.216
21648WAT     H265187   4.034   1.579   9.194
21649WAT      O65188   8.209   6.479   4.887
21649WAT     H165189   8.179   6.398   4.836
21649WAT     H265190   8.302   6.503   4.858
21650WAT      O65191   3.493   4.112   1.399
21650WAT     H165192   3.534   4.166   1.473
21650WAT     H265193   3.447   4.032   1.439
21651WAT      O65194   7.914   0.195   0.098
21651WAT     H165195   7.941   0.180   0.003
21651WAT     H265196   7.916   0.108   0.147
21652WAT      O65197   7.586   1.143   1.308
21652WAT     H165198   7.598   1.154   1.210
21652WAT     H265199   7.491   1.117   1.327
21653WAT      O65200   1.205   6.380   0.173
21653WAT     H165201   1.286   6.352   0.224
21653WAT     H265202   1.193   6.479   0.180
21654WAT      O65203   3.094   2.211   0.655
21654WAT     H165204   3.039   2.167   0.584
21654WAT     H265205   3.167   2.150   0.683
21655WAT      O65206   4.512   6.108   6.122
21655WAT     H165207   4.429   6.079   6.169
21655WAT     H265208   4.516   6.064   6.032
21656WAT      O65209   9.868   5.495   1.847
21656WAT     H165210   9.851   5.562   1.919
21656WAT     H265211   9.827   5.408   1.872
21657WAT      O65212   4.026   5.989   6.975
21657WAT     H165213   4.065   6.075   6.940
21657WAT     H265214   4.053   5.914   6.915
21658WAT      O65215   8.508   8.255   1.958
21658WAT     H165216   8.547   8.177   2.006
21658WAT     H265217   8.461   8.315   2.023
21659WAT      O65218   9.638   8.943   4.067
21659WAT     H165219   9.708   8.934   3.996
21659WAT     H265220   9.628   8.856   4.115
21660WAT      O65221   4.508   4.447   3.269
21660WAT     H165222   4.486   4.531   3.320
21660WAT     H265223   4.424   4.407   3.233
21661WAT      O65224   7.229   7.105   5.993
21661WAT     H165225   7.152   7.078   6.051
21661WAT     H265226   7.293   7.161   6.046
21662WAT      O65227   0.075  -0.000   5.083
21662WAT     H165228   0.109  -0.039   4.997
21662WAT     H265229   0.035   0.090   5.064
21663WAT      O65230   4.659   1.304   5.997
21663WAT     H165231   4.750   1.346   5.999
21663WAT     H265232   4.616   1.314   6.087
21664WAT      O65233   4.399   4.660   0.533
21664WAT     H165234   4.381   4.697   0.624
21664WAT     H265235   4.393   4.734   0.466
21665WAT      O65236   5.327   2.676   7.829
21665WAT     H165237   5.251   2.656   7.767
21665WAT     H265238   5.412   2.640   7.791
21666WAT      O65239   5.397   1.114   5.062
21666WAT     H165240   5.404   1.015   5.074
21666WAT     H265241   5.477   1.158   5.103
21667WAT      O65242   2.121   2.101   2.996
21667WAT     H165243   2.040   2.049   2.969
21667WAT     H265244   2.194   2.085   2.930
21668WAT      O65245   3.626   9.730   1.665
21668WAT     H165246   3.534   9.696   1.687
21668WAT     H265247   3.689   9.704   1.737
21669WAT      O65248   0.455   7.956   3.121
21669WAT     H165249   0.469   7.857   3.125
21669WAT     H265250   0.530   8.002   3.169
21670WAT      O65251   5.482   8.299   6.970
21670WAT     H165252   5.466   8.302   7.069
21670WAT     H265253   5.491   8.392   6.935
21671WAT      O65254   5.049   7.584   7.774
21671WAT     H165255   5.102   7.639   7.710
21671WAT     H265256   5.107   7.557   7.851
21672WAT      O65257   5.087   1.659   7.447
21672WAT     H165258   5.113   1.726   7.517
21672WAT     H265259   5.167   1.602   7.425
21673WAT      O65260   4.713   2.641   5.183
21673WAT     H165261   4.751   2.706   5.117
21673WAT     H265262   4.742   2.666   5.275
21674WAT      O65263   6.821   4.460   3.178
21674WAT     H165264   6.742   4.461   3.240
21674WAT     H265265   6.792   4.492   3.087
21675WAT      O65266   4.490   5.108   1.774
21675WAT     H165267   4.541   5.059   1.845
21675WAT     H265268   4.464   5.045   1.701
21676WAT      O65269   3.363   0.125   0.298
21676WAT     H165270   3.351   0.035   0.340
21676WAT     H265271   3.274   0.167   0.283
21677WAT      O65272   6.721   5.964   3.513
21677WAT     H165273   6.710   6.031   3.587
21677WAT     H265274   6.819   5.950   3.496
21678WAT      O65275   0.085   6.956   9.737
21678WAT     H165276   0.021   6.947   9.661
21678WAT     H265277   0.173   6.989   9.702
21679WAT      O65278   2.963   9.155   9.632
21679WAT     H165279   3.046   9.148   9.687
21679WAT     H265280   2.971   9.096   9.552
21680WAT      O65281   0.274   2.701   3.060
21680WAT     H165282   0.232   2.695   2.969
21680WAT     H265283   0.204   2.719   3.129
21681WAT      O65284   8.743   6.019   1.327
21681WAT     H165285   8.783   6.100   1.284
21681WAT     H265286   8.645   6.034   1.341
21682WAT      O65287   4.166   2.612   7.568
21682WAT     H165288   4.258   2.576   7.555
21682WAT     H265289   4.170   2.711   7.579
21683WAT      O65290   9.820   7.851   6.474
21683WAT     H165291   9.878   7.781   6.515
21683WAT     H265292   9.740   7.809   6.432
21684WAT      O65293   9.219   5.324   8.283
21684WAT     H165294   9.278   5.245   8.273
21684WAT     H265295   9.225   5.381   8.201
21685WAT      O65296   8.399   7.529   8.013
21685WAT     H165297   8.345   7.475   8.077
21685WAT     H265298   8.471   7.472   7.973
21686WAT      O65299   1.736   3.971   8.790
21686WAT     H165300   1.780   3.892   8.833
21686WAT     H265301   1.806   4.029   8.748
21687WAT      O65302   6.711   5.640   1.473
21687WAT     H165303   6.706   5.601   1.380
21687WAT     H265304   6.790   5.602   1.520
21688WAT      O65305   8.467   5.865   4.614
21688WAT     H165306   8.475   5.948   4.558
21688WAT     H265307   8.496   5.884   4.707
21689WAT      O65308   5.568   4.380   3.624
21689WAT     H165309   5.655   4.359   3.667
21689WAT     H265310   5.547   4.310   3.555
21690WAT      O65311   9.642   1.308   9.058
21690WAT     H165312   9.680   1.316   8.966
21690WAT     H265313   9.618   1.399   9.092
21691WAT      O65314   7.051   8.579   6.948
21691WAT     H165315   6.988   8.519   6.899
21691WAT     H265316   7.000   8.633   7.016
21692WAT      O65317   9.827   9.288   0.235
21692WAT     H165318   9.739   9.324   0.265
21692WAT     H265319   9.828   9.280   0.135
21693WAT      O65320   3.411   7.619   6.383
21693WAT     H165321   3.377   7.605   6.476
21693WAT     H265322   3.407   7.532   6.333
21694WAT      O65323   4.924   6.727   7.229
21694WAT     H165324   4.832   6.730   7.269
21694WAT     H265325   4.925   6.784   7.147
21695WAT      O65326   3.615   7.873   6.045
21695WAT     H165327   3.631   7.819   6.128
21695WAT     H265328   3.529   7.844   6.003
21696WAT      O65329   7.230   1.994   1.133
21696WAT     H165330   7.300   2.064   1.120
21696WAT     H265331   7.271   1.904   1.126
21697WAT      O65332   2.206   5.717   4.487
21697WAT     H165333   2.170   5.742   4.577
21697WAT     H265334   2.234   5.799   4.438
21698WAT      O65335   8.719   1.875   5.831
21698WAT     H165336   8.660   1.796   5.819
21698WAT     H265337   8.696   1.921   5.917
21699WAT      O65338   3.775   1.797   3.504
21699WAT     H165339   3.866   1.832   3.524
21699WAT     H265340   3.764   1.787   3.405
21700WAT      O65341   4.671   6.954   0.823
21700WAT     H165342   4.729   6.957   0.905
21700WAT     H265343   4.580   6.924   0.848
21701WAT      O65344   7.286   3.023   1.503
21701WAT     H165345   7.254   3.028   1.408
21701WAT     H265346   7.351   2.947   1.512
21702WAT      O65347   5.242   0.415   5.472
21702WAT     H165348   5.295   0.493   5.436
21702WAT     H265349   5.212   0.435   5.565
21703WAT      O65350   2.553   7.106   1.516
21703WAT     H165351   2.472   7.054   1.544
21703WAT     H265352   2.610   7.123   1.596
21704WAT      O65353   0.963   6.916   5.200
21704WAT     H165354   0.867   6.926   5.177
21704WAT     H265355   1.005   6.847   5.141
21705WAT      O65356   8.628   4.009   9.233
21705WAT     H165357   8.585   3.956   9.160
21705WAT     H265358   8.640   3.951   9.314
21706WAT      O65359   8.448   1.355   6.701
21706WAT     H165360   8.448   1.427   6.770
21706WAT     H265361   8.407   1.389   6.617
21707WAT      O65362   8.541   9.237   1.711
21707WAT     H165363   8.504   9.265   1.623
21707WAT     H265364   8.532   9.138   1.721
21708WAT      O65365   1.275   9.598   2.651
21708WAT     H165366   1.331   9.515   2.656
21708WAT     H265367   1.332   9.677   2.671
21709WAT      O65368   8.672   9.433   6.015
21709WAT     H165369   8.716   9.398   5.932
21709WAT     H265370   8.739   9.436   6.089
21710WAT      O65371   0.068   5.417   1.565
21710WAT     H165372   0.122   5.424   1.481
21710WAT     H265373  -0.023   5.455   1.549
21711WAT      O65374   5.796   3.040   0.896
21711WAT     H165375   5.706   2.998   0.885
21711WAT     H265376   5.840   3.005   0.978
21712WAT      O65377   5.101   6.739   4.749
21712WAT     H165378   5.172   6.675   4.720
21712WAT     H265379   5.110   6.757   4.847
21713WAT      O65380   4.648   9.048   8.544
21713WAT     H165381   4.590   8.993   8.604
21713WAT     H265382   4.605   9.137   8.530
21714WAT      O65383   2.083   5.487   9.060
21714WAT     H165384   2.030   5.419   9.111
21714WAT     H265385   2.174   5.494   9.100
21715WAT      O65386   5.768   1.939   6.764
21715WAT     H165387   5.732   2.028   6.794
21715WAT     H265388   5.692   1.877   6.747
21716WAT      O65389   0.793   5.642   0.086
21716WAT     H165390   0.804   5.672  -0.009
21716WAT     H265391   0.877   5.598   0.117
21717WAT      O65392   3.340   8.917   0.410
21717WAT     H165393   3.386   8.947   0.493
21717WAT     H265394   3.246   8.952   0.410
21718WAT      O65395   3.306   7.741   0.914
21718WAT     H165396   3.262   7.808   0.973
21718WAT     H265397   3.369   7.788   0.852
21719WAT      O65398   2.638   9.241   2.874
21719WAT     H165399   2.676   9.167   2.930
21719WAT     H265400   2.586   9.201   2.798
21720WAT      O65401   3.851   6.672   1.661
21720WAT     H165402   3.830   6.600   1.727
21720WAT     H265403   3.839   6.761   1.705
21721WAT      O65404   6.630   6.344   0.856
21721WAT     H165405   6.679   6.333   0.943
21721WAT     H265406   6.541   6.299   0.863
21722WAT      O65407   9.451   7.270   4.150
21722WAT     H165408   9.361   7.278   4.194
21722WAT     H265409   9.445   7.302   4.056
21723WAT      O65410   5.401   4.427   4.156
21723WAT     H165411   5.415   4.384   4.067
21723WAT     H265412   5.474   4.492   4.174
21724WAT      O65413   5.709   5.340   5.109
21724WAT     H165414   5.661   5.373   5.191
21724WAT     H265415   5.791   5.291   5.137
21725WAT      O65416   4.041   3.384   9.844
21725WAT     H165417   3.997   3.298   9.868
21725WAT     H265418   3.972   3.453   9.824
21726WAT      O65419   8.672   6.222   9.350
21726WAT     H165420   8.673   6.317   9.380
21726WAT     H265421   8.579   6.185   9.362
21727WAT      O65422   9.600   5.605   3.810
21727WAT     H165423   9.659   5.540   3.761
21727WAT     H265424   9.539   5.555   3.872
21728WAT      O65425   1.639   5.269   4.580
21728WAT     H165426   1.646   5.325   4.663
21728WAT     H265427   1.595   5.182   4.603
21729WAT      O65428   3.888   0.822   1.466
21729WAT     H165429   3.875   0.723   1.476
21729WAT     H265430   3.963   0.839   1.402
21730WAT      O65431   0.384   8.365   9.626
21730WAT     H165432   0.443   8.426   9.574
21730WAT     H265433   0.437   8.287   9.659
21731WAT      O65434   9.217   4.306   0.733
21731WAT     H165435   9.169   4.378   0.782
21731WAT     H265436   9.192   4.309   0.636
21732WAT      O65437   1.966   3.582   0.681
21732WAT     H165438   2.022   3.525   0.621
21732WAT     H265439   1.881   3.606   0.634
21733WAT      O65440   7.525   1.941   6.758
21733WAT     H165441   7.516   1.880   6.836
21733WAT     H265442   7.489   1.897   6.676
21734WAT      O65443   2.521   3.215   1.353
21734WAT     H165444   2.448   3.241   1.291
21734WAT     H265445   2.485   3.206   1.446
21735WAT      O65446   6.434   2.537   0.976
21735WAT     H165447   6.502   2.595   1.020
21735WAT     H265448   6.473   2.447   0.958
21736WAT      O65449   1.093   7.530   5.026
21736WAT     H165450   1.077   7.436   5.057
21736WAT     H265451   1.177   7.564   5.067
21737WAT      O65452   2.407   1.274   7.876
21737WAT     H165453   2.403   1.230   7.786
21737WAT     H265454   2.318   1.316   7.896
21738WAT      O65455   7.052   8.511   9.134
21738WAT     H165456   6.969   8.564   9.156
21738WAT     H265457   7.087   8.469   9.217
21739WAT      O65458   0.733   0.368   7.556
21739WAT     H165459   0.694   0.416   7.635
21739WAT     H265460   0.773   0.281   7.586
21740WAT      O65461   7.825   7.634   4.466
21740WAT     H165462   7.758   7.676   4.404
21740WAT     H265463   7.808   7.535   4.471
21741WAT      O65464   7.691   0.372   0.986
21741WAT     H165465   7.748   0.397   0.908
21741WAT     H265466   7.749   0.333   1.058
21742WAT      O65467   6.244   6.433   6.190
21742WAT     H165468   6.316   6.489   6.230
21742WAT     H265469   6.199   6.484   6.116
21743WAT      O65470   7.800   3.157   8.294
21743WAT     H165471   7.802   3.223   8.218
21743WAT     H265472   7.841   3.071   8.265
21744WAT      O65473   1.767   3.244   0.254
21744WAT     H165474   1.673   3.266   0.280
21744WAT     H265475   1.819   3.217   0.335
21745WAT      O65476   1.658   3.868   3.600
21745WAT     H165477   1.610   3.845   3.515
21745WAT     H265478   1.741   3.813   3.607
21746WAT      O65479   0.803   9.781   4.540
21746WAT     H165480   0.767   9.815   4.627
21746WAT     H265481   0.853   9.695   4.556
21747WAT      O65482   5.204   7.158   3.396
21747WAT     H165483   5.159   7.083   3.348
21747WAT     H265484   5.302   7.155   3.377
21748WAT      O65485   3.049   3.923   5.692
21748WAT     H165486   2.956   3.960   5.683
21748WAT     H265487   3.069   3.864   5.614
21749WAT      O65488   5.255   7.509   6.626
21749WAT     H165489   5.259   7.520   6.527
21749WAT     H265490   5.165   7.474   6.652
21750WAT      O65491   4.595   5.751   3.163
21750WAT     H165492   4.595   5.657   3.131
21750WAT     H265493   4.579   5.752   3.262
21751WAT      O65494   8.996   2.668   2.214
21751WAT     H165495   8.981   2.762   2.245
21751WAT     H265496   9.091   2.658   2.184
21752WAT      O65497   6.089   4.592   6.111
21752WAT     H165498   6.185   4.619   6.106
21752WAT     H265499   6.081   4.506   6.160
21753WAT      O65500   4.633   4.946   1.397
21753WAT     H165501   4.603   4.886   1.324
21753WAT     H265502   4.562   5.013   1.417
21754WAT      O65503   0.486   7.612   8.526
21754WAT     H165504   0.448   7.704   8.523
21754WAT     H265505   0.573   7.609   8.477
21755WAT      O65506   7.677   8.750   2.718
21755WAT     H165507   7.614   8.761   2.795
21755WAT     H265508   7.758   8.700   2.747
21756WAT      O65509   9.799   9.652   1.875
21756WAT     H165510   9.733   9.690   1.940
21756WAT     H265511   9.817   9.557   1.899
21757WAT      O65512   7.443   3.205   2.635
21757WAT     H165513   7.448   3.305   2.626
21757WAT     H265514   7.364   3.171   2.584
21758WAT      O65515   1.436   5.238   8.723
21758WAT     H165516   1.477   5.148   8.736
21758WAT     H265517   1.439   5.289   8.809
21759WAT      O65518   0.313   5.602   0.337
21759WAT     H165519   0.319   5.509   0.374
21759WAT     H265520   0.402   5.628   0.299
21760WAT      O65521   7.105   6.277   9.500
21760WAT     H165522   7.076   6.373   9.498
21760WAT     H265523   7.186   6.266   9.442
21761WAT      O65524   8.793   6.238   7.338
21761WAT     H165525   8.720   6.264   7.275
21761WAT     H265526   8.775   6.146   7.374
21762WAT      O65527   5.874   6.443   1.637
21762WAT     H165528   5.892   6.531   1.683
21762WAT     H265529   5.926   6.371   1.683
21763WAT      O65530   7.317   0.998   0.793
21763WAT     H165531   7.224   1.006   0.758
21763WAT     H265532   7.378   1.058   0.740
21764WAT      O65533   7.911   7.078   8.501
21764WAT     H165534   7.959   7.025   8.571
21764WAT     H265535   7.936   7.175   8.510
21765WAT      O65536   6.968   4.152   2.499
21765WAT     H165537   6.927   4.190   2.417
21765WAT     H265538   6.942   4.207   2.578
21766WAT      O65539   9.124   7.744   6.863
21766WAT     H165540   9.036   7.791   6.865
21766WAT     H265541   9.141   7.709   6.771
21767WAT      O65542   0.937   4.556   5.524
21767WAT     H165543   0.947   4.478   5.463
21767WAT     H265544   0.869   4.534   5.594
21768WAT      O65545   1.911   4.569   2.852
21768WAT     H165546   1.932   4.525   2.765
21768WAT     H265547   1.884   4.664   2.835
21769WAT      O65548   4.338   2.187   1.351
21769WAT     H165549   4.268   2.188   1.422
21769WAT     H265550   4.388   2.273   1.352
21770WAT      O65551   8.330   2.886   7.833
21770WAT     H165552   8.230   2.898   7.834
21770WAT     H265553   8.373   2.973   7.811
21771WAT      O65554   0.964   4.580   9.243
21771WAT     H165555   0.899   4.653   9.266
21771WAT     H265556   0.955   4.506   9.309
21772WAT      O65557   4.817   9.760   9.584
21772WAT     H165558   4.767   9.838   9.544
21772WAT     H265559   4.755   9.682   9.593
21773WAT      O65560   6.004   4.447   8.956
21773WAT     H165561   6.051   4.378   8.901
21773WAT     H265562   5.935   4.493   8.901
21774WAT      O65563   7.731   5.463   2.514
21774WAT     H165564   7.643   5.444   2.472
21774WAT     H265565   7.802   5.462   2.444
21775WAT      O65566   4.704   1.248   5.018
21775WAT     H165567   4.776   1.314   4.998
21775WAT     H265568   4.745   1.161   5.044
21776WAT      O65569   4.106   6.648   0.338
21776WAT     H165570   4.064   6.710   0.272
21776WAT     H265571   4.056   6.654   0.425
21777WAT      O65572   3.268   2.299   1.817
21777WAT     H165573   3.256   2.395   1.843
21777WAT     H265574   3.350   2.289   1.761
21778WAT      O65575   4.136   7.743   2.191
21778WAT     H165576   4.210   7.707   2.134
21778WAT     H265577   4.164   7.740   2.287
21779WAT      O65578   2.894   5.723   0.079
21779WAT     H165579   2.838   5.663   0.022
21779WAT     H265580   2.895   5.689   0.173
21780WAT      O65581   5.910   2.694   2.147
21780WAT     H165582   5.956   2.674   2.060
21780WAT     H265583   5.976   2.734   2.211
21781WAT      O65584   4.410   0.387   5.899
21781WAT     H165585   4.469   0.316   5.859
21781WAT     H265586   4.467   0.457   5.941
21782WAT      O65587   2.132   4.600   6.236
21782WAT     H165588   2.164   4.667   6.169
21782WAT     H265589   2.076   4.531   6.190
21783WAT      O65590   1.170   1.817   2.236
21783WAT     H165591   1.144   1.734   2.285
21783WAT     H265592   1.088   1.871   2.217
21784WAT      O65593   0.415   8.787   3.390
21784WAT     H165594   0.341   8.739   3.344
21784WAT     H265595   0.399   8.886   3.386
21785WAT      O65596   2.505   6.199   3.483
21785WAT     H165597   2.567   6.152   3.419
21785WAT     H265598   2.559   6.247   3.552
21786WAT      O65599   1.665   2.446   6.119
21786WAT     H165600   1.750   2.408   6.154
21786WAT     H265601   1.674   2.545   6.110
21787WAT      O65602   7.237   8.689   5.142
21787WAT     H165603   7.265   8.721   5.232
21787WAT     H265604   7.262   8.592   5.132
21788WAT      O65605   6.373   5.259   9.346
21788WAT     H165606   6.351   5.228   9.438
21788WAT     H265607   6.437   5.335   9.350
21789WAT      O65608   5.166   3.187   0.427
21789WAT     H165609   5.262   3.197   0.398
21789WAT     H265610   5.123   3.115   0.372
21790WAT      O65611   9.728   3.155   0.034
21790WAT     H165612   9.780   3.212   0.097
21790WAT     H265613   9.757   3.059   0.043
21791WAT      O65614   9.342   9.258   2.867
21791WAT     H165615   9.262   9.302   2.909
21791WAT     H265616   9.319   9.165   2.841
21792WAT      O65617   4.417   3.115   2.818
21792WAT     H165618   4.491   3.130   2.884
21792WAT     H265619   4.453   3.070   2.737
21793WAT      O65620   2.915   0.244   9.454
21793WAT     H165621   2.992   0.185   9.427
21793WAT     H265622   2.838   0.187   9.483
21794WAT      O65623   2.565   9.625   0.534
21794WAT     H165624   2.570   9.724   0.521
21794WAT     H265625   2.527   9.583   0.451
21795WAT      O65626   1.345   3.065   3.714
21795WAT     H165627   1.437   3.030   3.731
21795WAT     H265628   1.279   3.009   3.764
21796WAT      O65629   5.990   8.804   0.533
21796WAT     H165630   5.932   8.878   0.500
21796WAT     H265631   5.971   8.721   0.482
21797WAT      O65632   5.391   4.035   4.667
21797WAT     H165633   5.409   3.937   4.673
21797WAT     H265634   5.463   4.079   4.614
21798WAT      O65635   2.013   9.559   7.821
21798WAT     H165636   1.938   9.535   7.759
21798WAT     H265637   1.978   9.621   7.892
21799WAT      O65638   9.850   9.272   6.262
21799WAT     H165639   9.859   9.304   6.167
21799WAT     H265640   9.772   9.318   6.305
21800WAT      O65641   0.507   4.246   7.946
21800WAT     H165642   0.605   4.262   7.936
21800WAT     H265643   0.461   4.333   7.959
21801WAT      O65644   1.297   2.690   8.019
21801WAT     H165645   1.312   2.591   8.025
21801WAT     H265646   1.202   2.711   8.045
21802WAT      O65647   1.305   8.963   8.676
21802WAT     H165648   1.251   8.965   8.591
21802WAT     H265649   1.370   9.039   8.676
21803WAT      O65650   1.421   3.965   5.371
21803WAT     H165651   1.423   3.971   5.271
21803WAT     H265652   1.511   3.989   5.407
21804WAT      O65653   4.252   5.458   8.712
21804WAT     H165654   4.213   5.367   8.698
21804WAT     H265655   4.332   5.452   8.772
21805WAT      O65656   0.459   5.977   0.890
21805WAT     H165657   0.401   6.008   0.966
21805WAT     H265658   0.517   6.053   0.860
21806WAT      O65659   6.088   6.459   2.350
21806WAT     H165660   6.179   6.432   2.319
21806WAT     H265661   6.044   6.381   2.395
21807WAT      O65662   4.204   7.742   6.567
21807WAT     H165663   4.108   7.716   6.559
21807WAT     H265664   4.219   7.789   6.654
21808WAT      O65665   7.462   3.410   9.056
21808WAT     H165666   7.558   3.411   9.083
21808WAT     H265667   7.420   3.324   9.084
21809WAT      O65668   5.050   9.393   6.950
21809WAT     H165669   5.053   9.474   6.892
21809WAT     H265670   5.034   9.312   6.893
21810WAT      O65671   2.459   2.109   0.585
21810WAT     H165672   2.406   2.151   0.659
21810WAT     H265673   2.549   2.151   0.581
21811WAT      O65674   1.518   3.171   0.341
21811WAT     H165675   1.486   3.080   0.370
21811WAT     H265676   1.554   3.220   0.420
21812WAT      O65677   1.812   5.303   3.172
21812WAT     H165678   1.714   5.285   3.163
21812WAT     H265679   1.863   5.220   3.152
21813WAT      O65680   2.054   8.042   5.078
21813WAT     H165681   2.088   7.963   5.130
21813WAT     H265682   2.132   8.096   5.045
21814WAT      O65683   3.381   8.701   1.022
21814WAT     H165684   3.367   8.640   0.944
21814WAT     H265685   3.293   8.741   1.050
21815WAT      O65686   6.517   1.598   3.171
21815WAT     H165687   6.613   1.585   3.196
21815WAT     H265688   6.492   1.694   3.180
21816WAT      O65689   4.271   1.236   6.132
21816WAT     H165690   4.224   1.321   6.156
21816WAT     H265691   4.210   1.179   6.077
21817WAT      O65692   7.798   1.928   2.342
21817WAT     H165693   7.747   2.009   2.369
21817WAT     H265694   7.822   1.934   2.245
21818WAT      O65695   5.004   4.213   4.596
21818WAT     H165696   4.993   4.306   4.631
21818WAT     H265697   4.920   4.161   4.615
21819WAT      O65698   8.794   9.214   8.610
21819WAT     H165699   8.800   9.157   8.692
21819WAT     H265700   8.823   9.162   8.530
21820WAT      O65701   7.252   8.887   3.071
21820WAT     H165702   7.225   8.980   3.097
21820WAT     H265703   7.195   8.821   3.118
21821WAT      O65704   3.182   9.609   1.406
21821WAT     H165705   3.102   9.565   1.365
21821WAT     H265706   3.152   9.672   1.478
21822WAT      O65707   1.195   4.163   0.187
21822WAT     H165708   1.108   4.127   0.152
21822WAT     H265709   1.200   4.261   0.169
21823WAT      O65710   8.161   1.446   0.315
21823WAT     H165711   8.120   1.439   0.224
21823WAT     H265712   8.126   1.528   0.361
21824WAT      O65713   4.545   4.537   4.050
21824WAT     H165714   4.562   4.557   3.954
21824WAT     H265715   4.632   4.534   4.100
21825WAT      O65716   9.042   0.756   7.297
21825WAT     H165717   8.982   0.733   7.219
21825WAT     H265718   9.121   0.695   7.296
21826WAT      O65719   2.804   7.220   1.967
21826WAT     H165720   2.891   7.170   1.969
21826WAT     H265721   2.807   7.295   2.033
21827WAT      O65722   1.280   2.450   0.194
21827WAT     H165723   1.189   2.477   0.227
21827WAT     H265724   1.276   2.358   0.155
21828WAT      O65725   9.596   0.595   9.832
21828WAT     H165726   9.611   0.510   9.782
21828WAT     H265727   9.514   0.586   9.889
21829WAT      O65728   3.392   8.530   5.109
21829WAT     H165729   3.477   8.489   5.142
21829WAT     H265730   3.315   8.492   5.160
21830WAT      O65731   2.774   1.535   5.624
21830WAT     H165732   2.678   1.525   5.649
21830WAT     H265733   2.827   1.463   5.669
21831WAT      O65734   4.708   7.220   4.522
21831WAT     H165735   4.699   7.121   4.528
21831WAT     H265736   4.622   7.263   4.550
21832WAT      O65737   4.610   8.006   8.341
21832WAT     H165738   4.542   8.032   8.272
21832WAT     H265739   4.649   8.088   8.382
21833WAT      O65740   2.821   8.991   6.944
21833WAT     H165741   2.802   8.948   6.856
21833WAT     H265742   2.735   9.001   6.995
21834WAT      O65743   7.609   3.392   7.676
21834WAT     H165744   7.685   3.328   7.666
21834WAT     H265745   7.639   3.470   7.731
21835WAT      O65746   1.187   8.876   5.229
21835WAT     H165747   1.156   8.952   5.286
21835WAT     H265748   1.187   8.905   5.133
21836WAT      O65749   2.598   2.941   3.713
21836WAT     H165750   2.640   2.957   3.802
21836WAT     H265751   2.508   2.985   3.711
21837WAT      O65752   0.141   7.573   3.920
21837WAT     H165753   0.113   7.483   3.887
21837WAT     H265754   0.166   7.630   3.842
21838WAT      O65755   8.431   0.551   3.855
21838WAT     H165756   8.337   0.580   3.876
21838WAT     H265757   8.441   0.540   3.756
21839WAT      O65758   1.362   6.769   7.088
21839WAT     H165759   1.449   6.747   7.046
21839WAT     H265760   1.289   6.716   7.044
21840WAT      O65761   3.151   5.478   4.128
21840WAT     H165762   3.130   5.566   4.171
21840WAT     H265763   3.117   5.478   4.034
21841WAT      O65764   6.307   4.214   8.986
21841WAT     H165765   6.259   4.127   8.999
21841WAT     H265766   6.268   4.263   8.909
21842WAT      O65767   0.990   2.610   2.097
21842WAT     H165768   1.044   2.587   2.178
21842WAT     H265769   0.991   2.533   2.033
21843WAT      O65770   4.502   2.076   1.836
21843WAT     H165771   4.458   2.056   1.924
21843WAT     H265772   4.433   2.076   1.764
21844WAT      O65773   3.912   2.111   6.672
21844WAT     H165774   3.894   2.121   6.770
21844WAT     H265775   3.844   2.049   6.632
21845WAT      O65776   3.052   9.325   1.742
21845WAT     H165777   3.086   9.294   1.653
21845WAT     H265778   2.977   9.265   1.772
21846WAT      O65779   4.767   4.280   0.058
21846WAT     H165780   4.708   4.217   0.008
21846WAT     H265781   4.862   4.268   0.028
21847WAT      O65782   0.053   6.899   8.991
21847WAT     H165783   0.022   6.912   9.085
21847WAT     H265784   0.081   6.987   8.953
21848WAT      O65785   4.925   0.423   7.495
21848WAT     H165786   4.910   0.350   7.561
21848WAT     H265787   4.990   0.393   7.426
21849WAT      O65788   5.284   1.853   0.873
21849WAT     H165789   5.309   1.781   0.938
21849WAT     H265790   5.358   1.866   0.807
21850WAT      O65791   5.990   8.598   0.698
21850WAT     H165792   5.989   8.622   0.795
21850WAT     H265793   5.995   8.682   0.643
21851WAT      O65794   0.202   8.970   6.561
21851WAT     H165795   0.157   8.949   6.648
21851WAT     H265796   0.251   9.057   6.569
21852WAT      O65797   4.412   8.685   0.142
21852WAT     H165798   4.394   8.755   0.073
21852WAT     H265799   4.328   8.667   0.194
21853WAT      O65800   5.202   0.253   7.810
21853WAT     H165801   5.204   0.311   7.728
21853WAT     H265802   5.151   0.300   7.882
21854WAT      O65803   7.460   0.836   0.006
21854WAT     H165804   7.370   0.879   0.011
21854WAT     H265805   7.478   0.787   0.092
21855WAT      O65806   6.121   1.728   3.437
21855WAT     H165807   6.062   1.674   3.497
21855WAT     H265808   6.148   1.813   3.484
21856WAT      O65809   7.344   1.376   0.820
21856WAT     H165810   7.376   1.314   0.749
21856WAT     H265811   7.250   1.405   0.799
21857WAT      O65812   8.890   6.075   0.717
21857WAT     H165813   8.933   6.018   0.788
21857WAT     H265814   8.958   6.140   0.682
21858WAT      O65815   3.080   3.977   0.446
21858WAT     H165816   3.161   3.941   0.400
21858WAT     H265817   3.005   3.985   0.380
21859WAT      O65818   3.741   2.916   4.923
21859WAT     H165819   3.732   2.907   4.824
21859WAT     H265820   3.770   2.828   4.962
21860WAT      O65821   1.171   2.919   7.021
21860WAT     H165822   1.251   2.968   7.057
21860WAT     H265823   1.200   2.861   6.945
21861WAT      O65824   6.809   3.803   1.419
21861WAT     H165825   6.839   3.720   1.371
21861WAT     H265826   6.759   3.861   1.355
21862WAT      O65827   5.680   7.763   1.918
21862WAT     H165828   5.609   7.709   1.964
21862WAT     H265829   5.689   7.852   1.963
21863WAT      O65830   8.800   1.173   2.352
21863WAT     H165831   8.861   1.252   2.351
21863WAT     H265832   8.832   1.105   2.286
21864WAT      O65833   5.303   4.715   4.754
21864WAT     H165834   5.243   4.722   4.834
21864WAT     H265835   5.247   4.696   4.673
21865WAT      O65836   1.160   8.513   4.491
21865WAT     H165837   1.194   8.577   4.561
21865WAT     H265838   1.064   8.493   4.507
21866WAT      O65839   8.878   1.286   6.018
21866WAT     H165840   8.910   1.308   5.926
21866WAT     H265841   8.806   1.217   6.014
21867WAT      O65842   1.962   1.989   8.195
21867WAT     H165843   1.960   2.073   8.250
21867WAT     H265844   1.884   1.988   8.133
21868WAT      O65845   3.134   2.313   3.895
21868WAT     H165846   3.093   2.396   3.858
21868WAT     H265847   3.069   2.268   3.957
21869WAT      O65848   9.831   9.204   7.139
21869WAT     H165849   9.867   9.297   7.131
21869WAT     H265850   9.765   9.187   7.066
21870WAT      O65851   9.386   4.336   1.003
21870WAT     H165852   9.464   4.388   1.037
21870WAT     H265853   9.406   4.301   0.912
21871WAT      O65854   7.272   5.726   2.129
21871WAT     H165855   7.349   5.663   2.138
21871WAT     H265856   7.192   5.677   2.095
21872WAT      O65857   5.107   6.993   5.675
21872WAT     H165858   5.197   7.034   5.663
21872WAT     H265859   5.039   7.064   5.691
21873WAT      O65860   8.293   6.707   1.245
21873WAT     H165861   8.271   6.710   1.148
21873WAT     H265862   8.265   6.618   1.283
21874WAT      O65863   0.777   9.523   9.219
21874WAT     H165864   0.826   9.495   9.137
21874WAT     H265865   0.815   9.476   9.298
21875WAT      O65866   0.218   1.277   5.606
21875WAT     H165867   0.131   1.313   5.571
21875WAT     H265868   0.282   1.353   5.618
21876WAT      O65869   6.418   9.264   2.687
21876WAT     H165870   6.437   9.177   2.733
21876WAT     H265871   6.462   9.264   2.597
21877WAT      O65872   3.543   7.342   7.040
21877WAT     H165873   3.634   7.305   7.019
21877WAT     H265874   3.509   7.301   7.124
21878WAT      O65875   2.577   5.856   3.759
21878WAT     H165876   2.495   5.901   3.723
21878WAT     H265877   2.593   5.771   3.709
21879WAT      O65878   0.079   3.724   6.647
21879WAT     H165879   0.034   3.682   6.568
21879WAT     H265880   0.046   3.681   6.731
21880WAT      O65881   1.536   8.231   2.559
21880WAT     H165882   1.576   8.323   2.550
21880WAT     H265883   1.516   8.195   2.468
21881WAT      O65884   3.328   8.316   1.792
21881WAT     H165885   3.407   8.316   1.731
21881WAT     H265886   3.307   8.409   1.819
21882WAT      O65887   7.197   8.643   6.733
21882WAT     H165888   7.137   8.623   6.810
21882WAT     H265889   7.275   8.581   6.734
21883WAT      O65890   8.415   2.283   3.206
21883WAT     H165891   8.415   2.334   3.293
21883WAT     H265892   8.385   2.344   3.133
21884WAT      O65893   1.889   3.623   1.682
21884WAT     H165894   1.916   3.718   1.671
21884WAT     H265895   1.961   3.563   1.647
21885WAT      O65896   0.272   5.140   7.534
21885WAT     H165897   0.329   5.220   7.558
21885WAT     H265898   0.221   5.111   7.615
21886WAT      O65899   1.345   0.786   4.166
21886WAT     H165900   1.358   0.717   4.096
21886WAT     H265901   1.415   0.857   4.156
21887WAT      O65902   6.800   2.029   4.480
21887WAT     H165903   6.808   2.024   4.380
21887WAT     H265904   6.737   1.960   4.512
21888WAT      O65905   2.868   3.448   5.499
21888WAT     H165906   2.931   3.444   5.577
21888WAT     H265907   2.844   3.355   5.472
21889WAT      O65908   5.626   0.518   8.329
21889WAT     H165909   5.561   0.443   8.319
21889WAT     H265910   5.692   0.515   8.253
21890WAT      O65911   4.564   9.791   5.739
21890WAT     H165912   4.540   9.758   5.830
21890WAT     H265913   4.529   9.884   5.727
21891WAT      O65914   6.394   0.495   9.886
21891WAT     H165915   6.383   0.395   9.887
21891WAT     H265916   6.330   0.535   9.820
21892WAT      O65917   3.432   9.539   6.552
21892WAT     H165918   3.517   9.487   6.554
21892WAT     H265919   3.357   9.481   6.582
21893WAT      O65920   2.346   9.160   6.326
21893WAT     H165921   2.287   9.106   6.386
21893WAT     H265922   2.377   9.103   6.250
21894WAT      O65923   4.530   2.666   5.740
21894WAT     H165924   4.485   2.648   5.652
21894WAT     H265925   4.627   2.640   5.734
21895WAT      O65926   7.907   9.183   2.864
21895WAT     H165927   7.988   9.124   2.851
21895WAT     H265928   7.936   9.278   2.870
21896WAT      O65929   7.275   6.850   9.006
21896WAT     H165930   7.203   6.919   9.004
21896WAT     H265931   7.262   6.791   9.086
21897WAT      O65932   4.189   5.691   5.603
21897WAT     H165933   4.172   5.709   5.506
21897WAT     H265934   4.267   5.747   5.634
21898WAT      O65935   1.692   7.097   6.660
21898WAT     H165936   1.592   7.099   6.670
21898WAT     H265937   1.725   7.189   6.639
21899WAT      O65938   9.572   9.488   6.378
21899WAT     H165939   9.637   9.421   6.413
21899WAT     H265940   9.612   9.535   6.300
21900WAT      O65941   2.819   9.794   4.252
21900WAT     H165942   2.889   9.858   4.285
21900WAT     H265943   2.863   9.719   4.203
21901WAT      O65944   1.297   1.449   7.080
21901WAT     H165945   1.355   1.504   7.020
21901WAT     H265946   1.330   1.355   7.082
21902WAT      O65947   3.706   1.159   2.373
21902WAT     H165948   3.683   1.256   2.368
21902WAT     H265949   3.675   1.122   2.461
21903WAT      O65950   6.473   9.456   1.341
21903WAT     H165951   6.468   9.542   1.392
21903WAT     H265952   6.470   9.475   1.243
21904WAT      O65953   5.478   6.327   8.801
21904WAT     H165954   5.554   6.387   8.777
21904WAT     H265955   5.513   6.243   8.843
21905WAT      O65956   2.795   2.499   0.469
21905WAT     H165957   2.799   2.558   0.550
21905WAT     H265958   2.749   2.548   0.395
21906WAT      O65959   1.516   6.432   9.847
21906WAT     H165960   1.615   6.444   9.846
21906WAT     H265961   1.491   6.362   9.913
21907WAT      O65962   2.596   7.004   5.092
21907WAT     H165963   2.654   7.007   5.011
21907WAT     H265964   2.514   7.059   5.077
21908WAT      O65965   5.311   1.425   4.900
21908WAT     H165966   5.400   1.453   4.936
21908WAT     H265967   5.272   1.354   4.959
21909WAT      O65968   6.222   5.938   8.722
21909WAT     H165969   6.295   5.870   8.724
21909WAT     H265970   6.213   5.974   8.630
21910WAT      O65971   6.671   4.187   1.954
21910WAT     H165972   6.765   4.208   1.928
21910WAT     H265973   6.612   4.191   1.873
21911WAT      O65974   3.074   2.714   8.920
21911WAT     H165975   3.146   2.708   8.989
21911WAT     H265976   3.083   2.638   8.856
21912WAT      O65977   2.966   3.251   0.893
21912WAT     H165978   3.035   3.318   0.866
21912WAT     H265979   2.944   3.193   0.814
21913WAT      O65980   8.137   7.780   5.604
21913WAT     H165981   8.110   7.828   5.687
21913WAT     H265982   8.116   7.683   5.613
21914WAT      O65983   0.572   4.125   1.670
21914WAT     H165984   0.635   4.203   1.669
21914WAT     H265985   0.478   4.157   1.656
21915WAT      O65986   4.383   6.896   5.081
21915WAT     H165987   4.478   6.883   5.110
21915WAT     H265988   4.322   6.873   5.157
21916WAT      O65989   6.935   2.084   1.494
21916WAT     H165990   6.979   2.094   1.405
21916WAT     H265991   6.916   1.987   1.511
21917WAT      O65992   6.514   4.229   8.406
21917WAT     H165993   6.509   4.129   8.409
21917WAT     H265994   6.555   4.257   8.319
21918WAT      O65995   9.089   8.533   6.751
21918WAT     H165996   9.107   8.512   6.847
21918WAT     H265997   9.104   8.451   6.695
21919WAT      O65998   0.660   3.761   5.173
21919WAT     H165999   0.707   3.743   5.087
21919WAT     H266000   0.671   3.682   5.234
21920WAT      O66001   4.239   7.178   8.481
21920WAT     H166002   4.298   7.249   8.520
21920WAT     H266003   4.147   7.215   8.469
21921WAT      O66004   4.471   9.499   3.453
21921WAT     H166005   4.514   9.563   3.517
21921WAT     H266006   4.536   9.474   3.382
21922WAT      O66007   7.239   4.556   7.155
21922WAT     H166008   7.186   4.622   7.103
21922WAT     H266009   7.198   4.543   7.245
21923WAT      O66010   8.778   0.489   2.516
21923WAT     H166011   8.833   0.474   2.434
21923WAT     H266012   8.807   0.573   2.561
21924WAT      O66013   5.802   1.130   3.456
21924WAT     H166014   5.899   1.118   3.479
21924WAT     H266015   5.790   1.212   3.400
21925WAT      O66016   3.422   0.344   5.824
21925WAT     H166017   3.428   0.245   5.832
21925WAT     H266018   3.513   0.383   5.814
21926WAT      O66019   5.650   7.509   0.053
21926WAT     H166020   5.615   7.555  -0.028
21926WAT     H266021   5.655   7.574   0.129
21927WAT      O66022   3.318   9.768   3.179
21927WAT     H166023   3.266   9.771   3.264
21927WAT     H266024   3.320   9.859   3.138
21928WAT      O66025   3.615   0.673   2.396
21928WAT     H166026   3.703   0.626   2.394
21928WAT     H266027   3.573   0.661   2.487
21929WAT      O66028   8.387   9.173   7.131
21929WAT     H166029   8.487   9.180   7.126
21929WAT     H266030   8.350   9.167   7.038
21930WAT      O66031   6.766   5.532   2.239
21930WAT     H166032   6.768   5.458   2.172
21930WAT     H266033   6.857   5.545   2.278
21931WAT      O66034   8.735   9.032   5.883
21931WAT     H166035   8.645   9.062   5.850
21931WAT     H266036   8.725   8.991   5.973
21932WAT      O66037   0.306   8.267   2.304
21932WAT     H166038   0.345   8.217   2.227
21932WAT     H266039   0.357   8.245   2.387
21933WAT      O66040   1.088   6.043   1.637
21933WAT     H166041   1.030   6.125   1.632
21933WAT     H266042   1.165   6.054   1.574
21934WAT      O66043   0.946   1.464   6.385
21934WAT     H166044   1.023   1.470   6.449
21934WAT     H266045   0.964   1.393   6.317
21935WAT      O66046   5.769   8.378   6.912
21935WAT     H166047   5.678   8.345   6.889
21935WAT     H266048   5.773   8.405   7.008
21936WAT      O66049   4.332   8.332   2.461
21936WAT     H166050   4.347   8.295   2.369
21936WAT     H266051   4.279   8.417   2.454
21937WAT      O66052   5.253   3.583   4.985
21937WAT     H166053   5.191   3.585   5.062
21937WAT     H266054   5.217   3.639   4.911
21938WAT      O66055   9.619   8.010   2.788
21938WAT     H166056   9.623   7.912   2.807
21938WAT     H266057   9.669   8.030   2.703
21939WAT      O66058   1.248   1.705   6.729
21939WAT     H166059   1.185   1.767   6.775
21939WAT     H266060   1.321   1.679   6.793
21940WAT      O66061   6.634   6.111   8.772
21940WAT     H166062   6.553   6.155   8.733
21940WAT     H266063   6.715   6.166   8.754
21941WAT      O66064   1.610   0.620   7.186
21941WAT     H166065   1.667   0.539   7.198
21941WAT     H266066   1.516   0.598   7.210
21942WAT      O66067   2.571   0.268   5.919
21942WAT     H166068   2.532   0.322   5.844
21942WAT     H266069   2.664   0.299   5.938
21943WAT      O66070   4.080   5.047   1.620
21943WAT     H166071   4.096   5.130   1.673
21943WAT     H266072   4.107   5.062   1.525
21944WAT      O66073   3.997   3.044   1.572
21944WAT     H166074   3.900   3.067   1.584
21944WAT     H266075   4.027   3.073   1.482
21945WAT      O66076   4.454   8.353   5.488
21945WAT     H166077   4.389   8.288   5.449
21945WAT     H266078   4.543   8.310   5.497
21946WAT      O66079   7.508   3.250   1.848
21946WAT     H166080   7.573   3.179   1.874
21946WAT     H266081   7.418   3.209   1.832
21947WAT      O66082   5.985   0.019   9.288
21947WAT     H166083   5.972   0.058   9.380
21947WAT     H266084   6.035  -0.067   9.296
21948WAT      O66085   2.703   7.637   5.699
21948WAT     H166086   2.613   7.621   5.659
21948WAT     H266087   2.722   7.565   5.766
21949WAT      O66088   7.647   6.644   5.623
21949WAT     H166089   7.684   6.624   5.532
21949WAT     H266090   7.554   6.609   5.629
21950WAT      O66091   9.096   2.872   4.780
21950WAT     H166092   9.133   2.784   4.808
21950WAT     H266093   9.006   2.860   4.739
21951WAT      O66094   3.648   4.777   6.623
21951WAT     H166095   3.628   4.871   6.596
21951WAT     H266096   3.747   4.762   6.619
21952WAT      O66097   0.326   3.372   0.207
21952WAT     H166098   0.296   3.465   0.187
21952WAT     H266099   0.309   3.313   0.128
21953WAT      O66100   8.475   9.260   5.782
21953WAT     H166101   8.404   9.328   5.760
21953WAT     H266102   8.565   9.297   5.758
21954WAT      O66103   4.806   7.009   2.968
21954WAT     H166104   4.796   6.939   2.897
21954WAT     H266105   4.819   7.098   2.925
21955WAT      O66106   3.654   9.797   0.427
21955WAT     H166107   3.702   9.723   0.473
21955WAT     H266108   3.650   9.777   0.329
21956WAT      O66109   4.814   5.624   3.965
21956WAT     H166110   4.819   5.723   3.957
21956WAT     H266111   4.722   5.598   3.997
21957WAT      O66112   2.294   7.288   4.337
21957WAT     H166113   2.351   7.343   4.397
21957WAT     H266114   2.201   7.284   4.374
21958WAT      O66115   8.974   8.314   2.590
21958WAT     H166116   8.978   8.334   2.688
21958WAT     H266117   8.968   8.400   2.539
21959WAT      O66118   2.863   6.872   9.692
21959WAT     H166119   2.774   6.906   9.664
21959WAT     H266120   2.921   6.859   9.611
21960WAT      O66121   7.626   7.011   4.237
21960WAT     H166122   7.629   7.022   4.336
21960WAT     H266123   7.651   6.917   4.214
21961WAT      O66124   8.673   7.112   1.883
21961WAT     H166125   8.727   7.040   1.927
21961WAT     H266126   8.733   7.170   1.828
21962WAT      O66127   4.935   6.267   4.991
21962WAT     H166128   4.891   6.299   5.075
21962WAT     H266129   4.937   6.340   4.924
21963WAT      O66130   9.808   7.803   8.335
21963WAT     H166131   9.727   7.798   8.393
21963WAT     H266132   9.825   7.714   8.293
21964WAT      O66133   8.251   6.683   2.019
21964WAT     H166134   8.274   6.713   1.927
21964WAT     H266135   8.225   6.586   2.017
21965WAT      O66136   8.413   6.026   2.926
21965WAT     H166137   8.321   6.047   2.960
21965WAT     H266138   8.426   6.070   2.837
21966WAT      O66139   8.069   4.012   8.817
21966WAT     H166140   8.104   3.966   8.735
21966WAT     H266141   8.045   4.106   8.795
21967WAT      O66142  -0.003   9.838   5.642
21967WAT     H166143   0.079   9.826   5.698
21967WAT     H266144  -0.015   9.935   5.621
21968WAT      O66145   1.901   0.290   1.467
21968WAT     H166146   1.924   0.370   1.411
21968WAT     H266147   1.954   0.211   1.437
21969WAT      O66148   2.906   6.576   8.834
21969WAT     H166149   2.863   6.652   8.883
21969WAT     H266150   2.930   6.504   8.899
21970WAT      O66151   1.721   4.373   2.012
21970WAT     H166152   1.641   4.432   2.005
21970WAT     H266153   1.692   4.277   2.002
21971WAT      O66154   2.181   1.249   3.814
21971WAT     H166155   2.219   1.339   3.839
21971WAT     H266156   2.094   1.262   3.767
21972WAT      O66157   9.556   4.983   4.178
21972WAT     H166158   9.531   4.973   4.082
21972WAT     H266159   9.550   4.894   4.224
21973WAT      O66160   8.847   4.301   6.291
21973WAT     H166161   8.822   4.393   6.320
21973WAT     H266162   8.770   4.260   6.242
21974WAT      O66163   8.877   6.451   0.735
21974WAT     H166164   8.784   6.413   0.736
21974WAT     H266165   8.937   6.389   0.684
21975WAT      O66166   4.517   6.466   1.562
21975WAT     H166167   4.514   6.386   1.622
21975WAT     H266168   4.500   6.439   1.468
21976WAT      O66169   4.281   3.651   6.104
21976WAT     H166170   4.187   3.615   6.098
21976WAT     H266171   4.314   3.673   6.012
21977WAT      O66172   1.539   8.427   0.098
21977WAT     H166173   1.629   8.463   0.076
21977WAT     H266174   1.522   8.436   0.196
21978WAT      O66175   9.039   8.407   2.016
21978WAT     H166176   9.023   8.397   2.115
21978WAT     H266177   9.064   8.502   1.997
21979WAT      O66178   8.331   8.943   8.632
21979WAT     H166179   8.298   8.990   8.713
21979WAT     H266180   8.426   8.968   8.615
21980WAT      O66181   4.786   6.931   1.563
21980WAT     H166182   4.742   7.021   1.560
21980WAT     H266183   4.876   6.940   1.606
21981WAT      O66184   7.605   5.134   0.896
21981WAT     H166185   7.658   5.187   0.962
21981WAT     H266186   7.619   5.172   0.804
21982WAT      O66187   1.228   4.986   2.727
21982WAT     H166188   1.215   5.072   2.777
21982WAT     H266189   1.238   5.005   2.629
21983WAT      O66190   0.402   2.853   0.670
21983WAT     H166191   0.351   2.823   0.750
21983WAT     H266192   0.449   2.939   0.689
21984WAT      O66193   8.767   9.425   9.788
21984WAT     H166194   8.852   9.453   9.743
21984WAT     H266195   8.780   9.335   9.831
21985WAT      O66196   3.937   2.687   2.697
21985WAT     H166197   3.968   2.621   2.766
21985WAT     H266198   4.013   2.749   2.676
21986WAT      O66199   3.076   0.076   8.153
21986WAT     H166200   3.041   0.073   8.059
21986WAT     H266201   3.171   0.045   8.154
21987WAT      O66202   4.823   0.204   2.677
21987WAT     H166203   4.877   0.288   2.674
21987WAT     H266204   4.784   0.186   2.587
21988WAT      O66205   4.218   9.019   2.078
21988WAT     H166206   4.232   9.040   1.981
21988WAT     H266207   4.273   8.940   2.103
21989WAT      O66208   2.981   2.888   8.717
21989WAT     H166209   3.049   2.960   8.703
21989WAT     H266210   3.018   2.820   8.781
21990WAT      O66211   3.594   0.232   5.472
21990WAT     H166212   3.537   0.314   5.465
21990WAT     H266213   3.646   0.220   5.388
21991WAT      O66214   3.034   8.585   2.870
21991WAT     H166215   2.999   8.661   2.814
21991WAT     H266216   3.130   8.568   2.846
21992WAT      O66217   0.860   4.307   9.843
21992WAT     H166218   0.890   4.262   9.760
21992WAT     H266219   0.835   4.239   9.912
21993WAT      O66220   7.489   6.597   7.846
21993WAT     H166221   7.417   6.663   7.869
21993WAT     H266222   7.531   6.563   7.930
21994WAT      O66223   5.910   1.740   2.925
21994WAT     H166224   5.838   1.802   2.893
21994WAT     H266225   5.996   1.791   2.936
21995WAT      O66226   6.011   7.094   0.429
21995WAT     H166227   6.066   7.172   0.458
21995WAT     H266228   6.071   7.024   0.389
21996WAT      O66229   2.343   9.014   7.334
21996WAT     H166230   2.258   9.046   7.292
21996WAT     H266231   2.334   9.017   7.433
21997WAT      O66232   7.629   5.114   7.346
21997WAT     H166233   7.706   5.162   7.303
21997WAT     H266234   7.603   5.163   7.429
21998WAT      O66235   3.044   0.624   6.925
21998WAT     H166236   3.055   0.685   6.847
21998WAT     H266237   3.034   0.530   6.892
21999WAT      O66238   9.458   2.941   5.880
21999WAT     H166239   9.385   2.882   5.845
21999WAT     H266240   9.543   2.921   5.831
22000WAT      O66241   1.530   0.620   6.828
22000WAT     H166242   1.475   0.641   6.909
22000WAT     H266243   1.612   0.677   6.828
22001WAT      O66244   6.448   1.800   8.769
22001WAT     H166245   6.541   1.782   8.801
22001WAT     H266246   6.411   1.879   8.817
22002WAT      O66247   9.467   1.937   9.845
22002WAT     H166248   9.388   1.969   9.792
22002WAT     H266249   9.497   1.848   9.810
22003WAT      O66250   1.309   3.576   2.614
22003WAT     H166251   1.268   3.592   2.704
22003WAT     H266252   1.289   3.654   2.554
22004WAT      O66253   7.026   0.999   5.158
22004WAT     H166254   7.000   0.902   5.151
22004WAT     H266255   6.947   1.056   5.138
22005WAT      O66256   8.377   5.716   2.462
22005WAT     H166257   8.294   5.674   2.426
22005WAT     H266258   8.385   5.698   2.560
22006WAT      O66259   7.411   1.784   5.914
22006WAT     H166260   7.425   1.801   6.012
22006WAT     H266261   7.499   1.794   5.867
22007WAT      O66262   3.549   2.584   5.692
22007WAT     H166263   3.554   2.485   5.707
22007WAT     H266264   3.493   2.602   5.611
22008WAT      O66265   1.043   4.627   4.564
22008WAT     H166266   1.010   4.598   4.474
22008WAT     H266267   1.142   4.609   4.571
22009WAT      O66268   7.081   8.392   4.277
22009WAT     H166269   7.159   8.330   4.283
22009WAT     H266270   7.098   8.472   4.334
22010WAT      O66271   6.412   2.789   3.780
22010WAT     H166272   6.493   2.743   3.744
22010WAT     H266273   6.336   2.724   3.782
22011WAT      O66274   8.631   5.506   4.944
22011WAT     H166275   8.592   5.453   5.019
22011WAT     H266276   8.571   5.499   4.864
22012WAT      O66277   1.204   0.011   0.740
22012WAT     H166278   1.225  -0.086   0.735
22012WAT     H266279   1.207   0.051   0.649
22013WAT      O66280   6.027   1.831   5.334
22013WAT     H166281   5.988   1.789   5.416
22013WAT     H266282   6.060   1.923   5.356
22014WAT      O66283   8.402   7.059   1.238
22014WAT     H166284   8.417   7.011   1.152
22014WAT     H266285   8.325   7.017   1.286
22015WAT      O66286   3.369   9.702   0.399
22015WAT     H166287   3.352   9.668   0.306
22015WAT     H266288   3.464   9.735   0.405
22016WAT      O66289   7.197   1.947   4.094
22016WAT     H166290   7.215   1.849   4.105
22016WAT     H266291   7.104   1.960   4.058
22017WAT      O66292   2.859   9.798   9.166
22017WAT     H166293   2.855   9.756   9.075
22017WAT     H266294   2.778   9.773   9.218
22018WAT      O66295   2.717   9.066   3.055
22018WAT     H166296   2.768   8.981   3.045
22018WAT     H266297   2.634   9.050   3.108
22019WAT      O66298   2.205   3.711   1.981
22019WAT     H166299   2.242   3.749   1.896
22019WAT     H266300   2.198   3.612   1.973
22020WAT      O66301   9.718   1.782   0.515
22020WAT     H166302   9.775   1.792   0.596
22020WAT     H266303   9.649   1.711   0.531
22021WAT      O66304   8.641   9.259   0.476
22021WAT     H166305   8.633   9.159   0.472
22021WAT     H266306   8.696   9.290   0.399
22022WAT      O66307   9.837   6.388   2.217
22022WAT     H166308   9.863   6.291   2.214
22022WAT     H266309   9.746   6.397   2.256
22023WAT      O66310   6.069   1.559   2.576
22023WAT     H166311   5.997   1.494   2.552
22023WAT     H266312   6.146   1.510   2.618
22024WAT      O66313   5.401   2.617   2.057
22024WAT     H166314   5.376   2.710   2.085
22024WAT     H266315   5.361   2.551   2.121
22025WAT      O66316   0.276   2.526   2.352
22025WAT     H166317   0.272   2.537   2.451
22025WAT     H266318   0.261   2.615   2.308
22026WAT      O66319   3.925   3.966   6.005
22026WAT     H166320   3.854   3.965   5.935
22026WAT     H266321   3.883   3.956   6.096
22027WAT      O66322   7.549   8.597   7.327
22027WAT     H166323   7.579   8.512   7.284
22027WAT     H266324   7.622   8.665   7.321
22028WAT      O66325   5.601   9.347   3.705
22028WAT     H166326   5.592   9.250   3.682
22028WAT     H266327   5.684   9.361   3.760
22029WAT      O66328   6.258   0.101   9.178
22029WAT     H166329   6.176   0.100   9.235
22029WAT     H266330   6.243   0.160   9.099
22030WAT      O66331   5.573   6.659   8.568
22030WAT     H166332   5.662   6.620   8.592
22030WAT     H266333   5.517   6.588   8.524
22031WAT      O66334   1.264   9.629   4.323
22031WAT     H166335   1.223   9.633   4.414
22031WAT     H266336   1.201   9.584   4.260
22032WAT      O66337   7.163   3.427   7.614
22032WAT     H166338   7.230   3.499   7.595
22032WAT     H266339   7.208   3.338   7.616
22033WAT      O66340   1.929   1.380   3.732
22033WAT     H166341   1.941   1.323   3.651
22033WAT     H266342   1.888   1.467   3.706
22034WAT      O66343   0.768   1.398   5.016
22034WAT     H166344   0.837   1.374   5.086
22034WAT     H266345   0.810   1.393   4.926
22035WAT      O66346   1.280   5.331   1.965
22035WAT     H166347   1.232   5.408   1.925
22035WAT     H266348   1.219   5.281   2.027
22036WAT      O66349   7.677   7.810   9.764
22036WAT     H166350   7.694   7.831   9.668
22036WAT     H266351   7.719   7.722   9.787
22037WAT      O66352   1.940   5.499   0.048
22037WAT     H166353   1.889   5.552  -0.021
22037WAT     H266354   2.038   5.505   0.029
22038WAT      O66355   4.647   8.273   4.929
22038WAT     H166356   4.682   8.222   4.851
22038WAT     H266357   4.705   8.256   5.009
22039WAT      O66358   3.455   9.222   6.989
22039WAT     H166359   3.477   9.285   7.063
22039WAT     H266360   3.535   9.164   6.970
22040WAT      O66361   2.368   1.900   4.591
22040WAT     H166362   2.409   1.882   4.681
22040WAT     H266363   2.330   1.992   4.589
22041WAT      O66364   0.087   2.871   8.546
22041WAT     H166365   0.128   2.961   8.539
22041WAT     H266366   0.037   2.864   8.633
22042WAT      O66367   3.757   6.393   1.729
22042WAT     H166368   3.771   6.295   1.737
22042WAT     H266369   3.712   6.428   1.811
22043WAT      O66370   5.053   5.456   8.581
22043WAT     H166371   4.967   5.455   8.631
22043WAT     H266372   5.079   5.362   8.558
22044WAT      O66373   4.935   6.217   3.574
22044WAT     H166374   4.936   6.306   3.529
22044WAT     H266375   4.876   6.155   3.523
22045WAT      O66376   3.879   9.142   4.014
22045WAT     H166377   3.977   9.140   3.994
22045WAT     H266378   3.861   9.088   4.096
22046WAT      O66379   0.677   6.005   8.527
22046WAT     H166380   0.658   5.907   8.536
22046WAT     H266381   0.601   6.058   8.564
22047WAT      O66382   0.874   4.407   9.455
22047WAT     H166383   0.799   4.347   9.482
22047WAT     H266384   0.890   4.474   9.527
22048WAT      O66385   3.564   6.377   6.470
22048WAT     H166386   3.570   6.310   6.397
22048WAT     H266387   3.581   6.468   6.433
22049WAT      O66388   7.515   5.435   2.738
22049WAT     H166389   7.607   5.474   2.752
22049WAT     H266390   7.447   5.500   2.773
22050WAT      O66391   8.356   8.198   7.377
22050WAT     H166392   8.322   8.282   7.420
22050WAT     H266393   8.391   8.137   7.448
22051WAT      O66394   5.270   2.429   2.225
22051WAT     H166395   5.300   2.406   2.317
22051WAT     H266396   5.174   2.457   2.227
22052WAT      O66397   9.183   3.288   3.014
22052WAT     H166398   9.260   3.292   2.951
22052WAT     H266399   9.126   3.209   2.991
22053WAT      O66400   7.495   2.770   7.327
22053WAT     H166401   7.424   2.741   7.391
22053WAT     H266402   7.483   2.722   7.240
22054WAT      O66403   8.507   8.454   0.922
22054WAT     H166404   8.598   8.493   0.913
22054WAT     H266405   8.445   8.522   0.960
22055WAT      O66406   5.008   3.906   1.624
22055WAT     H166407   5.059   3.969   1.565
22055WAT     H266408   4.917   3.891   1.585
22056WAT      O66409   0.043   1.889   3.963
22056WAT     H166410   0.009   1.819   4.025
22056WAT     H266411  -0.031   1.918   3.902
22057WAT      O66412   0.492   4.840   5.331
22057WAT     H166413   0.553   4.906   5.375
22057WAT     H266414   0.517   4.747   5.359
22058WAT      O66415   1.541   8.047   6.374
22058WAT     H166416   1.575   8.093   6.293
22058WAT     H266417   1.468   7.983   6.349
22059WAT      O66418   2.986   2.944   1.984
22059WAT     H166419   3.009   2.952   2.081
22059WAT     H266420   2.959   3.033   1.948
22060WAT      O66421   0.693   6.204   5.139
22060WAT     H166422   0.786   6.203   5.103
22060WAT     H266423   0.680   6.126   5.200
22061WAT      O66424   4.551   8.788   5.636
22061WAT     H166425   4.526   8.798   5.733
22061WAT     H266426   4.587   8.696   5.621
22062WAT      O66427   1.221   0.752   7.622
22062WAT     H166428   1.271   0.836   7.640
22062WAT     H266429   1.267   0.701   7.549
22063WAT      O66430   0.933   1.217   0.217
22063WAT     H166431   0.956   1.172   0.303
22063WAT     H266432   0.852   1.275   0.230
22064WAT      O66433   1.942   4.229   7.592
22064WAT     H166434   2.033   4.251   7.555
22064WAT     H266435   1.886   4.311   7.594
22065WAT      O66436   7.409   5.311   8.894
22065WAT     H166437   7.340   5.380   8.917
22065WAT     H266438   7.471   5.347   8.825
22066WAT      O66439   7.704   5.948   2.071
22066WAT     H166440   7.723   6.036   2.026
22066WAT     H266441   7.781   5.886   2.055
22067WAT      O66442   4.874   6.993   2.412
22067WAT     H166443   4.920   7.077   2.383
22067WAT     H266444   4.836   7.005   2.503
22068WAT      O66445   8.513   2.995   2.937
22068WAT     H166446   8.495   3.007   2.839
22068WAT     H266447   8.427   3.006   2.988
22069WAT      O66448   7.607   5.190   5.492
22069WAT     H166449   7.536   5.127   5.523
22069WAT     H266450   7.576   5.284   5.504
22070WAT      O66451   2.504   5.041   7.488
22070WAT     H166452   2.528   5.134   7.514
22070WAT     H266453   2.521   4.979   7.565
22071WAT      O66454   7.324   3.875   3.067
22071WAT     H166455   7.277   3.847   3.151
22071WAT     H266456   7.263   3.932   3.012
22072WAT      O66457   9.890   0.045   3.640
22072WAT     H166458   9.886  -0.039   3.693
22072WAT     H266459   9.866   0.123   3.698
22073WAT      O66460   8.575   0.773   3.644
22073WAT     H166461   8.511   0.704   3.610
22073WAT     H266462   8.647   0.788   3.576
22074WAT      O66463   2.873   1.132   4.874
22074WAT     H166464   2.860   1.191   4.794
22074WAT     H266465   2.852   1.184   4.957
22075WAT      O66466   5.330   1.936   6.949
22075WAT     H166467   5.361   2.031   6.943
22075WAT     H266468   5.399   1.876   6.909
22076WAT      O66469   0.205   2.807   5.206
22076WAT     H166470   0.135   2.878   5.215
22076WAT     H266471   0.163   2.717   5.222
22077WAT      O66472   4.841   8.458   8.259
22077WAT     H166473   4.896   8.540   8.246
22077WAT     H266474   4.783   8.469   8.340
22078WAT      O66475   0.180   3.882   7.598
22078WAT     H166476   0.188   3.958   7.534
22078WAT     H266477   0.114   3.905   7.670
22079WAT      O66478   3.662   1.054   8.316
22079WAT     H166479   3.635   1.035   8.222
22079WAT     H266480   3.628   0.981   8.376
22080WAT      O66481   7.914   6.318   8.171
22080WAT     H166482   7.865   6.280   8.093
22080WAT     H266483   7.878   6.409   8.193
22081WAT      O66484   9.553   5.192   0.344
22081WAT     H166485   9.507   5.187   0.432
22081WAT     H266486   9.622   5.265   0.347
22082WAT      O66487   6.030   0.587   9.312
22082WAT     H166488   5.943   0.605   9.358
22082WAT     H266489   6.084   0.671   9.309
22083WAT      O66490   5.779   5.569   9.176
22083WAT     H166491   5.857   5.554   9.236
22083WAT     H266492   5.750   5.664   9.180
22084WAT      O66493   5.971   5.265   2.437
22084WAT     H166494   5.929   5.354   2.416
22084WAT     H266495   5.962   5.246   2.534
22085WAT      O66496   1.595   2.065   7.629
22085WAT     H166497   1.666   2.038   7.695
22085WAT     H266498   1.634   2.132   7.565
22086WAT      O66499   5.073   2.943   6.946
22086WAT     H166500   5.066   2.955   6.847
22086WAT     H266501   4.982   2.933   6.986
22087WAT      O66502   3.004   7.622   6.398
22087WAT     H166503   3.027   7.720   6.394
22087WAT     H266504   2.919   7.610   6.449
22088WAT      O66505   9.331   9.085   9.695
22088WAT     H166506   9.346   9.041   9.784
22088WAT     H266507   9.418   9.115   9.657
22089WAT      O66508   5.206   7.949   5.796
22089WAT     H166509   5.156   7.888   5.858
22089WAT     H266510   5.141   7.997   5.737
22090WAT      O66511   8.431   1.829   2.488
22090WAT     H166512   8.380   1.824   2.402
22090WAT     H266513   8.436   1.738   2.528
22091WAT      O66514   5.548   9.591   2.811
22091WAT     H166515   5.544   9.688   2.789
22091WAT     H266516   5.629   9.572   2.867
22092WAT      O66517   4.760   6.646   6.471
22092WAT     H166518   4.714   6.644   6.560
22092WAT     H266519   4.694   6.623   6.400
22093WAT      O66520   6.705   2.350   2.466
22093WAT     H166521   6.702   2.437   2.516
22093WAT     H266522   6.741   2.366   2.374
22094WAT      O66523   4.029   1.298   1.532
22094WAT     H166524   3.962   1.229   1.560
22094WAT     H266525   4.111   1.253   1.497
22095WAT      O66526   7.185   2.286   3.492
22095WAT     H166527   7.210   2.224   3.566
22095WAT     H266528   7.135   2.364   3.529
22096WAT      O66529   8.093   8.090   3.271
22096WAT     H166530   8.005   8.096   3.223
22096WAT     H266531   8.114   8.179   3.312
22097WAT      O66532   7.926   8.065   3.064
22097WAT     H166533   7.874   8.102   2.987
22097WAT     H266534   7.966   7.977   3.038
22098WAT      O66535   0.623   0.896   1.278
22098WAT     H166536   0.681   0.972   1.307
22098WAT     H266537   0.532   0.931   1.256
22099WAT      O66538   9.406   2.829   3.554
22099WAT     H166539   9.401   2.925   3.581
22099WAT     H266540   9.339   2.811   3.482
22100WAT      O66541   5.298   1.281   4.037
22100WAT     H166542   5.240   1.201   4.023
22100WAT     H266543   5.332   1.282   4.131
22101WAT      O66544   9.543   6.183   2.867
22101WAT     H166545   9.444   6.173   2.858
22101WAT     H266546   9.586   6.093   2.863
22102WAT      O66547   7.102   9.239   0.165
22102WAT     H166548   7.053   9.313   0.117
22102WAT     H266549   7.133   9.272   0.254
22103WAT      O66550   3.121   0.948   8.070
22103WAT     H166551   3.055   0.932   7.997
22103WAT     H266552   3.087   0.909   8.155
22104WAT      O66553   5.747   6.152   0.875
22104WAT     H166554   5.825   6.133   0.934
22104WAT     H266555   5.709   6.066   0.841
22105WAT      O66556   0.396   1.154   9.353
22105WAT     H166557   0.305   1.149   9.312
22105WAT     H266558   0.393   1.207   9.437
22106WAT      O66559   9.837   6.347   6.080
22106WAT     H166560   9.783   6.288   6.139
22106WAT     H266561   9.807   6.441   6.090
22107WAT      O66562   9.314   1.543   2.488
22107WAT     H166563   9.353   1.593   2.565
22107WAT     H266564   9.361   1.455   2.478
22108WAT      O66565   8.351   3.984   1.320
22108WAT     H166566   8.373   3.976   1.417
22108WAT     H266567   8.419   4.042   1.275
22109WAT      O66568   0.427   3.172   2.549
22109WAT     H166569   0.333   3.203   2.532
22109WAT     H266570   0.432   3.128   2.639
22110WAT      O66571   5.115   5.035   2.045
22110WAT     H166572   5.042   5.090   2.086
22110WAT     H266573   5.203   5.080   2.060
22111WAT      O66574   8.117   8.254   3.755
22111WAT     H166575   8.136   8.335   3.700
22111WAT     H266576   8.019   8.245   3.769
22112WAT      O66577   8.975   4.758   9.800
22112WAT     H166578   8.955   4.803   9.713
22112WAT     H266579   9.015   4.668   9.783
22113WAT      O66580   2.321   3.743   7.517
22113WAT     H166581   2.354   3.801   7.442
22113WAT     H266582   2.397   3.691   7.556
22114WAT      O66583   6.629   8.448   1.732
22114WAT     H166584   6.680   8.428   1.648
22114WAT     H266585   6.550   8.386   1.737
22115WAT      O66586   9.759   2.195   4.852
22115WAT     H166587   9.718   2.164   4.938
22115WAT     H266588   9.770   2.116   4.791
22116WAT      O66589   6.838   8.345   5.576
22116WAT     H166590   6.759   8.296   5.540
22116WAT     H266591   6.815   8.442   5.585
22117WAT      O66592   7.852   1.068   1.736
22117WAT     H166593   7.770   1.034   1.690
22117WAT     H266594   7.883   1.153   1.692
22118WAT      O66595   6.961   9.194   4.371
22118WAT     H166596   6.984   9.253   4.448
22118WAT     H266597   6.862   9.176   4.371
22119WAT      O66598   8.633   6.296   4.982
22119WAT     H166599   8.565   6.318   5.052
22119WAT     H266600   8.612   6.347   4.898
22120WAT      O66601   3.348   2.586   3.459
22120WAT     H166602   3.314   2.545   3.544
22120WAT     H266603   3.444   2.562   3.447
22121WAT      O66604   0.555   7.864   7.491
22121WAT     H166605   0.525   7.795   7.425
22121WAT     H266606   0.499   7.859   7.573
22122WAT      O66607   9.615   1.092   7.339
22122WAT     H166608   9.595   1.043   7.255
22122WAT     H266609   9.704   1.062   7.375
22123WAT      O66610   5.654   6.861   2.248
22123WAT     H166611   5.627   6.855   2.344
22123WAT     H266612   5.710   6.782   2.224
22124WAT      O66613   4.259   1.709   1.986
22124WAT     H166614   4.288   1.664   2.071
22124WAT     H266615   4.321   1.684   1.912
22125WAT      O66616   9.415   0.741   3.319
22125WAT     H166617   9.440   0.710   3.411
22125WAT     H266618   9.317   0.759   3.316
22126WAT      O66619   8.147   5.621   7.047
22126WAT     H166620   8.180   5.672   7.127
22126WAT     H266621   8.095   5.683   6.988
22127WAT      O66622   4.610   7.303   3.044
22127WAT     H166623   4.677   7.281   2.973
22127WAT     H266624   4.550   7.225   3.059
22128WAT      O66625   8.098   1.626   8.436
22128WAT     H166626   8.019   1.654   8.381
22128WAT     H266627   8.083   1.652   8.531
22129WAT      O66628   1.619   0.145   5.077
22129WAT     H166629   1.609   0.156   5.176
22129WAT     H266630   1.716   0.145   5.054
22130WAT      O66631   8.514   6.656   2.088
22130WAT     H166632   8.420   6.675   2.060
22130WAT     H266633   8.577   6.679   2.013
22131WAT      O66634   0.094   5.494   4.479
22131WAT     H166635   0.054   5.565   4.420
22131WAT     H266636   0.048   5.495   4.568
22132WAT      O66637   9.433   5.527   1.685
22132WAT     H166638   9.389   5.585   1.753
22132WAT     H266639   9.393   5.435   1.688
22133WAT      O66640   1.937   4.738   3.954
22133WAT     H166641   1.994   4.659   3.979
22133WAT     H266642   1.908   4.786   4.036
22134WAT      O66643   2.038   4.167   2.326
22134WAT     H166644   2.107   4.133   2.390
22134WAT     H266645   2.078   4.238   2.269
22135WAT      O66646   2.279   8.734   7.882
22135WAT     H166647   2.193   8.773   7.916
22135WAT     H266648   2.267   8.637   7.863
22136WAT      O66649   6.736   4.598   4.300
22136WAT     H166650   6.675   4.536   4.350
22136WAT     H266651   6.831   4.579   4.326
22137WAT      O66652   3.716   4.871   7.901
22137WAT     H166653   3.775   4.931   7.955
22137WAT     H266654   3.621   4.897   7.915
22138WAT      O66655   3.959   6.838   1.995
22138WAT     H166656   3.880   6.864   1.940
22138WAT     H266657   3.965   6.738   1.998
22139WAT      O66658   1.329   4.009   6.765
22139WAT     H166659   1.392   4.077   6.730
22139WAT     H266660   1.351   3.988   6.860
22140WAT      O66661   3.089   8.941   5.209
22140WAT     H166662   3.080   9.022   5.151
22140WAT     H266663   2.999   8.899   5.221
22141WAT      O66664   0.484   0.147   1.233
22141WAT     H166665   0.570   0.181   1.196
22141WAT     H266666   0.503   0.076   1.301
22142WAT      O66667   2.529   1.191   5.715
22142WAT     H166668   2.484   1.124   5.774
22142WAT     H266669   2.504   1.283   5.743
22143WAT      O66670   1.252   5.546   8.333
22143WAT     H166671   1.244   5.620   8.266
22143WAT     H266672   1.320   5.570   8.402
22144WAT      O66673   3.556   9.407   6.207
22144WAT     H166674   3.483   9.423   6.273
22144WAT     H266675   3.583   9.493   6.165
22145WAT      O66676   7.951   0.868   5.907
22145WAT     H166677   7.853   0.867   5.888
22145WAT     H266678   7.971   0.804   5.981
22146WAT      O66679   6.521   6.595   2.746
22146WAT     H166680   6.595   6.535   2.776
22146WAT     H266681   6.556   6.687   2.730
22147WAT      O66682   8.491   7.518   6.522
22147WAT     H166683   8.444   7.600   6.490
22147WAT     H266684   8.487   7.515   6.622
22148WAT      O66685   3.000   7.643   4.161
22148WAT     H166686   2.998   7.731   4.208
22148WAT     H266687   3.015   7.658   4.064
22149WAT      O66688   9.075   8.670   7.686
22149WAT     H166689   9.007   8.601   7.659
22149WAT     H266690   9.104   8.653   7.780
22150WAT      O66691   6.388   6.368   7.367
22150WAT     H166692   6.301   6.403   7.401
22150WAT     H266693   6.428   6.306   7.434
22151WAT      O66694   1.950   0.652   3.828
22151WAT     H166695   2.042   0.625   3.855
22151WAT     H266696   1.932   0.619   3.735
22152WAT      O66697   8.259   6.931   3.578
22152WAT     H166698   8.237   6.969   3.668
22152WAT     H266699   8.237   6.998   3.507
22153WAT      O66700   7.810   9.197   0.104
22153WAT     H166701   7.893   9.160   0.063
22153WAT     H266702   7.762   9.253   0.038
22154WAT      O66703   8.533   0.431   6.470
22154WAT     H166704   8.444   0.441   6.515
22154WAT     H266705   8.525   0.460   6.375
22155WAT      O66706   0.685   6.838   3.992
22155WAT     H166707   0.682   6.877   4.084
22155WAT     H266708   0.776   6.800   3.975
22156WAT      O66709   2.885   1.348   8.781
22156WAT     H166710   2.932   1.353   8.693
22156WAT     H266711   2.944   1.387   8.852
22157WAT      O66712   9.643   3.466   7.662
22157WAT     H166713   9.601   3.463   7.571
22157WAT     H266714   9.710   3.393   7.670
22158WAT      O66715   6.482   2.196   7.605
22158WAT     H166716   6.581   2.207   7.596
22158WAT     H266717   6.441   2.187   7.515
22159WAT      O66718   9.637   5.301   3.218
22159WAT     H166719   9.603   5.226   3.275
22159WAT     H266720   9.718   5.270   3.168
22160WAT      O66721   5.802   8.822   6.401
22160WAT     H166722   5.859   8.761   6.455
22160WAT     H266723   5.845   8.839   6.312
22161WAT      O66724   7.652   4.651   8.609
22161WAT     H166725   7.641   4.750   8.603
22161WAT     H266726   7.739   4.625   8.567
22162WAT      O66727   6.414   3.481   0.709
22162WAT     H166728   6.427   3.383   0.715
22162WAT     H266729   6.480   3.520   0.645
22163WAT      O66730   4.636   4.691   7.946
22163WAT     H166731   4.594   4.629   8.013
22163WAT     H266732   4.692   4.639   7.882
22164WAT      O66733   6.573   4.409   4.356
22164WAT     H166734   6.473   4.398   4.359
22164WAT     H266735   6.614   4.360   4.432
22165WAT      O66736   2.976   1.621   9.182
22165WAT     H166737   3.035   1.617   9.263
22165WAT     H266738   2.893   1.673   9.204
22166WAT      O66739   1.186   1.646   0.528
22166WAT     H166740   1.237   1.673   0.610
22166WAT     H266741   1.094   1.615   0.554
22167WAT      O66742   6.273   4.663   3.463
22167WAT     H166743   6.298   4.760   3.465
22167WAT     H266744   6.288   4.626   3.372
22168WAT      O66745   0.938   4.608   0.804
22168WAT     H166746   0.865   4.641   0.744
22168WAT     H266747   0.905   4.531   0.859
22169WAT      O66748   4.751   3.883   1.511
22169WAT     H166749   4.667   3.886   1.564
22169WAT     H266750   4.739   3.820   1.434
22170WAT      O66751   1.657   5.627   8.134
22170WAT     H166752   1.611   5.550   8.090
22170WAT     H266753   1.702   5.683   8.065
22171WAT      O66754   9.889   7.041   5.534
22171WAT     H166755   9.793   7.031   5.560
22171WAT     H266756   9.924   7.128   5.569
22172WAT      O66757   2.445   6.901   1.060
22172WAT     H166758   2.439   6.935   0.966
22172WAT     H266759   2.385   6.955   1.119
22173WAT      O66760   1.433   3.571   8.482
22173WAT     H166761   1.514   3.518   8.507
22173WAT     H266762   1.444   3.665   8.514
22174WAT      O66763   3.810   8.399   1.302
22174WAT     H166764   3.824   8.319   1.359
22174WAT     H266765   3.833   8.377   1.207
22175WAT      O66766   5.213   6.863   0.564
22175WAT     H166767   5.285   6.794   0.553
22175WAT     H266768   5.125   6.825   0.534
22176WAT      O66769   9.043   1.556   6.746
22176WAT     H166770   9.051   1.497   6.666
22176WAT     H266771   9.077   1.507   6.827
22177WAT      O66772   1.227   2.498   6.310
22177WAT     H166773   1.280   2.419   6.276
22177WAT     H266774   1.131   2.471   6.321
22178WAT      O66775   3.153   1.920   0.548
22178WAT     H166776   3.250   1.939   0.531
22178WAT     H266777   3.134   1.823   0.530
22179WAT      O66778   9.244   7.877   7.392
22179WAT     H166779   9.195   7.801   7.435
22179WAT     H266780   9.189   7.914   7.317
22180WAT      O66781   0.868   2.523   7.989
22180WAT     H166782   0.867   2.545   7.891
22180WAT     H266783   0.897   2.428   8.001
22181WAT      O66784   1.455   2.925   6.444
22181WAT     H166785   1.397   2.858   6.398
22181WAT     H266786   1.448   2.913   6.543
22182WAT      O66787   4.348   9.616   5.657
22182WAT     H166788   4.298   9.627   5.743
22182WAT     H266789   4.444   9.640   5.671
22183WAT      O66790   7.654   8.027   0.135
22183WAT     H166791   7.589   8.003   0.062
22183WAT     H266792   7.687   8.120   0.119
22184WAT      O66793   2.060   3.020   7.969
22184WAT     H166794   2.008   3.105   7.965
22184WAT     H266795   2.054   2.981   8.061
22185WAT      O66796   7.331   8.350   5.927
22185WAT     H166797   7.314   8.358   6.025
22185WAT     H266798   7.425   8.380   5.907
22186WAT      O66799   4.307   7.222   5.228
22186WAT     H166800   4.227   7.214   5.168
22186WAT     H266801   4.389   7.240   5.172
22187WAT      O66802   5.303   1.120   0.752
22187WAT     H166803   5.374   1.064   0.796
22187WAT     H266804   5.344   1.205   0.719
22188WAT      O66805   3.824   8.256   5.090
22188WAT     H166806   3.828   8.300   5.180
22188WAT     H266807   3.884   8.175   5.090
22189WAT      O66808   1.502   6.014   9.643
22189WAT     H166809   1.415   6.063   9.647
22189WAT     H266810   1.524   5.993   9.548
22190WAT      O66811   0.919   5.907   6.322
22190WAT     H166812   0.890   5.813   6.338
22190WAT     H266813   0.995   5.929   6.384
22191WAT      O66814   2.363   0.592   3.210
22191WAT     H166815   2.442   0.634   3.164
22191WAT     H266816   2.283   0.599   3.150
22192WAT      O66817   3.200   8.698   6.279
22192WAT     H166818   3.155   8.678   6.367
22192WAT     H266819   3.277   8.636   6.267
22193WAT      O66820   2.010   1.923   6.520
22193WAT     H166821   2.055   2.002   6.478
22193WAT     H266822   2.021   1.927   6.619
22194WAT      O66823   7.214   7.933   5.077
22194WAT     H166824   7.239   7.910   4.983
22194WAT     H266825   7.295   7.958   5.128
22195WAT      O66826   4.110   6.023   3.832
22195WAT     H166827   4.188   6.083   3.818
22195WAT     H266828   4.107   5.994   3.928
22196WAT      O66829   9.163   3.682   8.428
22196WAT     H166830   9.199   3.670   8.335
22196WAT     H266831   9.192   3.771   8.463
22197WAT      O66832   3.926   0.551   0.246
22197WAT     H166833   3.889   0.482   0.308
22197WAT     H266834   3.860   0.625   0.235
22198WAT      O66835   1.321   2.264   8.255
22198WAT     H166836   1.395   2.198   8.253
22198WAT     H266837   1.315   2.305   8.346
22199WAT      O66838   5.063   5.736   6.838
22199WAT     H166839   4.994   5.688   6.892
22199WAT     H266840   5.026   5.824   6.808
22200WAT      O66841   7.036   9.783   1.404
22200WAT     H166842   6.950   9.769   1.355
22200WAT     H266843   7.017   9.789   1.502
22201WAT      O66844   6.651   4.097   6.974
22201WAT     H166845   6.613   4.113   7.066
22201WAT     H266846   6.621   4.169   6.912
22202WAT      O66847   8.996   6.267   0.316
22202WAT     H166848   8.898   6.248   0.323
22202WAT     H266849   9.030   6.236   0.227
22203WAT      O66850   1.414   5.737   0.760
22203WAT     H166851   1.348   5.754   0.834
22203WAT     H266852   1.373   5.765   0.673
22204WAT      O66853   8.255   4.463   0.434
22204WAT     H166854   8.194   4.409   0.377
22204WAT     H266855   8.307   4.527   0.377
22205WAT      O66856   4.951   1.482   3.366
22205WAT     H166857   4.869   1.538   3.355
22205WAT     H266858   5.032   1.539   3.350
22206WAT      O66859   8.079   8.028   3.571
22206WAT     H166860   8.124   8.084   3.641
22206WAT     H266861   8.135   7.948   3.552
22207WAT      O66862   7.718   3.388   0.997
22207WAT     H166863   7.755   3.367   1.088
22207WAT     H266864   7.752   3.321   0.931
22208WAT      O66865   9.554   3.682   8.598
22208WAT     H166866   9.536   3.586   8.620
22208WAT     H266867   9.537   3.739   8.679
22209WAT      O66868   5.011   3.019   4.698
22209WAT     H166869   4.996   3.106   4.651
22209WAT     H266870   4.924   2.971   4.709
22210WAT      O66871   7.329   1.073   9.181
22210WAT     H166872   7.321   1.060   9.082
22210WAT     H266873   7.256   1.022   9.227
22211WAT      O66874   9.794   5.732   6.770
22211WAT     H166875   9.819   5.734   6.867
22211WAT     H266876   9.710   5.783   6.756
22212WAT      O66877   2.864   4.912   4.597
22212WAT     H166878   2.915   4.829   4.575
22212WAT     H266879   2.777   4.889   4.639
22213WAT      O66880   3.086   3.441   1.852
22213WAT     H166881   3.086   3.412   1.948
22213WAT     H266882   2.993   3.460   1.823
22214WAT      O66883   4.764   9.700   1.740
22214WAT     H166884   4.859   9.672   1.724
22214WAT     H266885   4.712   9.623   1.777
22215WAT      O66886   7.029   8.286   1.453
22215WAT     H166887   7.051   8.192   1.478
22215WAT     H266888   7.066   8.349   1.522
22216WAT      O66889   5.342   8.109   0.395
22216WAT     H166890   5.302   8.199   0.377
22216WAT     H266891   5.303   8.071   0.478
22217WAT      O66892   9.753   0.371   7.269
22217WAT     H166893   9.688   0.303   7.302
22217WAT     H266894   9.759   0.366   7.169
22218WAT      O66895   9.634   0.185   2.986
22218WAT     H166896   9.676   0.103   3.024
22218WAT     H266897   9.705   0.247   2.953
22219WAT      O66898   1.948   2.216   6.480
22219WAT     H166899   2.047   2.202   6.467
22219WAT     H266900   1.932   2.256   6.570
22220WAT      O66901   4.054   1.797   4.629
22220WAT     H166902   4.076   1.848   4.546
22220WAT     H266903   4.074   1.700   4.615
22221WAT      O66904   9.091   4.453   4.624
22221WAT     H166905   9.013   4.472   4.683
22221WAT     H266906   9.145   4.537   4.612
22222WAT      O66907   7.421   1.224   8.514
22222WAT     H166908   7.384   1.253   8.425
22222WAT     H266909   7.421   1.124   8.519
22223WAT      O66910   5.138   1.737   8.361
22223WAT     H166911   5.152   1.835   8.352
22223WAT     H266912   5.214   1.697   8.412
22224WAT      O66913   2.226   6.836   2.209
22224WAT     H166914   2.229   6.857   2.307
22224WAT     H266915   2.237   6.738   2.195
22225WAT      O66916   6.884   0.531   8.140
22225WAT     H166917   6.947   0.544   8.064
22225WAT     H266918   6.917   0.581   8.220
22226WAT      O66919   2.442   8.360   8.700
22226WAT     H166920   2.366   8.347   8.764
22226WAT     H266921   2.500   8.434   8.732
22227WAT      O66922   0.309   2.690   6.405
22227WAT     H166923   0.300   2.768   6.467
22227WAT     H266924   0.336   2.609   6.457
22228WAT      O66925   8.852   3.044   8.633
22228WAT     H166926   8.816   2.962   8.679
22228WAT     H266927   8.929   3.080   8.684
22229WAT      O66928   3.913   9.040   3.585
22229WAT     H166929   3.822   9.032   3.546
22229WAT     H266930   3.920   8.981   3.666
22230WAT      O66931   2.580   8.928   8.274
22230WAT     H166932   2.573   8.943   8.176
22230WAT     H266933   2.556   9.012   8.323
22231WAT      O66934   6.039   3.228   1.167
22231WAT     H166935   6.127   3.243   1.121
22231WAT     H266936   6.043   3.146   1.223
22232WAT      O66937   7.180   8.875   1.819
22232WAT     H166938   7.279   8.867   1.823
22232WAT     H266939   7.152   8.900   1.726
22233WAT      O66940   0.958   0.173   1.778
22233WAT     H166941   0.926   0.131   1.863
22233WAT     H266942   1.041   0.226   1.796
22234WAT      O66943   9.763   7.009   6.834
22234WAT     H166944   9.857   6.981   6.813
22234WAT     H266945   9.700   6.950   6.784
22235WAT      O66946   5.603   9.363   0.775
22235WAT     H166947   5.682   9.340   0.718
22235WAT     H266948   5.547   9.431   0.728
22236WAT      O66949   7.297   8.226   5.433
22236WAT     H166950   7.202   8.197   5.435
22236WAT     H266951   7.345   8.180   5.358
22237WAT      O66952   1.036   9.566   2.770
22237WAT     H166953   1.119   9.560   2.716
22237WAT     H266954   0.989   9.478   2.770
22238WAT      O66955   4.302   6.483   4.742
22238WAT     H166956   4.284   6.555   4.808
22238WAT     H266957   4.314   6.396   4.790
22239WAT      O66958   2.235   3.780   3.097
22239WAT     H166959   2.317   3.729   3.125
22239WAT     H266960   2.252   3.878   3.110
22240WAT      O66961   9.446   8.702   3.392
22240WAT     H166962   9.461   8.748   3.304
22240WAT     H266963   9.513   8.737   3.458
22241WAT      O66964   1.801   2.508   8.037
22241WAT     H166965   1.725   2.504   8.102
22241WAT     H266966   1.880   2.549   8.082
22242WAT      O66967   9.140   3.051   3.676
22242WAT     H166968   9.114   3.078   3.583
22242WAT     H266969   9.238   3.062   3.688
22243WAT      O66970   4.975   7.424   6.658
22243WAT     H166971   4.975   7.363   6.579
22243WAT     H266972   4.886   7.469   6.666
22244WAT      O66973   0.098   4.119   4.828
22244WAT     H166974   0.075   4.082   4.918
22244WAT     H266975   0.190   4.091   4.802
22245WAT      O66976   3.253   6.279   7.699
22245WAT     H166977   3.278   6.303   7.605
22245WAT     H266978   3.155   6.297   7.712
22246WAT      O66979   9.395   9.470   7.452
22246WAT     H166980   9.377   9.475   7.550
22246WAT     H266981   9.346   9.392   7.413
22247WAT      O66982   9.659   6.149   6.167
22247WAT     H166983   9.688   6.058   6.196
22247WAT     H266984   9.577   6.175   6.217
22248WAT      O66985   3.890   9.806   5.968
22248WAT     H166986   3.975   9.857   5.959
22248WAT     H266987   3.812   9.867   5.957
22249WAT      O66988   7.209   8.039   9.653
22249WAT     H166989   7.176   8.061   9.561
22249WAT     H266990   7.299   8.080   9.667
22250WAT      O66991   6.514   1.152   4.818
22250WAT     H166992   6.493   1.054   4.828
22250WAT     H266993   6.436   1.199   4.778
22251WAT      O66994   8.526   1.540   8.786
22251WAT     H166995   8.529   1.529   8.885
22251WAT     H266996   8.431   1.538   8.755
22252WAT      O66997   6.245   9.304   5.077
22252WAT     H166998   6.176   9.299   5.005
22252WAT     H266999   6.245   9.219   5.130
22253WAT      O67000   7.897   1.367   9.585
22253WAT     H167001   7.992   1.390   9.563
22253WAT     H267002   7.852   1.330   9.504
22254WAT      O67003   9.704   1.338   7.958
22254WAT     H167004   9.792   1.315   7.917
22254WAT     H267005   9.719   1.389   8.043
22255WAT      O67006   2.705   1.427   7.229
22255WAT     H167007   2.631   1.494   7.225
22255WAT     H267008   2.683   1.349   7.171
22256WAT      O67009   4.122   5.613   4.772
22256WAT     H167010   4.112   5.641   4.867
22256WAT     H267011   4.158   5.519   4.769
22257WAT      O67012   2.887   4.972   6.771
22257WAT     H167013   2.919   4.879   6.789
22257WAT     H267014   2.855   4.978   6.677
22258WAT      O67015   1.000   5.139   5.207
22258WAT     H167016   0.926   5.195   5.169
22258WAT     H267017   1.059   5.105   5.134
22259WAT      O67018   3.226   2.167   6.720
22259WAT     H167019   3.320   2.162   6.751
22259WAT     H267020   3.164   2.164   6.799
22260WAT      O67021   3.936   3.980   0.310
22260WAT     H167022   3.886   4.064   0.292
22260WAT     H267023   4.006   3.966   0.240
22261WAT      O67024   3.182   8.118   7.449
22261WAT     H167025   3.165   8.076   7.360
22261WAT     H267026   3.233   8.054   7.507
22262WAT      O67027   2.342   3.513   0.535
22262WAT     H167028   2.367   3.512   0.438
22262WAT     H267029   2.388   3.438   0.582
22263WAT      O67030   1.871   2.274   6.234
22263WAT     H167031   1.828   2.187   6.212
22263WAT     H267032   1.910   2.270   6.326
22264WAT      O67033   9.497   5.948   7.181
22264WAT     H167034   9.404   5.920   7.207
22264WAT     H267035   9.521   6.031   7.230
22265WAT      O67036   5.105   2.706   4.242
22265WAT     H167037   5.115   2.705   4.342
22265WAT     H267038   5.196   2.715   4.200
22266WAT      O67039   1.522   9.001   6.798
22266WAT     H167040   1.459   9.079   6.797
22266WAT     H267041   1.483   8.927   6.854
22267WAT      O67042   9.438   4.996   6.076
22267WAT     H167043   9.487   5.008   5.990
22267WAT     H267044   9.363   5.062   6.082
22268WAT      O67045   0.034   4.324   7.142
22268WAT     H167046  -0.046   4.301   7.198
22268WAT     H267047   0.103   4.252   7.150
22269WAT      O67048   0.335   7.318   0.105
22269WAT     H167049   0.299   7.386   0.169
22269WAT     H267050   0.263   7.288   0.043
22270WAT      O67051   6.180   8.716   1.628
22270WAT     H167052   6.221   8.757   1.546
22270WAT     H267053   6.252   8.672   1.682
22271WAT      O67054   6.865   8.432   7.788
22271WAT     H167055   6.765   8.431   7.787
22271WAT     H267056   6.898   8.461   7.877
22272WAT      O67057   4.194   4.726   3.137
22272WAT     H167058   4.267   4.689   3.194
22272WAT     H267059   4.139   4.652   3.100
22273WAT      O67060   5.790   9.285   7.725
22273WAT     H167061   5.691   9.291   7.735
22273WAT     H267062   5.835   9.322   7.806
22274WAT      O67063   5.789   6.415   8.519
22274WAT     H167064   5.882   6.451   8.516
22274WAT     H267065   5.757   6.413   8.614
22275WAT      O67066   4.937   3.038   1.827
22275WAT     H167067   5.035   3.019   1.832
22275WAT     H267068   4.908   3.083   1.911
22276WAT      O67069   0.626   2.452   0.412
22276WAT     H167070   0.602   2.401   0.330
22276WAT     H267071   0.557   2.437   0.483
22277WAT      O67072   0.704   1.366   7.740
22277WAT     H167073   0.629   1.406   7.793
22277WAT     H267074   0.742   1.434   7.678
22278WAT      O67075   7.985   7.881   1.543
22278WAT     H167076   8.054   7.937   1.589
22278WAT     H267077   7.917   7.941   1.499
22279WAT      O67078   6.547   7.686   8.246
22279WAT     H167079   6.585   7.775   8.222
22279WAT     H267080   6.521   7.686   8.343
22280WAT      O67081   1.595   1.210   8.745
22280WAT     H167082   1.601   1.112   8.765
22280WAT     H267083   1.541   1.223   8.662
22281WAT      O67084   4.153   8.331   1.420
22281WAT     H167085   4.189   8.413   1.375
22281WAT     H267086   4.123   8.355   1.512
22282WAT      O67087   6.400   6.524   5.778
22282WAT     H167088   6.457   6.483   5.708
22282WAT     H267089   6.348   6.600   5.739
22283WAT      O67090   1.613   8.226   7.153
22283WAT     H167091   1.536   8.193   7.099
22283WAT     H267092   1.582   8.245   7.247
22284WAT      O67093   8.376   1.908   3.117
22284WAT     H167094   8.388   1.932   3.213
22284WAT     H267095   8.450   1.948   3.063
22285WAT      O67096   8.010   3.617   0.395
22285WAT     H167097   7.936   3.663   0.345
22285WAT     H267098   8.095   3.669   0.383
22286WAT      O67099   8.608   4.731   9.140
22286WAT     H167100   8.535   4.686   9.088
22286WAT     H267101   8.695   4.687   9.118
22287WAT      O67102   9.647   4.122   7.879
22287WAT     H167103   9.670   4.219   7.880
22287WAT     H267104   9.702   4.076   7.809
22288WAT      O67105   7.502   8.887   0.472
22288WAT     H167106   7.519   8.796   0.436
22288WAT     H267107   7.544   8.955   0.411
22289WAT      O67108   4.350   3.185   7.299
22289WAT     H167109   4.259   3.155   7.326
22289WAT     H267110   4.419   3.124   7.340
22290WAT      O67111   8.981   4.617   6.441
22290WAT     H167112   8.894   4.613   6.392
22290WAT     H267113   9.052   4.652   6.379
22291WAT      O67114   4.598   6.866   4.321
22291WAT     H167115   4.557   6.957   4.312
22291WAT     H267116   4.540   6.799   4.274
22292WAT      O67117   6.311   4.599   0.459
22292WAT     H167118   6.384   4.664   0.436
22292WAT     H267119   6.348   4.524   0.513
22293WAT      O67120   1.608   8.113   0.916
22293WAT     H167121   1.559   8.130   0.830
22293WAT     H267122   1.605   8.015   0.937
22294WAT      O67123   1.674   1.592   0.603
22294WAT     H167124   1.721   1.638   0.678
22294WAT     H267125   1.731   1.595   0.521
22295WAT      O67126   7.770   0.326   1.435
22295WAT     H167127   7.776   0.236   1.478
22295WAT     H267128   7.786   0.396   1.504
22296WAT      O67129   7.820   8.565   7.950
22296WAT     H167130   7.887   8.501   7.986
22296WAT     H267131   7.768   8.520   7.877
22297WAT      O67132   4.534   1.768   9.312
22297WAT     H167133   4.510   1.685   9.362
22297WAT     H267134   4.529   1.750   9.214
22298WAT      O67135   9.266   9.842   9.181
22298WAT     H167136   9.166   9.830   9.183
22298WAT     H267137   9.304   9.814   9.268
22299WAT      O67138   4.709   6.005   3.758
22299WAT     H167139   4.694   6.102   3.742
22299WAT     H267140   4.802   5.980   3.731
22300WAT      O67141   9.888   4.110   1.604
22300WAT     H167142   9.876   4.083   1.509
22300WAT     H267143   9.851   4.202   1.618
22301WAT      O67144   5.948   4.164   7.447
22301WAT     H167145   5.871   4.156   7.510
22301WAT     H267146   5.944   4.090   7.379
22302WAT      O67147   1.827   4.131   9.885
22302WAT     H167148   1.813   4.083   9.798
22302WAT     H267149   1.924   4.136   9.905
22303WAT      O67150   8.705   4.128   5.837
22303WAT     H167151   8.765   4.067   5.888
22303WAT     H267152   8.759   4.185   5.776
22304WAT      O67153   3.038   5.686   2.459
22304WAT     H167154   2.979   5.716   2.534
22304WAT     H267155   3.005   5.725   2.373
22305WAT      O67156   0.384   0.467   4.545
22305WAT     H167157   0.459   0.410   4.577
22305WAT     H267158   0.368   0.449   4.448
22306WAT      O67159   9.588   5.329   8.340
22306WAT     H167160   9.605   5.354   8.435
22306WAT     H267161   9.575   5.413   8.286
22307WAT      O67162   7.580   4.076   8.311
22307WAT     H167163   7.534   4.114   8.392
22307WAT     H267164   7.646   4.143   8.277
22308WAT      O67165   3.993   1.972   0.593
22308WAT     H167166   3.919   1.990   0.529
22308WAT     H267167   4.019   1.876   0.587
22309WAT      O67168   5.708   4.613   6.642
22309WAT     H167169   5.640   4.679   6.675
22309WAT     H267170   5.706   4.531   6.700
22310WAT      O67171   3.215   7.664   4.360
22310WAT     H167172   3.308   7.666   4.324
22310WAT     H267173   3.159   7.605   4.303
22311WAT      O67174   1.744   7.796   4.228
22311WAT     H167175   1.743   7.831   4.321
22311WAT     H267176   1.655   7.757   4.205
22312WAT      O67177   4.439   4.264   4.026
22312WAT     H167178   4.478   4.347   3.985
22312WAT     H267179   4.485   4.247   4.114
22313WAT      O67180   8.679   8.812   0.132
22313WAT     H167181   8.602   8.860   0.090
22313WAT     H267182   8.645   8.752   0.205
22314WAT      O67183   5.505   6.050   3.321
22314WAT     H167184   5.512   6.008   3.230
22314WAT     H267185   5.593   6.042   3.368
22315WAT      O67186   5.859   9.573   1.846
22315WAT     H167187   5.843   9.620   1.759
22315WAT     H267188   5.777   9.521   1.871
22316WAT      O67189   8.804   2.488   2.286
22316WAT     H167190   8.883   2.548   2.294
22316WAT     H267191   8.834   2.399   2.249
22317WAT      O67192   7.090   6.678   8.169
22317WAT     H167193   7.037   6.595   8.152
22317WAT     H267194   7.030   6.749   8.206
22318WAT      O67195   5.024   5.122   6.538
22318WAT     H167196   4.947   5.108   6.599
22318WAT     H267197   5.109   5.096   6.584
22319WAT      O67198   6.402   3.087   2.021
22319WAT     H167199   6.484   3.126   1.979
22319WAT     H267200   6.387   3.129   2.110
22320WAT      O67201   3.318   3.058   0.975
22320WAT     H167202   3.318   3.067   1.075
22320WAT     H267203   3.325   3.149   0.934
22321WAT      O67204   5.032   4.317   1.428
22321WAT     H167205   5.084   4.391   1.384
22321WAT     H267206   4.934   4.335   1.418
22322WAT      O67207   4.001   6.570   3.186
22322WAT     H167208   4.027   6.560   3.282
22322WAT     H267209   4.058   6.510   3.130
22323WAT      O67210   7.276   5.790   0.616
22323WAT     H167211   7.266   5.853   0.540
22323WAT     H267212   7.373   5.781   0.640
22324WAT      O67213   7.544   4.221   9.635
22324WAT     H167214   7.548   4.191   9.540
22324WAT     H267215   7.575   4.316   9.642
22325WAT      O67216   4.769   4.346   3.268
22325WAT     H167217   4.830   4.370   3.343
22325WAT     H267218   4.685   4.400   3.275
22326WAT      O67219   4.722   7.671   9.439
22326WAT     H167220   4.813   7.639   9.463
22326WAT     H267221   4.653   7.610   9.479
22327WAT      O67222   4.346   5.551   4.371
22327WAT     H167223   4.318   5.461   4.339
22327WAT     H267224   4.272   5.592   4.425
22328WAT      O67225   8.222   6.455   3.220
22328WAT     H167226   8.188   6.508   3.298
22328WAT     H267227   8.186   6.362   3.226
22329WAT      O67228   4.875   4.256   8.473
22329WAT     H167229   4.808   4.327   8.449
22329WAT     H267230   4.833   4.190   8.535
22330WAT      O67231   0.439   9.140   2.188
22330WAT     H167232   0.512   9.073   2.182
22330WAT     H267233   0.383   9.135   2.105
22331WAT      O67234   0.334   0.966   7.378
22331WAT     H167235   0.424   1.008   7.385
22331WAT     H267236   0.294   0.958   7.469
22332WAT      O67237   3.410   7.980   4.362
22332WAT     H167238   3.332   7.956   4.420
22332WAT     H267239   3.378   8.004   4.270
22333WAT      O67240   1.118   2.232   4.410
22333WAT     H167241   1.115   2.330   4.387
22333WAT     H267242   1.206   2.194   4.383
22334WAT      O67243   9.348   2.806   0.557
22334WAT     H167244   9.322   2.715   0.524
22334WAT     H267245   9.447   2.816   0.551
22335WAT      O67246   8.945   9.690   7.256
22335WAT     H167247   9.021   9.705   7.194
22335WAT     H267248   8.951   9.597   7.295
22336WAT      O67249   0.924   2.222   8.273
22336WAT     H167250   1.010   2.204   8.224
22336WAT     H267251   0.942   2.279   8.352
22337WAT      O67252   9.578   2.133   8.562
22337WAT     H167253   9.536   2.146   8.652
22337WAT     H267254   9.663   2.186   8.557
22338WAT      O67255   5.436   3.674   1.352
22338WAT     H167256   5.500   3.655   1.278
22338WAT     H267257   5.364   3.735   1.320
22339WAT      O67258   5.683   7.110   3.099
22339WAT     H167259   5.758   7.176   3.104
22339WAT     H267260   5.667   7.085   3.004
22340WAT      O67261   2.292   6.561   2.834
22340WAT     H167262   2.324   6.610   2.915
22340WAT     H267263   2.358   6.572   2.760
22341WAT      O67264   6.265   3.798   9.180
22341WAT     H167265   6.284   3.865   9.251
22341WAT     H267266   6.194   3.735   9.211
22342WAT      O67267   0.727   0.996   3.383
22342WAT     H167268   0.678   0.911   3.403
22342WAT     H267269   0.686   1.071   3.435
22343WAT      O67270   3.516   7.409   8.302
22343WAT     H167271   3.609   7.415   8.268
22343WAT     H267272   3.452   7.436   8.230
22344WAT      O67273   1.478   9.596   0.681
22344WAT     H167274   1.574   9.583   0.657
22344WAT     H267275   1.472   9.650   0.765
22345WAT      O67276   8.404   1.442   3.792
22345WAT     H167277   8.463   1.453   3.712
22345WAT     H267278   8.425   1.355   3.837
22346WAT      O67279   5.219   2.958   1.826
22346WAT     H167280   5.219   2.858   1.821
22346WAT     H267281   5.256   2.995   1.741
22347WAT      O67282   1.830   4.700   8.594
22347WAT     H167283   1.792   4.791   8.576
22347WAT     H267284   1.757   4.632   8.594
22348WAT      O67285   1.493   4.954   6.189
22348WAT     H167286   1.499   5.016   6.111
22348WAT     H267287   1.584   4.927   6.217
22349WAT      O67288   1.803   5.163   8.190
22349WAT     H167289   1.812   5.257   8.223
22349WAT     H267290   1.824   5.100   8.264
22350WAT      O67291   6.294   2.424   0.206
22350WAT     H167292   6.358   2.369   0.259
22350WAT     H267293   6.202   2.414   0.245
22351WAT      O67294   0.400   0.735   8.231
22351WAT     H167295   0.312   0.701   8.200
22351WAT     H267296   0.437   0.799   8.163
22352WAT      O67297   0.726   5.579   2.478
22352WAT     H167298   0.709   5.483   2.459
22352WAT     H267299   0.819   5.603   2.450
22353WAT      O67300   5.697   7.326   7.423
22353WAT     H167301   5.658   7.266   7.353
22353WAT     H267302   5.796   7.334   7.410
22354WAT      O67303   2.430   3.737   9.207
22354WAT     H167304   2.403   3.812   9.268
22354WAT     H267305   2.367   3.661   9.220
22355WAT      O67306   9.244   3.648   1.183
22355WAT     H167307   9.158   3.669   1.137
22355WAT     H267308   9.282   3.563   1.147
22356WAT      O67309   9.444   5.456   4.868
22356WAT     H167310   9.475   5.449   4.774
22356WAT     H267311   9.345   5.471   4.870
22357WAT      O67312   7.197   7.361   8.972
22357WAT     H167313   7.106   7.401   8.961
22357WAT     H267314   7.194   7.264   8.950
22358WAT      O67315   3.959   8.652   5.344
22358WAT     H167316   4.054   8.679   5.329
22358WAT     H267317   3.903   8.684   5.268
22359WAT      O67318   4.535   7.728   0.101
22359WAT     H167319   4.586   7.791   0.160
22359WAT     H267320   4.599   7.670   0.050
22360WAT      O67321   0.810   2.346   7.533
22360WAT     H167322   0.824   2.294   7.449
22360WAT     H267323   0.713   2.366   7.545
22361WAT      O67324   7.087   2.767   1.284
22361WAT     H167325   7.061   2.753   1.380
22361WAT     H267326   7.150   2.843   1.278
22362WAT      O67327   7.260   6.188   8.035
22362WAT     H167328   7.339   6.209   7.976
22362WAT     H267329   7.288   6.197   8.130
22363WAT      O67330   8.446   1.994   1.727
22363WAT     H167331   8.360   1.972   1.681
22363WAT     H267332   8.468   2.091   1.714
22364WAT      O67333   6.665   7.012   5.424
22364WAT     H167334   6.594   7.059   5.373
22364WAT     H267335   6.653   7.029   5.522
22365WAT      O67336   6.774   3.338   7.157
22365WAT     H167337   6.783   3.288   7.071
22365WAT     H267338   6.854   3.321   7.215
22366WAT      O67339   9.297   6.136   5.115
22366WAT     H167340   9.198   6.124   5.121
22366WAT     H267341   9.339   6.113   5.203
22367WAT      O67342   5.143   7.286   0.057
22367WAT     H167343   5.162   7.363   0.117
22367WAT     H267344   5.089   7.317  -0.022
22368WAT      O67345   8.310   4.921   8.468
22368WAT     H167346   8.314   4.996   8.402
22368WAT     H267347   8.323   4.957   8.561
22369WAT      O67348   3.369   3.797   8.628
22369WAT     H167349   3.456   3.758   8.657
22369WAT     H267350   3.372   3.896   8.639
22370WAT      O67351   5.013   8.261   4.168
22370WAT     H167352   5.099   8.275   4.217
22370WAT     H267353   4.956   8.196   4.219
22371WAT      O67354   1.876   0.137   3.343
22371WAT     H167355   1.784   0.110   3.314
22371WAT     H267356   1.909   0.211   3.285
22372WAT      O67357   1.370   0.961   8.327
22372WAT     H167358   1.459   1.005   8.316
22372WAT     H267359   1.379   0.863   8.307
22373WAT      O67360   1.755   3.781   0.171
22373WAT     H167361   1.736   3.832   0.255
22373WAT     H267362   1.697   3.815   0.098
22374WAT      O67363   0.163   3.215   3.080
22374WAT     H167364   0.195   3.269   3.158
22374WAT     H267365   0.225   3.137   3.066
22375WAT      O67366   9.233   1.695   1.769
22375WAT     H167367   9.290   1.635   1.713
22375WAT     H267368   9.289   1.766   1.811
22376WAT      O67369   7.994   5.782   0.466
22376WAT     H167370   7.933   5.704   0.450
22376WAT     H267371   8.017   5.825   0.379
22377WAT      O67372   1.019   1.077   6.047
22377WAT     H167373   0.946   1.111   5.988
22377WAT     H267374   1.105   1.075   5.997
22378WAT      O67375   2.520   9.590   1.377
22378WAT     H167376   2.431   9.583   1.424
22378WAT     H267377   2.550   9.686   1.378
22379WAT      O67378   6.094   7.497   0.923
22379WAT     H167379   6.083   7.493   1.022
22379WAT     H267380   6.103   7.404   0.886
22380WAT      O67381   1.626   2.054   6.158
22380WAT     H167382   1.706   2.007   6.195
22380WAT     H267383   1.571   2.091   6.233
22381WAT      O67384   6.365   9.254   0.192
22381WAT     H167385   6.334   9.281   0.101
22381WAT     H267386   6.342   9.158   0.208
22382WAT      O67387   8.862   1.280   3.969
22382WAT     H167388   8.922   1.271   4.049
22382WAT     H267389   8.787   1.343   3.991
22383WAT      O67390   7.633   8.016   1.000
22383WAT     H167391   7.724   7.986   1.028
22383WAT     H267392   7.637   8.057   0.909
22384WAT      O67393   2.356   6.246   1.516
22384WAT     H167394   2.369   6.337   1.478
22384WAT     H267395   2.329   6.253   1.612
22385WAT      O67396   0.080   8.794   0.297
22385WAT     H167397  -0.006   8.750   0.320
22385WAT     H267398   0.063   8.874   0.239
22386WAT      O67399   9.222   2.270   4.246
22386WAT     H167400   9.227   2.362   4.209
22386WAT     H267401   9.315   2.234   4.259
22387WAT      O67402   5.533   5.232   2.283
22387WAT     H167403   5.496   5.312   2.237
22387WAT     H267404   5.558   5.256   2.377
22388WAT      O67405   3.596   3.875   1.820
22388WAT     H167406   3.623   3.838   1.732
22388WAT     H267407   3.666   3.939   1.853
22389WAT      O67408   8.365   8.666   2.634
22389WAT     H167409   8.414   8.586   2.601
22389WAT     H267410   8.294   8.637   2.698
22390WAT      O67411   7.982   8.660   2.529
22390WAT     H167412   8.079   8.671   2.550
22390WAT     H267413   7.931   8.736   2.569
22391WAT      O67414   6.912   5.504   8.488
22391WAT     H167415   6.821   5.465   8.478
22391WAT     H267416   6.906   5.604   8.485
22392WAT      O67417   8.047   4.189   0.860
22392WAT     H167418   7.958   4.166   0.898
22392WAT     H267419   8.035   4.232   0.770
22393WAT      O67420   2.118   7.579   1.140
22393WAT     H167421   2.077   7.497   1.099
22393WAT     H267422   2.205   7.599   1.096
22394WAT      O67423   1.634   1.995   3.559
22394WAT     H167424   1.576   1.960   3.485
22394WAT     H267425   1.718   1.942   3.563
22395WAT      O67426   4.928   1.382   4.989
22395WAT     H167427   5.000   1.313   4.982
22395WAT     H267428   4.938   1.447   4.913
22396WAT      O67429   8.494   3.642   6.030
22396WAT     H167430   8.419   3.699   5.997
22396WAT     H267431   8.572   3.700   6.053
22397WAT      O67432   3.194   9.235   4.087
22397WAT     H167433   3.111   9.195   4.125
22397WAT     H267434   3.263   9.243   4.159
22398WAT      O67435   6.413   4.952   8.281
22398WAT     H167436   6.356   4.904   8.214
22398WAT     H267437   6.507   4.959   8.248
22399WAT      O67438   1.031   7.896   9.350
22399WAT     H167439   0.978   7.939   9.424
22399WAT     H267440   0.992   7.806   9.329
22400WAT      O67441   4.140   4.135   7.711
22400WAT     H167442   4.088   4.214   7.745
22400WAT     H267443   4.100   4.051   7.749
22401WAT      O67444   3.780   1.758   4.649
22401WAT     H167445   3.879   1.771   4.641
22401WAT     H267446   3.735   1.848   4.649
22402WAT      O67447   0.147   0.670   9.504
22402WAT     H167448   0.162   0.671   9.405
22402WAT     H267449   0.063   0.620   9.525
22403WAT      O67450   5.698   8.721   3.761
22403WAT     H167451   5.766   8.786   3.794
22403WAT     H267452   5.704   8.713   3.662
22404WAT      O67453   7.031   1.158   1.175
22404WAT     H167454   6.995   1.187   1.086
22404WAT     H267455   7.076   1.069   1.165
22405WAT      O67456   7.926   1.760   3.646
22405WAT     H167457   7.940   1.744   3.744
22405WAT     H267458   7.866   1.839   3.633
22406WAT      O67459   2.140   6.700   0.572
22406WAT     H167460   2.221   6.644   0.553
22406WAT     H267461   2.081   6.702   0.491
22407WAT      O67462   4.318   8.413   0.441
22407WAT     H167463   4.259   8.490   0.464
22407WAT     H267464   4.363   8.380   0.523
22408WAT      O67465   5.232   2.847   5.909
22408WAT     H167466   5.294   2.834   5.832
22408WAT     H267467   5.158   2.780   5.904
22409WAT      O67468   8.337   5.006   5.214
22409WAT     H167469   8.277   5.012   5.295
22409WAT     H267470   8.285   4.966   5.138
22410WAT      O67471   5.291   0.685   0.497
22410WAT     H167472   5.197   0.720   0.498
22410WAT     H267473   5.319   0.670   0.402
22411WAT      O67474   2.106   5.770   7.764
22411WAT     H167475   2.059   5.854   7.791
22411WAT     H267476   2.121   5.713   7.845
22412WAT      O67477   0.720   3.877   1.151
22412WAT     H167478   0.803   3.823   1.168
22412WAT     H267479   0.723   3.914   1.059
22413WAT      O67480   6.160   6.829   5.981
22413WAT     H167481   6.100   6.811   5.903
22413WAT     H267482   6.104   6.851   6.062
22414WAT      O67483   3.774   7.374   2.004
22414WAT     H167484   3.824   7.457   2.026
22414WAT     H267485   3.687   7.397   1.962
22415WAT      O67486   2.121   4.766   7.920
22415WAT     H167487   2.154   4.694   7.980
22415WAT     H267488   2.043   4.812   7.962
22416WAT      O67489   1.645   0.909   7.123
22416WAT     H167490   1.626   0.811   7.135
22416WAT     H267491   1.703   0.921   7.043
22417WAT      O67492   9.731   2.282   5.161
22417WAT     H167493   9.657   2.311   5.221
22417WAT     H267494   9.782   2.208   5.204
22418WAT      O67495   2.490   2.201   3.009
22418WAT     H167496   2.414   2.257   2.974
22418WAT     H267497   2.574   2.224   2.960
22419WAT      O67498   7.593   9.696   3.424
22419WAT     H167499   7.656   9.660   3.492
22419WAT     H267500   7.511   9.732   3.469
22420WAT      O67501   6.913   3.642   9.020
22420WAT     H167502   6.944   3.729   8.982
22420WAT     H267503   6.982   3.606   9.082
22421WAT      O67504   0.084   1.762   5.951
22421WAT     H167505   0.140   1.779   5.870
22421WAT     H267506   0.096   1.837   6.016
22422WAT      O67507   0.624   0.394   6.782
22422WAT     H167508   0.694   0.335   6.741
22422WAT     H267509   0.565   0.340   6.842
22423WAT      O67510   3.591   6.343   1.508
22423WAT     H167511   3.627   6.396   1.585
22423WAT     H267512   3.497   6.315   1.528
22424WAT      O67513   9.270   2.413   0.242
22424WAT     H167514   9.306   2.320   0.233
22424WAT     H267515   9.171   2.409   0.260
22425WAT      O67516   3.873   9.411   0.800
22425WAT     H167517   3.784   9.388   0.760
22425WAT     H267518   3.864   9.424   0.898
22426WAT      O67519   1.353   0.313   5.525
22426WAT     H167520   1.360   0.324   5.624
22426WAT     H267521   1.356   0.403   5.481
22427WAT      O67522   7.414   0.576   8.613
22427WAT     H167523   7.465   0.549   8.531
22427WAT     H267524   7.473   0.634   8.670
22428WAT      O67525   9.063   3.170   6.269
22428WAT     H167526   9.063   3.113   6.351
22428WAT     H267527   8.972   3.167   6.227
22429WAT      O67528   0.271   1.442   2.701
22429WAT     H167529   0.249   1.447   2.798
22429WAT     H267530   0.188   1.451   2.647
22430WAT      O67531   4.544   3.063   9.096
22430WAT     H167532   4.590   3.090   9.181
22430WAT     H267533   4.587   2.981   9.059
22431WAT      O67534   3.173   9.447   6.603
22431WAT     H167535   3.078   9.418   6.586
22431WAT     H267536   3.215   9.383   6.667
22432WAT      O67537   0.118   1.640   2.169
22432WAT     H167538   0.049   1.711   2.176
22432WAT     H267539   0.173   1.638   2.252
22433WAT      O67540   2.525   3.960   1.638
22433WAT     H167541   2.623   3.956   1.658
22433WAT     H267542   2.512   3.991   1.544
22434WAT      O67543   2.398   2.587   2.195
22434WAT     H167544   2.319   2.581   2.133
22434WAT     H267545   2.410   2.500   2.242
22435WAT      O67546   8.674   0.010   9.281
22435WAT     H167547   8.681  -0.089   9.292
22435WAT     H267548   8.644   0.031   9.188
22436WAT      O67549   5.158   2.903   2.817
22436WAT     H167550   5.184   2.828   2.878
22436WAT     H267551   5.103   2.867   2.742
22437WAT      O67552   7.752   3.433   0.084
22437WAT     H167553   7.661   3.407   0.051
22437WAT     H267554   7.822   3.395   0.023
22438WAT      O67555   0.338   5.681   7.163
22438WAT     H167556   0.419   5.630   7.193
22438WAT     H267557   0.328   5.672   7.064
22439WAT      O67558   0.120   6.904   9.390
22439WAT     H167559   0.207   6.869   9.424
22439WAT     H267560   0.131   6.998   9.360
22440WAT      O67561   9.309   5.592   6.975
22440WAT     H167562   9.220   5.547   6.971
22440WAT     H267563   9.369   5.552   6.906
22441WAT      O67564   8.827   4.903   1.248
22441WAT     H167565   8.740   4.855   1.258
22441WAT     H267566   8.860   4.891   1.155
22442WAT      O67567   0.534   2.905   4.797
22442WAT     H167568   0.628   2.925   4.770
22442WAT     H267569   0.520   2.806   4.798
22443WAT      O67570   3.794   2.818   1.525
22443WAT     H167571   3.843   2.862   1.449
22443WAT     H267572   3.721   2.878   1.557
22444WAT      O67573   1.305   2.988   1.937
22444WAT     H167574   1.299   2.975   2.036
22444WAT     H267575   1.399   2.973   1.907
22445WAT      O67576   9.865   7.226   6.157
22445WAT     H167577   9.937   7.293   6.138
22445WAT     H267578   9.860   7.160   6.082
22446WAT      O67579   1.739   5.182   8.872
22446WAT     H167580   1.748   5.250   8.945
22446WAT     H267581   1.785   5.215   8.790
22447WAT      O67582   4.446   6.821   0.915
22447WAT     H167583   4.397   6.876   0.982
22447WAT     H267584   4.420   6.725   0.924
22448WAT      O67585   2.049   7.014   8.017
22448WAT     H167586   1.956   6.995   8.049
22448WAT     H267587   2.070   7.111   8.031
22449WAT      O67588   2.924   5.351   5.597
22449WAT     H167589   3.015   5.325   5.567
22449WAT     H267590   2.857   5.324   5.528
22450WAT      O67591   6.442   1.924   6.772
22450WAT     H167592   6.512   1.992   6.793
22450WAT     H267593   6.352   1.958   6.801
22451WAT      O67594   3.653   6.640   9.239
22451WAT     H167595   3.684   6.654   9.334
22451WAT     H267596   3.554   6.625   9.239
22452WAT      O67597   6.878   2.339   7.837
22452WAT     H167598   6.812   2.405   7.873
22452WAT     H267599   6.941   2.386   7.775
22453WAT      O67600   1.900   4.588   5.652
22453WAT     H167601   1.897   4.639   5.738
22453WAT     H267602   1.807   4.577   5.617
22454WAT      O67603   1.910   9.041   8.484
22454WAT     H167604   1.982   9.030   8.416
22454WAT     H267605   1.850   9.116   8.457
22455WAT      O67606   2.942   5.070   4.944
22455WAT     H167607   2.901   5.142   5.000
22455WAT     H267608   2.940   5.097   4.848
22456WAT      O67609   5.243   4.998   0.245
22456WAT     H167610   5.293   5.079   0.277
22456WAT     H267611   5.180   5.025   0.173
22457WAT      O67612   4.701   7.389   1.319
22457WAT     H167613   4.689   7.462   1.386
22457WAT     H267614   4.746   7.425   1.237
22458WAT      O67615   6.237   0.575   3.175
22458WAT     H167616   6.194   0.490   3.145
22458WAT     H267617   6.173   0.627   3.231
22459WAT      O67618   9.483   3.380   6.432
22459WAT     H167619   9.504   3.293   6.475
22459WAT     H267620   9.397   3.373   6.382
22460WAT      O67621   0.401   1.000   0.940
22460WAT     H167622   0.307   0.964   0.942
22460WAT     H267623   0.462   0.931   0.902
22461WAT      O67624   4.925   8.854   4.900
22461WAT     H167625   4.938   8.815   4.991
22461WAT     H267626   4.941   8.784   4.831
22462WAT      O67627   7.390   4.552   0.512
22462WAT     H167628   7.445   4.487   0.460
22462WAT     H267629   7.392   4.641   0.466
22463WAT      O67630   5.705   6.141   1.979
22463WAT     H167631   5.696   6.187   2.068
22463WAT     H267632   5.645   6.185   1.913
22464WAT      O67633   3.012   8.115   4.940
22464WAT     H167634   3.068   8.110   5.023
22464WAT     H267635   3.010   8.210   4.908
22465WAT      O67636   4.107   7.150   0.722
22465WAT     H167637   4.052   7.139   0.805
22465WAT     H267638   4.082   7.079   0.656
22466WAT      O67639   1.635   5.400   0.918
22466WAT     H167640   1.619   5.429   0.824
22466WAT     H267641   1.576   5.323   0.941
22467WAT      O67642   6.046   1.417   6.734
22467WAT     H167643   5.978   1.351   6.702
22467WAT     H267644   6.033   1.504   6.685
22468WAT      O67645   8.340   7.540   1.110
22468WAT     H167646   8.407   7.467   1.094
22468WAT     H267647   8.381   7.628   1.088
22469WAT      O67648   8.252   0.616   8.068
22469WAT     H167649   8.341   0.585   8.033
22469WAT     H267650   8.265   0.671   8.150
22470WAT      O67651   2.779   3.989   1.813
22470WAT     H167652   2.707   3.981   1.882
22470WAT     H267653   2.860   4.031   1.854
22471WAT      O67654   8.682   8.338   1.736
22471WAT     H167655   8.762   8.303   1.785
22471WAT     H267656   8.599   8.319   1.789
22472WAT      O67657   0.772   2.097   5.488
22472WAT     H167658   0.819   2.025   5.436
22472WAT     H267659   0.751   2.063   5.579
22473WAT      O67660   5.376   0.857   9.095
22473WAT     H167661   5.392   0.903   9.008
22473WAT     H267662   5.356   0.926   9.165
22474WAT      O67663   2.891   3.785   4.960
22474WAT     H167664   2.898   3.817   5.054
22474WAT     H267665   2.975   3.806   4.911
22475WAT      O67666   0.417   8.654   8.708
22475WAT     H167667   0.324   8.652   8.673
22475WAT     H267668   0.422   8.601   8.792
22476WAT      O67669   2.055   6.032   6.113
22476WAT     H167670   2.000   6.078   6.182
22476WAT     H267671   2.149   6.068   6.115
22477WAT      O67672   7.600   4.399   2.854
22477WAT     H167673   7.540   4.430   2.928
22477WAT     H267674   7.692   4.384   2.890
22478WAT      O67675   0.449   8.169   7.756
22478WAT     H167676   0.376   8.128   7.702
22478WAT     H267677   0.409   8.225   7.829
22479WAT      O67678   6.752   1.628   6.259
22479WAT     H167679   6.847   1.641   6.287
22479WAT     H267680   6.747   1.552   6.194
22480WAT      O67681   4.011   1.034   3.999
22480WAT     H167682   3.925   0.991   4.027
22480WAT     H267683   4.011   1.130   4.028
22481WAT      O67684   8.427   6.930   7.939
22481WAT     H167685   8.329   6.910   7.928
22481WAT     H267686   8.439   7.002   8.007
22482WAT      O67687   4.604   2.307   9.389
22482WAT     H167688   4.677   2.264   9.336
22482WAT     H267689   4.538   2.237   9.418
22483WAT      O67690   3.203   0.648   7.497
22483WAT     H167691   3.190   0.696   7.411
22483WAT     H267692   3.249   0.561   7.480
22484WAT      O67693   7.955   6.930   9.736
22484WAT     H167694   7.939   6.864   9.663
22484WAT     H267695   7.871   6.941   9.790
22485WAT      O67696   6.206   4.205   9.810
22485WAT     H167697   6.266   4.233   9.885
22485WAT     H267698   6.123   4.163   9.848
22486WAT      O67699   2.559   1.861   5.537
22486WAT     H167700   2.533   1.776   5.584
22486WAT     H267701   2.658   1.868   5.534
22487WAT      O67702   2.973   5.459   7.277
22487WAT     H167703   3.022   5.374   7.257
22487WAT     H267704   3.038   5.535   7.280
22488WAT      O67705   4.278   7.462   3.911
22488WAT     H167706   4.369   7.420   3.913
22488WAT     H267707   4.226   7.426   3.833
22489WAT      O67708   3.122   6.872   6.476
22489WAT     H167709   3.026   6.862   6.452
22489WAT     H267710   3.130   6.925   6.561
22490WAT      O67711   9.550   8.964   7.010
22490WAT     H167712   9.463   8.921   7.032
22490WAT     H267713   9.538   9.064   7.008
22491WAT      O67714   4.860   8.245   9.636
22491WAT     H167715   4.776   8.205   9.600
22491WAT     H267716   4.937   8.185   9.616
22492WAT      O67717   6.938   1.988   3.989
22492WAT     H167718   6.852   1.996   4.040
22492WAT     H267719   6.934   2.045   3.907
22493WAT      O67720   3.056   2.782   6.683
22493WAT     H167721   3.107   2.848   6.739
22493WAT     H267722   3.073   2.690   6.716
22494WAT      O67723   9.697   5.508   3.394
22494WAT     H167724   9.689   5.433   3.328
22494WAT     H267725   9.703   5.595   3.346
22495WAT      O67726   2.014   8.792   2.958
22495WAT     H167727   2.053   8.822   3.045
22495WAT     H267728   1.915   8.785   2.967
22496WAT      O67729   7.249   2.097   3.688
22496WAT     H167730   7.211   2.005   3.684
22496WAT     H267731   7.237   2.135   3.780
22497WAT      O67732   4.703   6.832   3.774
22497WAT     H167733   4.652   6.912   3.744
22497WAT     H267734   4.739   6.784   3.694
22498WAT      O67735   1.535   2.246   4.808
22498WAT     H167736   1.479   2.226   4.888
22498WAT     H267737   1.598   2.170   4.791
22499WAT      O67738   4.819   3.307   5.548
22499WAT     H167739   4.893   3.247   5.519
22499WAT     H267740   4.850   3.365   5.622
22500WAT      O67741   9.165   3.322   5.509
22500WAT     H167742   9.164   3.380   5.427
22500WAT     H267743   9.110   3.240   5.492
22501WAT      O67744   5.881   5.895   8.397
22501WAT     H167745   5.860   5.992   8.405
22501WAT     H267746   5.873   5.852   8.487
22502WAT      O67747   7.413   2.077   0.603
22502WAT     H167748   7.334   2.117   0.650
22502WAT     H267749   7.418   1.979   0.623
22503WAT      O67750   8.866   7.884   6.897
22503WAT     H167751   8.821   7.923   6.978
22503WAT     H267752   8.809   7.812   6.858
22504WAT      O67753   6.183   6.125   3.956
22504WAT     H167754   6.088   6.097   3.944
22504WAT     H267755   6.243   6.059   3.911
22505WAT      O67756   8.990   3.280   5.728
22505WAT     H167757   9.057   3.234   5.785
22505WAT     H267758   9.036   3.318   5.647
22506WAT      O67759   7.302   8.423   5.038
22506WAT     H167760   7.392   8.388   5.010
22506WAT     H267761   7.244   8.346   5.063
22507WAT      O67762   3.951   5.727   8.701
22507WAT     H167763   4.038   5.740   8.748
22507WAT     H267764   3.937   5.630   8.683
22508WAT      O67765   1.646   0.874   6.279
22508WAT     H167766   1.676   0.903   6.188
22508WAT     H267767   1.565   0.815   6.271
22509WAT      O67768   1.671   3.422   8.563
22509WAT     H167769   1.760   3.433   8.606
22509WAT     H267770   1.679   3.365   8.482
22510WAT      O67771   7.914   2.190   7.550
22510WAT     H167772   7.932   2.092   7.548
22510WAT     H267773   7.945   2.231   7.464
22511WAT      O67774   2.366   1.355   9.332
22511WAT     H167775   2.386   1.261   9.304
22511WAT     H267776   2.358   1.413   9.250
22512WAT      O67777   3.425   0.529   3.021
22512WAT     H167778   3.438   0.618   2.976
22512WAT     H267779   3.420   0.457   2.951
22513WAT      O67780   3.102   6.154   3.732
22513WAT     H167781   3.188   6.142   3.682
22513WAT     H267782   3.025   6.132   3.672
22514WAT      O67783   1.919   1.055   8.034
22514WAT     H167784   1.844   0.991   8.049
22514WAT     H267785   1.973   1.026   7.955
22515WAT      O67786   7.053   4.498   7.344
22515WAT     H167787   6.970   4.521   7.395
22515WAT     H267788   7.029   4.470   7.252
22516WAT      O67789   1.892   6.466   3.892
22516WAT     H167790   1.951   6.522   3.951
22516WAT     H267791   1.811   6.519   3.867
22517WAT      O67792   0.962   9.541   6.800
22517WAT     H167793   0.972   9.461   6.858
22517WAT     H267794   0.893   9.603   6.839
22518WAT      O67795   8.686   9.427   8.962
22518WAT     H167796   8.774   9.427   8.915
22518WAT     H267797   8.637   9.342   8.942
22519WAT      O67798   9.221   8.829   3.499
22519WAT     H167799   9.298   8.783   3.455
22519WAT     H267800   9.225   8.927   3.479
22520WAT      O67801   7.457   2.186   2.073
22520WAT     H167802   7.394   2.109   2.057
22520WAT     H267803   7.464   2.240   1.989
22521WAT      O67804   3.587   8.057   4.756
22521WAT     H167805   3.578   7.977   4.697
22521WAT     H267806   3.499   8.078   4.797
22522WAT      O67807   3.113   2.254   8.661
22522WAT     H167808   3.090   2.180   8.598
22522WAT     H267809   3.106   2.221   8.755
22523WAT      O67810   2.359   3.380   4.390
22523WAT     H167811   2.278   3.402   4.444
22523WAT     H267812   2.434   3.441   4.416
22524WAT      O67813   1.684   5.592   6.746
22524WAT     H167814   1.701   5.515   6.808
22524WAT     H267815   1.704   5.564   6.652
22525WAT      O67816   6.901   1.552   9.764
22525WAT     H167817   6.985   1.505   9.736
22525WAT     H267818   6.849   1.580   9.683
22526WAT      O67819   5.691   3.924   2.633
22526WAT     H167820   5.675   3.971   2.720
22526WAT     H267821   5.676   3.988   2.558
22527WAT      O67822   7.670   5.665   5.594
22527WAT     H167823   7.715   5.742   5.639
22527WAT     H267824   7.612   5.617   5.660
22528WAT      O67825   8.521   5.534   9.378
22528WAT     H167826   8.532   5.436   9.395
22528WAT     H267827   8.423   5.557   9.376
22529WAT      O67828   3.139   4.134   5.897
22529WAT     H167829   3.224   4.160   5.851
22529WAT     H267830   3.092   4.065   5.842
22530WAT      O67831   2.238   5.166   7.628
22530WAT     H167832   2.140   5.166   7.647
22530WAT     H267833   2.282   5.092   7.679
22531WAT      O67834   2.037   0.071   9.205
22531WAT     H167835   2.038   0.126   9.122
22531WAT     H267836   1.986   0.119   9.277
22532WAT      O67837   3.729   7.191   3.597
22532WAT     H167838   3.803   7.249   3.631
22532WAT     H267839   3.755   7.154   3.507
22533WAT      O67840   2.978   2.222   3.273
22533WAT     H167841   3.027   2.309   3.266
22533WAT     H267842   3.028   2.152   3.222
22534WAT      O67843   3.158   5.669   1.242
22534WAT     H167844   3.201   5.668   1.152
22534WAT     H267845   3.201   5.601   1.301
22535WAT      O67846   3.128   5.351   7.919
22535WAT     H167847   3.214   5.388   7.955
22535WAT     H267848   3.102   5.400   7.836
22536WAT      O67849   5.066   7.467   7.501
22536WAT     H167850   5.067   7.553   7.451
22536WAT     H267851   5.136   7.469   7.573
22537WAT      O67852   3.366   7.799   5.979
22537WAT     H167853   3.301   7.810   5.904
22537WAT     H267854   3.318   7.811   6.066
22538WAT      O67855   6.614   6.871   0.666
22538WAT     H167856   6.525   6.839   0.636
22538WAT     H267857   6.677   6.794   0.673
22539WAT      O67858   4.442   5.128   5.306
22539WAT     H167859   4.371   5.108   5.239
22539WAT     H267860   4.427   5.218   5.345
22540WAT      O67861   5.480   1.733   4.711
22540WAT     H167862   5.439   1.728   4.803
22540WAT     H267863   5.574   1.700   4.715
22541WAT      O67864   3.103   8.396   6.342
22541WAT     H167865   3.102   8.354   6.432
22541WAT     H267866   3.187   8.370   6.294
22542WAT      O67867   2.586   7.969   7.235
22542WAT     H167868   2.618   7.889   7.285
22542WAT     H267869   2.582   7.948   7.137
22543WAT      O67870   2.456   0.585   7.431
22543WAT     H167871   2.389   0.625   7.367
22543WAT     H267872   2.506   0.512   7.386
22544WAT      O67873   7.904   6.928   4.086
22544WAT     H167874   7.892   6.834   4.118
22544WAT     H267875   7.860   6.938   3.996
22545WAT      O67876   6.340   7.268   0.201
22545WAT     H167877   6.353   7.340   0.269
22545WAT     H267878   6.331   7.180   0.246
22546WAT      O67879   6.387   6.789   8.967
22546WAT     H167880   6.407   6.702   8.923
22546WAT     H267881   6.473   6.833   8.995
22547WAT      O67882   8.102   1.213   8.612
22547WAT     H167883   8.078   1.206   8.515
22547WAT     H267884   8.081   1.127   8.658
22548WAT      O67885   8.937   5.688   5.415
22548WAT     H167886   8.903   5.720   5.503
22548WAT     H267887   8.953   5.766   5.354
22549WAT      O67888   2.504   3.173   1.013
22549WAT     H167889   2.466   3.107   0.948
22549WAT     H267890   2.600   3.152   1.030
22550WAT      O67891   7.768   7.690   4.829
22550WAT     H167892   7.836   7.745   4.781
22550WAT     H267893   7.790   7.593   4.818
22551WAT      O67894   2.887   4.271   8.529
22551WAT     H167895   2.835   4.196   8.489
22551WAT     H267896   2.823   4.343   8.558
22552WAT      O67897   3.098   6.709   5.648
22552WAT     H167898   3.087   6.710   5.747
22552WAT     H267899   3.160   6.783   5.620
22553WAT      O67900   4.555   9.293   2.290
22553WAT     H167901   4.588   9.294   2.385
22553WAT     H267902   4.468   9.342   2.285
22554WAT      O67903   4.278   9.384   3.143
22554WAT     H167904   4.273   9.379   3.243
22554WAT     H267905   4.358   9.333   3.112
22555WAT      O67906   8.313   0.991   8.671
22555WAT     H167907   8.405   0.960   8.649
22555WAT     H267908   8.313   1.091   8.684
22556WAT      O67909   6.177   8.531   9.652
22556WAT     H167910   6.264   8.579   9.654
22556WAT     H267911   6.193   8.433   9.638
22557WAT      O67912   0.519   1.101   0.004
22557WAT     H167913   0.542   1.197  -0.013
22557WAT     H267914   0.473   1.093   0.092
22558WAT      O67915   4.727   1.307   1.582
22558WAT     H167916   4.709   1.243   1.657
22558WAT     H267917   4.721   1.258   1.495
22559WAT      O67918   1.616   6.234   5.122
22559WAT     H167919   1.657   6.299   5.186
22559WAT     H267920   1.529   6.202   5.158
22560WAT      O67921   4.921   6.162   5.534
22560WAT     H167922   5.006   6.143   5.486
22560WAT     H267923   4.850   6.189   5.468
22561WAT      O67924   3.163   4.207   8.490
22561WAT     H167925   3.071   4.247   8.491
22561WAT     H267926   3.231   4.278   8.476
22562WAT      O67927   6.333   3.762   7.029
22562WAT     H167928   6.260   3.828   7.012
22562WAT     H267929   6.315   3.713   7.114
22563WAT      O67930   9.783   4.386   7.860
22563WAT     H167931   9.802   4.393   7.958
22563WAT     H267932   9.829   4.460   7.811
22564WAT      O67933   8.539   3.543   6.500
22564WAT     H167934   8.598   3.623   6.505
22564WAT     H267935   8.588   3.464   6.539
22565WAT      O67936   9.236   5.877   7.208
22565WAT     H167937   9.211   5.846   7.300
22565WAT     H267938   9.177   5.953   7.181
22566WAT      O67939   3.922   3.945   7.087
22566WAT     H167940   3.976   4.027   7.106
22566WAT     H267941   3.979   3.877   7.043
22567WAT      O67942   2.490   5.319   5.519
22567WAT     H167943   2.482   5.389   5.590
22567WAT     H267944   2.582   5.278   5.524
22568WAT      O67945   9.720   5.254   8.819
22568WAT     H167946   9.781   5.302   8.882
22568WAT     H267947   9.633   5.236   8.863
22569WAT      O67948   3.010   4.838   1.301
22569WAT     H167949   2.994   4.830   1.400
22569WAT     H267950   3.056   4.756   1.268
22570WAT      O67951   6.224   1.846   2.227
22570WAT     H167952   6.285   1.923   2.210
22570WAT     H267953   6.226   1.783   2.149
22571WAT      O67954   0.714   3.024   8.517
22571WAT     H167955   0.731   3.089   8.591
22571WAT     H267956   0.616   3.003   8.513
22572WAT      O67957   9.290   5.661   5.190
22572WAT     H167958   9.349   5.716   5.132
22572WAT     H267959   9.314   5.676   5.286
22573WAT      O67960   1.777   5.006   8.587
22573WAT     H167961   1.833   5.088   8.599
22573WAT     H267962   1.688   5.032   8.549
22574WAT      O67963   9.708   7.210   8.866
22574WAT     H167964   9.716   7.309   8.871
22574WAT     H267965   9.658   7.184   8.784
22575WAT      O67966   7.648   6.230   6.302
22575WAT     H167967   7.551   6.217   6.324
22575WAT     H267968   7.691   6.288   6.371
22576WAT      O67969   4.302   3.624   1.196
22576WAT     H167970   4.319   3.703   1.256
22576WAT     H267971   4.381   3.609   1.137
22577WAT      O67972   9.349   0.162   8.545
22577WAT     H167973   9.359   0.105   8.626
22577WAT     H267974   9.260   0.144   8.502
22578WAT      O67975   1.908   6.185   6.842
22578WAT     H167976   1.957   6.163   6.758
22578WAT     H267977   1.965   6.245   6.899
22579WAT      O67978   0.493   0.783   7.075
22579WAT     H167979   0.523   0.722   7.002
22579WAT     H267980   0.567   0.848   7.096
22580WAT      O67981   9.023   6.449   5.270
22580WAT     H167982   9.080   6.426   5.349
22580WAT     H267983   8.999   6.546   5.273
22581WAT      O67984   1.396   9.481   7.288
22581WAT     H167985   1.448   9.421   7.349
22581WAT     H267986   1.302   9.490   7.321
22582WAT      O67987   7.790   1.387   7.902
22582WAT     H167988   7.752   1.458   7.842
22582WAT     H267989   7.850   1.431   7.970
22583WAT      O67990   5.552   6.167   0.480
22583WAT     H167991   5.571   6.097   0.412
22583WAT     H267992   5.621   6.164   0.552
22584WAT      O67993   5.945   3.795   6.604
22584WAT     H167994   5.946   3.755   6.696
22584WAT     H267995   5.966   3.892   6.610
22585WAT      O67996   4.798   2.511   9.752
22585WAT     H167997   4.857   2.431   9.739
22585WAT     H267998   4.743   2.526   9.670
22586WAT      O67999   5.966   8.356   6.140
22586WAT     H168000   6.050   8.383   6.187
22586WAT     H268001   5.901   8.318   6.206
22587WAT      O68002   1.421   0.401   4.749
22587WAT     H168003   1.332   0.392   4.703
22587WAT     H268004   1.412   0.374   4.844
22588WAT      O68005   4.646   0.079   0.769
22588WAT     H168006   4.673   0.155   0.827
22588WAT     H268007   4.547   0.082   0.754
22589WAT      O68008   6.150   2.624   4.378
22589WAT     H168009   6.112   2.598   4.467
22589WAT     H268010   6.176   2.542   4.328
22590WAT      O68011   5.616   9.501   8.664
22590WAT     H168012   5.642   9.596   8.681
22590WAT     H268013   5.687   9.440   8.698
22591WAT      O68014   3.490   1.966   9.086
22591WAT     H168015   3.535   2.055   9.087
22591WAT     H268016   3.438   1.955   9.001
22592WAT      O68017   0.604   3.253   0.581
22592WAT     H168018   0.582   3.346   0.552
22592WAT     H268019   0.567   3.188   0.515
22593WAT      O68020   8.004   4.740   3.892
22593WAT     H168021   8.089   4.786   3.919
22593WAT     H268022   8.022   4.678   3.816
22594WAT      O68023   7.569   4.440   0.090
22594WAT     H168024   7.536   4.526   0.129
22594WAT     H268025   7.492   4.390   0.050
22595WAT      O68026   3.864   7.680   0.210
22595WAT     H168027   3.832   7.771   0.236
22595WAT     H268028   3.950   7.660   0.256
22596WAT      O68029   9.201   5.685   2.873
22596WAT     H168030   9.253   5.723   2.796
22596WAT     H268031   9.141   5.755   2.910
22597WAT      O68032   2.749   3.645   6.681
22597WAT     H168033   2.737   3.649   6.582
22597WAT     H268034   2.774   3.552   6.708
22598WAT      O68035   5.394   8.327   5.107
22598WAT     H168036   5.441   8.256   5.054
22598WAT     H268037   5.370   8.290   5.197
22599WAT      O68038   3.426   9.788   4.836
22599WAT     H168039   3.435   9.888   4.828
22599WAT     H268040   3.516   9.746   4.827
22600WAT      O68041   5.117   3.181   0.086
22600WAT     H168042   5.109   3.270   0.132
22600WAT     H268043   5.155   3.195  -0.006
22601WAT      O68044   0.605   3.066   0.350
22601WAT     H168045   0.592   3.074   0.251
22601WAT     H268046   0.537   3.003   0.388
22602WAT      O68047   6.226   2.785   9.606
22602WAT     H168048   6.157   2.725   9.567
22602WAT     H268049   6.210   2.879   9.574
22603WAT      O68050   4.220   0.721   7.840
22603WAT     H168051   4.272   0.637   7.820
22603WAT     H268052   4.129   0.714   7.800
22604WAT      O68053   8.573   8.079   0.751
22604WAT     H168054   8.500   8.095   0.817
22604WAT     H268055   8.579   8.156   0.687
22605WAT      O68056   8.479   7.280   4.280
22605WAT     H168057   8.389   7.244   4.306
22605WAT     H268058   8.468   7.366   4.230
22606WAT      O68059   7.862   2.795   5.181
22606WAT     H168060   7.945   2.850   5.183
22606WAT     H268061   7.782   2.856   5.176
22607WAT      O68062   6.425   6.204   1.901
22607WAT     H168063   6.466   6.285   1.859
22607WAT     H268064   6.387   6.145   1.830
22608WAT      O68065   8.273   2.408   7.802
22608WAT     H168066   8.359   2.390   7.849
22608WAT     H268067   8.274   2.501   7.764
22609WAT      O68068   3.193   1.765   4.533
22609WAT     H168069   3.194   1.674   4.492
22609WAT     H268070   3.103   1.783   4.572
22610WAT      O68071   0.031   0.713   7.518
22610WAT     H168072  -0.006   0.801   7.547
22610WAT     H268073   0.121   0.727   7.476
22611WAT      O68074   3.089   4.085   6.928
22611WAT     H168075   3.178   4.079   6.973
22611WAT     H268076   3.017   4.071   6.995
22612WAT      O68077   4.698   6.271   3.798
22612WAT     H168078   4.638   6.351   3.804
22612WAT     H268079   4.741   6.255   3.887
22613WAT      O68080   6.013   2.794   1.366
22613WAT     H168081   5.980   2.783   1.272
22613WAT     H268082   5.941   2.835   1.422
22614WAT      O68083   6.119   9.197   2.861
22614WAT     H168084   6.157   9.244   2.782
22614WAT     H268085   6.187   9.132   2.897
22615WAT      O68086   5.971   1.670   7.300
22615WAT     H168087   6.010   1.646   7.211
22615WAT     H268088   6.008   1.759   7.330
22616WAT      O68089   9.683   7.913   3.884
22616WAT     H168090   9.764   7.896   3.941
22616WAT     H268091   9.650   8.006   3.899
22617WAT      O68092   0.990   1.492   4.050
22617WAT     H168093   1.059   1.560   4.027
22617WAT     H268094   1.034   1.403   4.064
22618WAT      O68095   4.628   1.898   4.961
22618WAT     H168096   4.716   1.852   4.973
22618WAT     H268097   4.641   1.981   4.907
22619WAT      O68098   3.886   3.598   9.897
22619WAT     H168099   3.966   3.659   9.892
22619WAT     H268100   3.824   3.620   9.822
22620WAT      O68101   7.642   0.916   3.511
22620WAT     H168102   7.722   0.952   3.463
22620WAT     H268103   7.643   0.948   3.606
22621WAT      O68104   0.398   6.612   1.612
22621WAT     H168105   0.317   6.649   1.657
22621WAT     H268106   0.394   6.632   1.514
22622WAT      O68107   2.358   7.071   9.134
22622WAT     H168108   2.269   7.054   9.176
22622WAT     H268109   2.409   7.137   9.191
22623WAT      O68110   7.890   6.949   6.072
22623WAT     H168111   7.863   6.929   6.166
22623WAT     H268112   7.819   6.915   6.009
22624WAT      O68113   0.366   1.854   4.092
22624WAT     H168114   0.449   1.829   4.042
22624WAT     H268115   0.331   1.941   4.056
22625WAT      O68116   8.044   2.080   1.768
22625WAT     H168117   8.073   1.986   1.752
22625WAT     H268118   8.092   2.141   1.704
22626WAT      O68119   3.378   5.325   4.187
22626WAT     H168120   3.289   5.367   4.206
22626WAT     H268121   3.374   5.277   4.100
22627WAT      O68122   2.954   7.392   6.906
22627WAT     H168123   2.976   7.313   6.849
22627WAT     H268124   2.886   7.367   6.974
22628WAT      O68125   6.389   8.947   4.477
22628WAT     H168126   6.408   9.045   4.475
22628WAT     H268127   6.304   8.929   4.426
22629WAT      O68128   1.228   7.910   7.235
22629WAT     H168129   1.152   7.880   7.292
22629WAT     H268130   1.219   7.873   7.143
22630WAT      O68131   7.045   4.909   8.894
22630WAT     H168132   7.083   5.001   8.881
22630WAT     H268133   6.968   4.915   8.958
22631WAT      O68134   6.633   3.561   5.004
22631WAT     H168135   6.699   3.564   5.079
22631WAT     H268136   6.570   3.638   5.011
22632WAT      O68137   3.552   3.065   9.019
22632WAT     H168138   3.497   3.093   8.941
22632WAT     H268139   3.578   3.145   9.072
22633WAT      O68140   3.850   6.421   7.096
22633WAT     H168141   3.807   6.334   7.069
22633WAT     H268142   3.866   6.477   7.015
22634WAT      O68143   8.595   8.208   1.052
22634WAT     H168144   8.502   8.187   1.023
22634WAT     H268145   8.624   8.295   1.012
22635WAT      O68146   3.866   0.553   1.502
22635WAT     H168147   3.920   0.489   1.557
22635WAT     H268148   3.769   0.539   1.520
22636WAT      O68149   8.151   4.268   2.505
22636WAT     H168150   8.076   4.275   2.438
22636WAT     H268151   8.155   4.175   2.541
22637WAT      O68152   8.834   4.247   0.448
22637WAT     H168153   8.744   4.236   0.407
22637WAT     H268154   8.877   4.157   0.460
22638WAT      O68155   3.015   1.947   7.644
22638WAT     H168156   2.944   1.997   7.594
22638WAT     H268157   3.067   2.011   7.701
22639WAT      O68158   5.835   6.667   0.132
22639WAT     H168159   5.844   6.763   0.105
22639WAT     H268160   5.870   6.608   0.059
22640WAT      O68161   1.822   3.528   5.719
22640WAT     H168162   1.910   3.503   5.678
22640WAT     H268163   1.831   3.530   5.819
22641WAT      O68164   8.114   0.513   1.391
22641WAT     H168165   8.039   0.509   1.325
22641WAT     H268166   8.081   0.553   1.476
22642WAT      O68167   9.546   1.944   5.999
22642WAT     H168168   9.591   1.909   5.917
22642WAT     H268169   9.486   2.020   5.974
22643WAT      O68170   4.261   1.185   4.917
22643WAT     H168171   4.249   1.228   4.828
22643WAT     H268172   4.229   1.247   4.989
22644WAT      O68173   8.068   8.795   3.415
22644WAT     H168174   8.111   8.860   3.352
22644WAT     H268175   8.139   8.734   3.451
22645WAT      O68176   5.442   6.752   3.652
22645WAT     H168177   5.454   6.832   3.593
22645WAT     H268178   5.345   6.731   3.660
22646WAT      O68179   5.779   2.011   1.715
22646WAT     H168180   5.748   2.096   1.757
22646WAT     H268181   5.700   1.953   1.695
22647WAT      O68182   2.588   3.066   4.379
22647WAT     H168183   2.688   3.068   4.387
22647WAT     H268184   2.548   3.033   4.464
22648WAT      O68185   3.233   2.626   4.599
22648WAT     H168186   3.262   2.609   4.694
22648WAT     H268187   3.234   2.540   4.548
22649WAT      O68188   3.239   4.039   4.798
22649WAT     H168189   3.222   3.987   4.714
22649WAT     H268190   3.204   4.132   4.787
22650WAT      O68191   2.813   0.612   9.650
22650WAT     H168192   2.810   0.582   9.554
22650WAT     H268193   2.789   0.709   9.655
22651WAT      O68194   4.909   3.392   4.052
22651WAT     H168195   4.966   3.469   4.081
22651WAT     H268196   4.945   3.307   4.089
22652WAT      O68197   6.983   1.498   2.204
22652WAT     H168198   6.984   1.572   2.136
22652WAT     H268199   6.970   1.410   2.158
22653WAT      O68200   5.752   2.070   7.414
22653WAT     H168201   5.836   2.037   7.457
22653WAT     H268202   5.744   2.031   7.322
22654WAT      O68203   4.737   8.300   1.665
22654WAT     H168204   4.726   8.259   1.575
22654WAT     H268205   4.771   8.393   1.655
22655WAT      O68206   3.975   7.573   2.051
22655WAT     H168207   4.021   7.555   1.964
22655WAT     H268208   4.042   7.602   2.119
22656WAT      O68209   5.657   5.275   3.573
22656WAT     H168210   5.734   5.274   3.636
22656WAT     H268211   5.630   5.369   3.554
22657WAT      O68212   5.631   2.132   2.719
22657WAT     H168213   5.723   2.171   2.724
22657WAT     H268214   5.564   2.197   2.753
22658WAT      O68215   7.280   4.252   3.316
22658WAT     H168216   7.341   4.286   3.388
22658WAT     H268217   7.309   4.289   3.228
22659WAT      O68218   7.673   7.211   0.940
22659WAT     H168219   7.665   7.305   0.908
22659WAT     H268220   7.762   7.199   0.984
22660WAT      O68221   4.898   1.749   4.157
22660WAT     H168222   4.978   1.689   4.151
22660WAT     H268223   4.926   1.843   4.140
22661WAT      O68224   8.683   1.247   7.338
22661WAT     H168225   8.585   1.227   7.345
22661WAT     H268226   8.695   1.338   7.298
22662WAT      O68227   7.028   8.311   1.179
22662WAT     H168228   7.029   8.306   1.279
22662WAT     H268229   6.956   8.251   1.143
22663WAT      O68230   4.268   1.124   3.310
22663WAT     H168231   4.303   1.161   3.224
22663WAT     H268232   4.304   1.033   3.325
22664WAT      O68233   7.423   2.404   9.584
22664WAT     H168234   7.358   2.436   9.515
22664WAT     H268235   7.428   2.304   9.581
22665WAT      O68236   9.149   7.251   1.290
22665WAT     H168237   9.225   7.238   1.226
22665WAT     H268238   9.165   7.332   1.346
22666WAT      O68239   2.364   5.157   0.535
22666WAT     H168240   2.433   5.221   0.503
22666WAT     H268241   2.388   5.124   0.627
22667WAT      O68242   5.409   1.226   4.284
22667WAT     H168243   5.374   1.139   4.317
22667WAT     H268244   5.497   1.245   4.328
22668WAT      O68245   0.043   5.931   3.445
22668WAT     H168246  -0.021   5.959   3.373
22668WAT     H268247   0.096   5.852   3.413
22669WAT      O68248   3.006   8.524   6.990
22669WAT     H168249   3.015   8.624   6.993
22669WAT     H268250   3.079   8.482   7.044
22670WAT      O68251   9.309   5.235   1.689
22670WAT     H168252   9.226   5.246   1.636
22670WAT     H268253   9.373   5.177   1.639
22671WAT      O68254   1.985   7.868   4.443
22671WAT     H168255   1.891   7.879   4.473
22671WAT     H268256   1.986   7.828   4.352
22672WAT      O68257   4.290   7.048   0.064
22672WAT     H168258   4.279   7.004   0.154
22672WAT     H268259   4.203   7.045   0.015
22673WAT      O68260   6.722   6.378   2.080
22673WAT     H168261   6.630   6.417   2.080
22673WAT     H268262   6.790   6.452   2.084
22674WAT      O68263   8.597   3.018   7.564
22674WAT     H168264   8.641   2.967   7.638
22674WAT     H268265   8.667   3.072   7.516
22675WAT      O68266   8.008   2.852   4.718
22675WAT     H168267   7.918   2.850   4.762
22675WAT     H268268   8.019   2.770   4.662
22676WAT      O68269   8.462   2.313   4.755
22676WAT     H168270   8.404   2.292   4.677
22676WAT     H268271   8.456   2.240   4.822
22677WAT      O68272   9.214   8.693   7.440
22677WAT     H168273   9.302   8.737   7.427
22677WAT     H268274   9.183   8.706   7.534
22678WAT      O68275   2.617   1.824   0.259
22678WAT     H168276   2.596   1.875   0.175
22678WAT     H268277   2.693   1.761   0.241
22679WAT      O68278   8.312   9.472   6.573
22679WAT     H168279   8.220   9.488   6.610
22679WAT     H268280   8.380   9.511   6.635
22680WAT      O68281   6.952   9.697   0.255
22680WAT     H168282   6.998   9.785   0.250
22680WAT     H268283   6.905   9.689   0.343
22681WAT      O68284   8.802   2.791   3.896
22681WAT     H168285   8.873   2.859   3.880
22681WAT     H268286   8.825   2.707   3.848
22682WAT      O68287   5.239   9.363   3.097
22682WAT     H168288   5.295   9.445   3.085
22682WAT     H268289   5.144   9.382   3.072
22683WAT      O68290   7.619   2.408   6.745
22683WAT     H168291   7.576   2.318   6.755
22683WAT     H268292   7.714   2.396   6.714
22684WAT      O68293   4.674   2.686   0.876
22684WAT     H168294   4.579   2.682   0.908
22684WAT     H268295   4.701   2.597   0.839
22685WAT      O68296   0.705   3.911   8.381
22685WAT     H168297   0.606   3.929   8.389
22685WAT     H268298   0.755   3.994   8.406
22686WAT      O68299   6.904   5.021   3.524
22686WAT     H168300   6.805   5.029   3.510
22686WAT     H268301   6.923   4.943   3.582
22687WAT      O68302   5.245   9.279   8.258
22687WAT     H168303   5.305   9.199   8.270
22687WAT     H268304   5.282   9.357   8.308
22688WAT      O68305   3.910   3.415   6.825
22688WAT     H168306   3.884   3.321   6.849
22688WAT     H268307   4.008   3.418   6.804
22689WAT      O68308   3.141   0.614   9.569
22689WAT     H168309   3.177   0.675   9.639
22689WAT     H268310   3.054   0.650   9.535
22690WAT      O68311   2.228   0.637   1.763
22690WAT     H168312   2.193   0.661   1.673
22690WAT     H268313   2.327   0.628   1.760
22691WAT      O68314   4.847   7.732   8.725
22691WAT     H168315   4.914   7.806   8.731
22691WAT     H268316   4.811   7.712   8.816
22692WAT      O68317   7.858   2.240   6.946
22692WAT     H168318   7.811   2.173   6.888
22692WAT     H268319   7.812   2.245   7.035
22693WAT      O68320   7.275   2.191   5.063
22693WAT     H168321   7.327   2.267   5.026
22693WAT     H268322   7.287   2.188   5.163
22694WAT      O68323   1.937   1.553   3.152
22694WAT     H168324   1.870   1.624   3.128
22694WAT     H268325   1.890   1.465   3.162
22695WAT      O68326   7.642   1.922   1.485
22695WAT     H168327   7.675   1.925   1.579
22695WAT     H268328   7.548   1.887   1.483
22696WAT      O68329   5.151   3.271   6.457
22696WAT     H168330   5.225   3.308   6.400
22696WAT     H268331   5.098   3.205   6.404
22697WAT      O68332   6.630   7.270   1.486
22697WAT     H168333   6.618   7.171   1.482
22697WAT     H268334   6.597   7.311   1.401
22698WAT      O68335   4.308   6.943   0.320
22698WAT     H168336   4.315   6.844   0.306
22698WAT     H268337   4.370   6.972   0.392
22699WAT      O68338   2.029   8.562   6.329
22699WAT     H168339   2.028   8.500   6.407
22699WAT     H268340   1.966   8.638   6.346
22700WAT      O68341   6.881   2.686   6.954
22700WAT     H168342   6.853   2.593   6.978
22700WAT     H268343   6.802   2.738   6.922
22701WAT      O68344   0.513   7.632   2.732
22701WAT     H168345   0.486   7.538   2.713
22701WAT     H268346   0.594   7.633   2.791
22702WAT      O68347   6.439   0.990   8.845
22702WAT     H168348   6.524   0.977   8.896
22702WAT     H268349   6.409   1.085   8.853
22703WAT      O68350   0.341   2.076   5.281
22703WAT     H168351   0.388   2.061   5.368
22703WAT     H268352   0.401   2.049   5.206
22704WAT      O68353   5.811   2.927   4.553
22704WAT     H168354   5.733   2.905   4.611
22704WAT     H268355   5.835   3.023   4.563
22705WAT      O68356   3.841   5.457   2.853
22705WAT     H168357   3.839   5.488   2.758
22705WAT     H268358   3.801   5.527   2.912
22706WAT      O68359   6.415   4.987   1.664
22706WAT     H168360   6.371   5.076   1.651
22706WAT     H268361   6.450   4.980   1.758
22707WAT      O68362   8.822   7.478   3.340
22707WAT     H168363   8.723   7.466   3.350
22707WAT     H268364   8.866   7.388   3.337
22708WAT      O68365   9.566   5.165   6.283
22708WAT     H168366   9.575   5.237   6.215
22708WAT     H268367   9.557   5.076   6.237
22709WAT      O68368   1.553   9.237   0.706
22709WAT     H168369   1.467   9.288   0.705
22709WAT     H268370   1.589   9.231   0.613
22710WAT      O68371   7.436   2.390   3.340
22710WAT     H168372   7.387   2.422   3.259
22710WAT     H268373   7.373   2.343   3.401
22711WAT      O68374   7.140   5.423   3.329
22711WAT     H168375   7.181   5.514   3.331
22711WAT     H268376   7.145   5.383   3.421
22712WAT      O68377   1.788   3.815   4.524
22712WAT     H168378   1.818   3.887   4.461
22712WAT     H268379   1.799   3.726   4.481
22713WAT      O68380   4.326   6.219   8.554
22713WAT     H168381   4.236   6.200   8.594
22713WAT     H268382   4.327   6.312   8.516
22714WAT      O68383   8.991   6.200   7.737
22714WAT     H168384   9.084   6.164   7.733
22714WAT     H268385   8.982   6.259   7.817
22715WAT      O68386   7.663   7.104   3.290
22715WAT     H168387   7.574   7.058   3.289
22715WAT     H268388   7.736   7.035   3.288
22716WAT      O68389   1.571   7.746   6.090
22716WAT     H168390   1.553   7.670   6.028
22716WAT     H268391   1.626   7.713   6.167
22717WAT      O68392   3.902   9.282   1.609
22717WAT     H168393   3.934   9.250   1.698
22717WAT     H268394   3.888   9.204   1.548
22718WAT      O68395   2.526   6.373   1.051
22718WAT     H168396   2.608   6.430   1.047
22718WAT     H268397   2.445   6.429   1.032
22719WAT      O68398   7.318   1.450   2.224
22719WAT     H168399   7.360   1.509   2.156
22719WAT     H268400   7.257   1.385   2.179
22720WAT      O68401   1.501   3.229   5.283
22720WAT     H168402   1.430   3.249   5.216
22720WAT     H268403   1.526   3.132   5.278
22721WAT      O68404   6.602   9.499   8.650
22721WAT     H168405   6.692   9.543   8.649
22721WAT     H268406   6.547   9.539   8.724
22722WAT      O68407   9.270   0.731   2.893
22722WAT     H168408   9.319   0.729   2.806
22722WAT     H268409   9.320   0.676   2.961
22723WAT      O68410   3.537   0.715   9.430
22723WAT     H168411   3.481   0.637   9.402
22723WAT     H268412   3.633   0.688   9.431
22724WAT      O68413   7.565   6.570   8.684
22724WAT     H168414   7.634   6.605   8.748
22724WAT     H268415   7.592   6.592   8.590
22725WAT      O68416   8.597   4.088   8.896
22725WAT     H168417   8.498   4.076   8.892
22725WAT     H268418   8.627   4.144   8.819
22726WAT      O68419   4.387   0.062   6.734
22726WAT     H168420   4.383  -0.014   6.799
22726WAT     H268421   4.346   0.034   6.647
22727WAT      O68422   1.153   8.378   2.484
22727WAT     H168423   1.196   8.467   2.501
22727WAT     H268424   1.118   8.341   2.571
22728WAT      O68425   2.914   5.954   7.092
22728WAT     H168426   2.910   6.054   7.081
22728WAT     H268427   2.831   5.922   7.137
22729WAT      O68428   7.265   9.130   2.801
22729WAT     H168429   7.256   9.193   2.879
22729WAT     H268430   7.192   9.147   2.736
22730WAT      O68431   0.573   0.990   6.862
22730WAT     H168432   0.610   1.001   6.954
22730WAT     H268433   0.503   0.918   6.863
22731WAT      O68434   1.760   7.624   3.762
22731WAT     H168435   1.741   7.579   3.849
22731WAT     H268436   1.859   7.636   3.751
22732WAT      O68437   7.356   1.141   7.242
22732WAT     H168438   7.277   1.143   7.303
22732WAT     H268439   7.365   1.229   7.195
22733WAT      O68440   3.982   0.393   1.676
22733WAT     H168441   3.990   0.299   1.643
22733WAT     H268442   4.071   0.438   1.672
22734WAT      O68443   5.876   3.233   2.350
22734WAT     H168444   5.960   3.286   2.346
22734WAT     H268445   5.799   3.291   2.324
22735WAT      O68446   0.675   8.998   8.570
22735WAT     H168447   0.633   8.970   8.657
22735WAT     H268448   0.603   9.023   8.506
22736WAT      O68449   6.476   3.957   2.807
22736WAT     H168450   6.573   3.972   2.824
22736WAT     H268451   6.454   3.986   2.714
22737WAT      O68452   2.212   8.396   4.366
22737WAT     H168453   2.135   8.410   4.304
22737WAT     H268454   2.242   8.301   4.362
22738WAT      O68455   7.557   3.763   7.453
22738WAT     H168456   7.569   3.789   7.357
22738WAT     H268457   7.589   3.838   7.511
22739WAT      O68458   1.774   3.374   1.756
22739WAT     H168459   1.751   3.334   1.844
22739WAT     H268460   1.805   3.469   1.769
22740WAT      O68461   1.267   1.200   6.309
22740WAT     H168462   1.315   1.282   6.341
22740WAT     H268463   1.182   1.227   6.264
22741WAT      O68464   8.643   5.001   9.067
22741WAT     H168465   8.650   4.904   9.090
22741WAT     H268466   8.568   5.016   9.003
22742WAT      O68467   3.064   1.510   6.861
22742WAT     H168468   3.097   1.479   6.772
22742WAT     H268469   3.112   1.461   6.934
22743WAT      O68470   3.884   4.654   7.509
22743WAT     H168471   3.923   4.601   7.584
22743WAT     H268472   3.865   4.593   7.432
22744WAT      O68473   7.042   4.749   1.408
22744WAT     H168474   6.944   4.742   1.429
22744WAT     H268475   7.095   4.726   1.490
22745WAT      O68476   2.767   0.477   9.413
22745WAT     H168477   2.757   0.492   9.314
22745WAT     H268478   2.829   0.400   9.427
22746WAT      O68479   8.968   2.103   0.427
22746WAT     H168480   8.946   2.056   0.512
22746WAT     H268481   9.006   2.038   0.361
22747WAT      O68482   4.206   5.620   3.005
22747WAT     H168483   4.173   5.686   3.072
22747WAT     H268484   4.199   5.528   3.042
22748WAT      O68485   9.559   6.522   4.958
22748WAT     H168486   9.471   6.527   4.912
22748WAT     H268487   9.594   6.614   4.974
22749WAT      O68488   5.972   1.255   9.264
22749WAT     H168489   5.949   1.322   9.193
22749WAT     H268490   6.036   1.297   9.329
22750WAT      O68491   6.784   5.477   0.248
22750WAT     H168492   6.804   5.423   0.167
22750WAT     H268493   6.685   5.489   0.255
22751WAT      O68494   3.767   3.522   0.236
22751WAT     H168495   3.801   3.548   0.146
22751WAT     H268496   3.833   3.550   0.306
22752WAT      O68497   9.238   9.260   0.187
22752WAT     H168498   9.138   9.251   0.196
22752WAT     H268499   9.270   9.336   0.244
22753WAT      O68500   4.324   1.303   4.262
22753WAT     H168501   4.401   1.341   4.212
22753WAT     H268502   4.269   1.378   4.300
22754WAT      O68503   8.297   4.417   9.440
22754WAT     H168504   8.252   4.347   9.496
22754WAT     H268505   8.317   4.497   9.497
22755WAT      O68506   4.917   0.027   5.953
22755WAT     H168507   4.895  -0.069   5.969
22755WAT     H268508   5.015   0.036   5.933
22756WAT      O68509   7.523   5.503   0.732
22756WAT     H168510   7.464   5.487   0.653
22756WAT     H268511   7.472   5.554   0.801
22757WAT      O68512   2.647  -0.002   5.917
22757WAT     H168513   2.622   0.095   5.915
22757WAT     H268514   2.564  -0.057   5.926
22758WAT      O68515   7.644   2.464   1.945
22758WAT     H168516   7.710   2.489   1.875
22758WAT     H268517   7.573   2.406   1.905
22759WAT      O68518   5.172   4.075   1.453
22759WAT     H168519   5.265   4.108   1.438
22759WAT     H268520   5.107   4.149   1.438
22760WAT      O68521   6.544   7.394   8.648
22760WAT     H168522   6.632   7.411   8.692
22760WAT     H268523   6.503   7.311   8.687
22761WAT      O68524   7.603   0.254   9.154
22761WAT     H168525   7.554   0.301   9.081
22761WAT     H268526   7.549   0.258   9.239
22762WAT      O68527   3.257   6.928   1.206
22762WAT     H168528   3.345   6.952   1.246
22762WAT     H268529   3.258   6.831   1.180
22763WAT      O68530   0.970   8.001   5.992
22763WAT     H168531   1.069   8.004   6.005
22763WAT     H268532   0.948   8.020   5.896
22764WAT      O68533   4.998   7.607   5.745
22764WAT     H168534   4.979   7.687   5.688
22764WAT     H268535   4.956   7.619   5.835
22765WAT      O68536   9.666   1.224   4.746
22765WAT     H168537   9.615   1.160   4.689
22765WAT     H268538   9.743   1.260   4.694
22766WAT      O68539   3.613   2.718   5.905
22766WAT     H168540   3.541   2.741   5.970
22766WAT     H268541   3.574   2.670   5.827
22767WAT      O68542   0.014   0.790   5.197
22767WAT     H168543  -0.040   0.757   5.275
22767WAT     H268544  -0.047   0.803   5.118
22768WAT      O68545   5.105   8.686   5.620
22768WAT     H168546   5.137   8.759   5.561
22768WAT     H268547   5.098   8.601   5.567
22769WAT      O68548   4.928   4.866   7.851
22769WAT     H168549   4.957   4.939   7.912
22769WAT     H268550   4.866   4.902   7.781
22770WAT      O68551   1.515   8.312   4.936
22770WAT     H168552   1.444   8.357   4.991
22770WAT     H268553   1.602   8.317   4.983
22771WAT      O68554   6.264   5.410   6.070
22771WAT     H168555   6.183   5.390   6.015
22771WAT     H268556   6.257   5.364   6.159
22772WAT      O68557   4.992   4.630   0.951
22772WAT     H168558   4.981   4.666   1.044
22772WAT     H268559   5.089   4.616   0.931
22773WAT      O68560   7.068   7.263   5.707
22773WAT     H168561   6.978   7.234   5.673
22773WAT     H268562   7.119   7.306   5.633
22774WAT      O68563   7.965   8.258   0.568
22774WAT     H168564   7.995   8.264   0.473
22774WAT     H268565   7.929   8.167   0.586
22775WAT      O68566   4.307   6.680   0.620
22775WAT     H168567   4.324   6.771   0.582
22775WAT     H268568   4.348   6.673   0.711
22776WAT      O68569   0.264   7.175   3.118
22776WAT     H168570   0.294   7.086   3.153
22776WAT     H268571   0.218   7.161   3.030
22777WAT      O68572   9.776   6.521   1.981
22777WAT     H168573   9.819   6.455   2.043
22777WAT     H268574   9.678   6.524   1.999
22778WAT      O68575   7.432   9.815   3.708
22778WAT     H168576   7.522   9.800   3.748
22778WAT     H268577   7.365   9.757   3.754
22779WAT      O68578   5.818   6.549   4.907
22779WAT     H168579   5.856   6.633   4.869
22779WAT     H268580   5.827   6.475   4.840
22780WAT      O68581   8.233   1.589   7.740
22780WAT     H168582   8.298   1.551   7.674
22780WAT     H268583   8.270   1.674   7.778
22781WAT      O68584   4.543   0.817   4.953
22781WAT     H168585   4.485   0.851   5.027
22781WAT     H268586   4.616   0.761   4.992
22782WAT      O68587   0.826   2.477   5.228
22782WAT     H168588   0.859   2.431   5.311
22782WAT     H268589   0.896   2.539   5.195
22783WAT      O68590   1.009   7.291   2.217
22783WAT     H168591   0.942   7.226   2.180
22783WAT     H268592   1.064   7.245   2.287
22784WAT      O68593   2.689   6.541   8.513
22784WAT     H168594   2.668   6.465   8.574
22784WAT     H268595   2.617   6.551   8.444
22785WAT      O68596   9.067   7.331   4.510
22785WAT     H168597   8.980   7.379   4.496
22785WAT     H268598   9.140   7.398   4.525
22786WAT      O68599   7.245   6.348   5.174
22786WAT     H168600   7.332   6.389   5.203
22786WAT     H268601   7.206   6.295   5.249
22787WAT      O68602   0.056   6.758   4.508
22787WAT     H168603  -0.019   6.817   4.477
22787WAT     H268604   0.052   6.672   4.457
22788WAT      O68605   9.053   2.329   6.277
22788WAT     H168606   9.057   2.390   6.198
22788WAT     H268607   8.961   2.290   6.284
22789WAT      O68608   9.422   6.301   8.235
22789WAT     H168609   9.436   6.393   8.197
22789WAT     H268610   9.503   6.245   8.217
22790WAT      O68611   9.288   2.902   3.165
22790WAT     H168612   9.261   2.870   3.256
22790WAT     H268613   9.206   2.922   3.111
22791WAT      O68614   5.615   1.614   1.590
22791WAT     H168615   5.637   1.606   1.687
22791WAT     H268616   5.700   1.615   1.537
22792WAT      O68617   1.929   2.596   7.517
22792WAT     H168618   1.981   2.511   7.511
22792WAT     H268619   1.842   2.585   7.468
22793WAT      O68620   2.678   2.523   1.119
22793WAT     H168621   2.746   2.592   1.145
22793WAT     H268622   2.617   2.561   1.049
22794WAT      O68623   6.752   3.765   6.695
22794WAT     H168624   6.734   3.763   6.794
22794WAT     H268625   6.686   3.825   6.651
22795WAT      O68626   2.688   3.194   7.102
22795WAT     H168627   2.638   3.131   7.162
22795WAT     H268628   2.636   3.279   7.093
22796WAT      O68629   4.985   8.694   8.267
22796WAT     H168630   4.961   8.787   8.241
22796WAT     H268631   5.084   8.680   8.255
22797WAT      O68632   5.790   0.357   5.508
22797WAT     H168633   5.702   0.404   5.496
22797WAT     H268634   5.834   0.390   5.591
22798WAT      O68635   6.871   3.123   4.509
22798WAT     H168636   6.961   3.080   4.501
22798WAT     H268637   6.801   3.053   4.514
22799WAT      O68638   5.498   8.557   8.026
22799WAT     H168639   5.402   8.585   8.034
22799WAT     H268640   5.506   8.460   8.048
22800WAT      O68641   3.541   2.395   8.747
22800WAT     H168642   3.576   2.438   8.663
22800WAT     H268643   3.496   2.309   8.724
22801WAT      O68644   3.370   1.913   9.494
22801WAT     H168645   3.361   1.855   9.575
22801WAT     H268646   3.463   1.907   9.458
22802WAT      O68647   4.265   2.596   3.670
22802WAT     H168648   4.207   2.676   3.656
22802WAT     H268649   4.347   2.623   3.722
22803WAT      O68650   6.822   1.200   3.458
22803WAT     H168651   6.726   1.206   3.486
22803WAT     H268652   6.852   1.105   3.462
22804WAT      O68653   0.785   0.457   1.801
22804WAT     H168654   0.844   0.462   1.882
22804WAT     H268655   0.840   0.476   1.719
22805WAT      O68656   6.204   0.682   1.184
22805WAT     H168657   6.142   0.672   1.106
22805WAT     H268658   6.299   0.674   1.153
22806WAT      O68659   6.751   2.641   5.683
22806WAT     H168660   6.746   2.544   5.661
22806WAT     H268661   6.662   2.684   5.670
22807WAT      O68662   4.262   1.078   8.489
22807WAT     H168663   4.180   1.040   8.446
22807WAT     H268664   4.307   1.008   8.544
22808WAT      O68665   6.542   6.407   1.753
22808WAT     H168666   6.584   6.487   1.796
22808WAT     H268667   6.611   6.356   1.701
22809WAT      O68668   3.661   9.059   3.507
22809WAT     H168669   3.604   9.021   3.579
22809WAT     H268670   3.609   9.127   3.455
22810WAT      O68671   8.286   2.945   3.392
22810WAT     H168672   8.337   2.871   3.349
22810WAT     H268673   8.285   2.933   3.491
22811WAT      O68674   1.032   4.941   8.162
22811WAT     H168675   1.056   4.977   8.072
22811WAT     H268676   0.955   4.877   8.152
22812WAT      O68677   3.277   2.611   4.869
22812WAT     H168678   3.344   2.611   4.943
22812WAT     H268679   3.185   2.604   4.908
22813WAT      O68680   1.105   5.513   7.735
22813WAT     H168681   1.180   5.464   7.780
22813WAT     H268682   1.143   5.589   7.682
22814WAT      O68683   1.318   5.909   2.731
22814WAT     H168684   1.401   5.853   2.736
22814WAT     H268685   1.238   5.849   2.728
22815WAT      O68686   6.676   2.349   1.338
22815WAT     H168687   6.578   2.368   1.348
22815WAT     H268688   6.728   2.427   1.372
22816WAT      O68689   1.235   4.384   1.091
22816WAT     H168690   1.321   4.351   1.129
22816WAT     H268691   1.188   4.308   1.045
22817WAT      O68692   6.228   2.989   4.277
22817WAT     H168693   6.306   2.940   4.315
22817WAT     H268694   6.144   2.960   4.323
22818WAT      O68695   8.034   9.284   0.450
22818WAT     H168696   8.127   9.309   0.424
22818WAT     H268697   8.035   9.247   0.543
22819WAT      O68698   6.321   0.473   5.987
22819WAT     H168699   6.370   0.405   6.041
22819WAT     H268700   6.272   0.536   6.048
22820WAT      O68701   0.079   7.981   8.239
22820WAT     H168702   0.008   7.916   8.268
22820WAT     H268703   0.167   7.934   8.231
22821WAT      O68704   1.055   5.165   1.725
22821WAT     H168705   1.096   5.101   1.790
22821WAT     H268706   1.126   5.205   1.668
22822WAT      O68707   0.276   2.003   5.902
22822WAT     H168708   0.332   2.047   5.972
22822WAT     H268709   0.182   2.035   5.910
22823WAT      O68710   2.047   0.738   8.122
22823WAT     H168711   2.089   0.808   8.065
22823WAT     H268712   2.056   0.649   8.078
22824WAT      O68713   9.437   9.675   6.145
22824WAT     H168714   9.410   9.707   6.236
22824WAT     H268715   9.410   9.580   6.133
22825WAT      O68716   5.251   9.684   2.048
22825WAT     H168717   5.239   9.737   2.132
22825WAT     H268718   5.169   9.692   1.992
22826WAT      O68719   2.495   2.592   2.708
22826WAT     H168720   2.496   2.664   2.777
22826WAT     H268721   2.453   2.627   2.624
22827WAT      O68722   6.795   9.482   2.570
22827WAT     H168723   6.860   9.431   2.514
22827WAT     H268724   6.824   9.479   2.666
22828WAT      O68725   7.758   0.247   5.994
22828WAT     H168726   7.791   0.340   6.007
22828WAT     H268727   7.801   0.186   6.060
22829WAT      O68728   2.001   2.080   4.149
22829WAT     H168729   2.058   2.050   4.226
22829WAT     H268730   2.060   2.118   4.077
22830WAT      O68731   3.813   0.772   8.171
22830WAT     H168732   3.865   0.808   8.094
22830WAT     H268733   3.715   0.787   8.156
22831WAT      O68734   9.263   6.894   8.956
22831WAT     H168735   9.272   6.887   9.055
22831WAT     H268736   9.353   6.882   8.913
22832WAT      O68737   3.367   4.459   3.276
22832WAT     H168738   3.309   4.416   3.345
22832WAT     H268739   3.461   4.426   3.287
22833WAT      O68740   5.438   3.357   9.543
22833WAT     H168741   5.479   3.408   9.618
22833WAT     H268742   5.353   3.402   9.514
22834WAT      O68743   0.882   3.699   4.648
22834WAT     H168744   0.908   3.793   4.671
22834WAT     H268745   0.926   3.636   4.712
22835WAT      O68746   0.911   8.924   4.555
22835WAT     H168747   0.840   8.993   4.538
22835WAT     H268748   0.884   8.868   4.634
22836WAT      O68749   5.388   9.639   9.736
22836WAT     H168750   5.309   9.586   9.706
22836WAT     H268751   5.413   9.706   9.666
22837WAT      O68752   2.531   0.979   3.331
22837WAT     H168753   2.554   1.031   3.249
22837WAT     H268754   2.615   0.953   3.379
22838WAT      O68755   5.184   1.071   7.029
22838WAT     H168756   5.261   1.083   7.092
22838WAT     H268757   5.182   0.976   6.998
22839WAT      O68758   4.003   2.937   3.000
22839WAT     H168759   3.968   2.965   2.911
22839WAT     H268760   4.015   3.017   3.059
22840WAT      O68761   9.529   3.182   8.517
22840WAT     H168762   9.496   3.271   8.485
22840WAT     H268763   9.454   3.116   8.514
22841WAT      O68764   1.765   9.454   0.868
22841WAT     H168765   1.730   9.445   0.775
22841WAT     H268766   1.844   9.515   0.868
22842WAT      O68767   1.043   6.736   4.267
22842WAT     H168768   1.048   6.688   4.179
22842WAT     H268769   0.956   6.715   4.312
22843WAT      O68770   2.619   9.289   6.218
22843WAT     H168771   2.539   9.286   6.278
22843WAT     H268772   2.681   9.361   6.248
22844WAT      O68773   9.422   8.393   4.229
22844WAT     H168774   9.436   8.452   4.308
22844WAT     H268775   9.373   8.311   4.257
22845WAT      O68776   0.759   3.253   7.102
22845WAT     H168777   0.807   3.166   7.098
22845WAT     H268778   0.813   3.324   7.057
22846WAT      O68779   0.511   0.395   2.578
22846WAT     H168780   0.452   0.352   2.647
22846WAT     H268781   0.559   0.324   2.527
22847WAT      O68782   6.181   4.714   2.088
22847WAT     H168783   6.177   4.623   2.048
22847WAT     H268784   6.259   4.719   2.150
22848WAT      O68785   4.218   2.740   7.270
22848WAT     H168786   4.190   2.787   7.354
22848WAT     H268787   4.245   2.647   7.292
22849WAT      O68788   1.141   1.051   8.198
22849WAT     H168789   1.228   1.043   8.247
22849WAT     H268790   1.159   1.056   8.100
22850WAT      O68791   1.689   9.110   9.459
22850WAT     H168792   1.631   9.113   9.541
22850WAT     H268793   1.678   9.023   9.413
22851WAT      O68794   3.905   8.130   5.790
22851WAT     H168795   3.952   8.153   5.704
22851WAT     H268796   3.959   8.063   5.841
22852WAT      O68797   5.123   0.750   3.351
22852WAT     H168798   5.081   0.837   3.376
22852WAT     H268799   5.201   0.732   3.410
22853WAT      O68800   1.527   9.603   9.565
22853WAT     H168801   1.581   9.650   9.496
22853WAT     H268802   1.436   9.645   9.571
22854WAT      O68803   4.741   0.173   1.381
22854WAT     H168804   4.648   0.187   1.413
22854WAT     H268805   4.805   0.180   1.458
22855WAT      O68806   1.880   8.634   2.220
22855WAT     H168807   1.962   8.657   2.167
22855WAT     H268808   1.837   8.719   2.252
22856WAT      O68809   7.233   0.198   0.915
22856WAT     H168810   7.235   0.098   0.902
22856WAT     H268811   7.325   0.235   0.901
22857WAT      O68812   9.187   6.329   8.351
22857WAT     H168813   9.182   6.367   8.443
22857WAT     H268814   9.281   6.338   8.317
22858WAT      O68815   0.938   6.583   3.368
22858WAT     H168816   0.864   6.580   3.301
22858WAT     H268817   1.001   6.657   3.345
22859WAT      O68818   1.465   3.153   9.253
22859WAT     H168819   1.546   3.126   9.201
22859WAT     H268820   1.392   3.179   9.189
22860WAT      O68821   9.399   2.575   4.412
22860WAT     H168822   9.476   2.623   4.371
22860WAT     H268823   9.327   2.563   4.344
22861WAT      O68824   9.182   8.496   5.921
22861WAT     H168825   9.105   8.438   5.946
22861WAT     H268826   9.152   8.564   5.855
22862WAT      O68827   0.046   5.732   7.807
22862WAT     H168828   0.003   5.743   7.718
22862WAT     H268829  -0.011   5.774   7.878
22863WAT      O68830   0.589   9.232   2.933
22863WAT     H168831   0.549   9.140   2.925
22863WAT     H268832   0.688   9.225   2.945
22864WAT      O68833   6.761   8.108   6.441
22864WAT     H168834   6.850   8.150   6.460
22864WAT     H268835   6.771   8.043   6.366
22865WAT      O68836   5.714   7.322   4.536
22865WAT     H168837   5.721   7.344   4.633
22865WAT     H268838   5.756   7.395   4.482
22866WAT      O68839   6.844   1.353   8.067
22866WAT     H168840   6.833   1.339   8.165
22866WAT     H268841   6.855   1.451   8.048
22867WAT      O68842   8.581   8.003   6.901
22867WAT     H168843   8.622   7.993   6.992
22867WAT     H268844   8.643   8.056   6.842
22868WAT      O68845   0.750   3.688   4.927
22868WAT     H168846   0.741   3.755   4.854
22868WAT     H268847   0.704   3.604   4.901
22869WAT      O68848   7.279   3.374   3.969
22869WAT     H168849   7.271   3.356   4.067
22869WAT     H268850   7.365   3.336   3.935
22870WAT      O68851   6.163   7.906   7.141
22870WAT     H168852   6.080   7.850   7.133
22870WAT     H268853   6.226   7.883   7.068
22871WAT      O68854   1.609   8.792   7.723
22871WAT     H168855   1.617   8.815   7.625
22871WAT     H268856   1.648   8.701   7.739
22872WAT      O68857   8.236   7.492   0.406
22872WAT     H168858   8.255   7.467   0.311
22872WAT     H268859   8.186   7.418   0.451
22873WAT      O68860   8.008   8.997   4.873
22873WAT     H168861   8.004   8.904   4.838
22873WAT     H268862   7.920   9.021   4.915
22874WAT      O68863   3.962   2.713   4.761
22874WAT     H168864   3.866   2.723   4.735
22874WAT     H268865   4.019   2.771   4.703
22875WAT      O68866   3.277   3.800   1.278
22875WAT     H168867   3.331   3.783   1.195
22875WAT     H268868   3.338   3.821   1.354
22876WAT      O68869   4.462   8.217   0.309
22876WAT     H168870   4.412   8.301   0.331
22876WAT     H268871   4.447   8.149   0.381
22877WAT      O68872   3.307   0.549   1.308
22877WAT     H168873   3.279   0.462   1.267
22877WAT     H268874   3.249   0.569   1.387
22878WAT      O68875   2.811   8.891   3.980
22878WAT     H168876   2.853   8.905   3.891
22878WAT     H268877   2.806   8.793   4.000
22879WAT      O68878   7.398   9.777   7.981
22879WAT     H168879   7.305   9.743   7.995
22879WAT     H268880   7.412   9.861   8.033
22880WAT      O68881   1.855   4.815   4.715
22880WAT     H168882   1.761   4.819   4.749
22880WAT     H268883   1.918   4.806   4.792
22881WAT      O68884   8.472   9.498   6.354
22881WAT     H168885   8.395   9.495   6.417
22881WAT     H268886   8.439   9.492   6.260
22882WAT      O68887   8.420   3.568   4.592
22882WAT     H168888   8.320   3.566   4.595
22882WAT     H268889   8.457   3.522   4.672
22883WAT      O68890   0.915   7.724   5.835
22883WAT     H168891   0.911   7.760   5.742
22883WAT     H268892   0.875   7.633   5.838
22884WAT      O68893   1.790   4.164   4.387
22884WAT     H168894   1.855   4.240   4.395
22884WAT     H268895   1.712   4.182   4.447
22885WAT      O68896   6.578   4.614   8.544
22885WAT     H168897   6.540   4.601   8.452
22885WAT     H268898   6.546   4.541   8.604
22886WAT      O68899   2.242   6.005   2.313
22886WAT     H168900   2.168   5.951   2.352
22886WAT     H268901   2.299   5.945   2.256
22887WAT      O68902   7.024   4.243   6.209
22887WAT     H168903   7.005   4.253   6.307
22887WAT     H268904   7.120   4.264   6.191
22888WAT      O68905   1.034   5.404   1.848
22888WAT     H168906   1.042   5.319   1.796
22888WAT     H268907   0.964   5.394   1.919
22889WAT      O68908   7.103   3.426   8.142
22889WAT     H168909   7.049   3.484   8.204
22889WAT     H268910   7.200   3.434   8.165
22890WAT      O68911   6.280   5.516   8.683
22890WAT     H168912   6.296   5.614   8.693
22890WAT     H268913   6.357   5.466   8.722
22891WAT      O68914   4.428   0.239   0.479
22891WAT     H168915   4.347   0.213   0.425
22891WAT     H268916   4.510   0.207   0.433
22892WAT      O68917   2.614   2.031   5.861
22892WAT     H168918   2.586   2.071   5.773
22892WAT     H268919   2.680   1.958   5.844
22893WAT      O68920   7.074   3.982   7.654
22893WAT     H168921   7.057   3.992   7.556
22893WAT     H268922   7.072   3.885   7.677
22894WAT      O68923   0.148   0.260   7.307
22894WAT     H168924   0.092   0.328   7.261
22894WAT     H268925   0.095   0.217   7.381
22895WAT      O68926   8.813   3.530   2.494
22895WAT     H168927   8.766   3.451   2.455
22895WAT     H268928   8.912   3.517   2.486
22896WAT      O68929   9.017   6.568   0.090
22896WAT     H168930   9.090   6.501   0.104
22896WAT     H268931   9.032   6.615   0.003
22897WAT      O68932   8.658   7.160   8.757
22897WAT     H168933   8.671   7.254   8.789
22897WAT     H268934   8.576   7.155   8.700
22898WAT      O68935   9.708   1.120   3.025
22898WAT     H168936   9.636   1.054   3.008
22898WAT     H268937   9.668   1.211   3.035
22899WAT      O68938   3.411   2.021   2.628
22899WAT     H168939   3.326   1.970   2.622
22899WAT     H268940   3.456   2.002   2.716
22900WAT      O68941   9.529   9.304   0.974
22900WAT     H168942   9.515   9.329   1.070
22900WAT     H268943   9.478   9.366   0.914
22901WAT      O68944   0.890   4.164   9.577
22901WAT     H168945   0.968   4.151   9.515
22901WAT     H268946   0.806   4.132   9.533
22902WAT      O68947   4.286   7.882   8.574
22902WAT     H168948   4.257   7.968   8.532
22902WAT     H268949   4.385   7.871   8.564
22903WAT      O68950   0.076   8.630   1.101
22903WAT     H168951   0.034   8.565   1.038
22903WAT     H268952   0.152   8.675   1.055
22904WAT      O68953   4.820   0.584   1.752
22904WAT     H168954   4.773   0.672   1.749
22904WAT     H268955   4.861   0.571   1.842
22905WAT      O68956   4.251   0.417   1.652
22905WAT     H168957   4.333   0.421   1.593
22905WAT     H268958   4.240   0.324   1.686
22906WAT      O68959   4.104   8.972   3.365
22906WAT     H168960   4.043   9.034   3.412
22906WAT     H268961   4.084   8.973   3.267
22907WAT      O68962   3.426   7.055   4.055
22907WAT     H168963   3.397   7.129   4.115
22907WAT     H268964   3.440   6.972   4.109
22908WAT      O68965   9.108   6.349   6.155
22908WAT     H168966   9.198   6.384   6.130
22908WAT     H268967   9.117   6.262   6.204
22909WAT      O68968   1.892   4.546   4.552
22909WAT     H168969   1.875   4.643   4.572
22909WAT     H268970   1.957   4.510   4.618
22910WAT      O68971   3.247   7.138   5.534
22910WAT     H168972   3.251   7.039   5.544
22910WAT     H268973   3.332   7.178   5.569
22911WAT      O68974   4.646   1.895   3.854
22911WAT     H168975   4.593   1.810   3.845
22911WAT     H268976   4.679   1.922   3.764
22912WAT      O68977   5.617   2.814   3.784
22912WAT     H168978   5.592   2.725   3.745
22912WAT     H268979   5.665   2.868   3.715
22913WAT      O68980   3.619   0.485   3.628
22913WAT     H168981   3.705   0.472   3.579
22913WAT     H268982   3.635   0.543   3.708
22914WAT      O68983   0.223   3.485   2.460
22914WAT     H168984   0.135   3.443   2.480
22914WAT     H268985   0.286   3.417   2.423
22915WAT      O68986   0.850   4.110   1.205
22915WAT     H168987   0.790   4.180   1.165
22915WAT     H268988   0.802   4.023   1.209
22916WAT      O68989   0.631   1.984   3.584
22916WAT     H168990   0.641   1.897   3.632
22916WAT     H268991   0.552   2.034   3.620
22917WAT      O68992   2.024   6.194   8.997
22917WAT     H168993   2.030   6.219   8.900
22917WAT     H268994   1.947   6.131   9.011
22918WAT      O68995   3.047   3.533   0.241
22918WAT     H168996   3.114   3.460   0.254
22918WAT     H268997   3.066   3.607   0.305
22919WAT      O68998   5.539   4.667   3.201
22919WAT     H168999   5.575   4.761   3.197
22919WAT     H269000   5.599   4.612   3.259
22920WAT      O69001   4.167   7.642   8.970
22920WAT     H169002   4.236   7.690   8.915
22920WAT     H269003   4.099   7.600   8.909
22921WAT      O69004   0.634   8.302   2.296
22921WAT     H169005   0.657   8.234   2.365
22921WAT     H269006   0.592   8.382   2.340
22922WAT      O69007   7.645   1.751   8.116
22922WAT     H169008   7.612   1.834   8.162
22922WAT     H269009   7.694   1.775   8.033
22923WAT      O69010   7.857   2.756   0.997
22923WAT     H169011   7.937   2.709   0.959
22923WAT     H269012   7.872   2.774   1.094
22924WAT      O69013   9.251   5.389   6.638
22924WAT     H169014   9.176   5.325   6.656
22924WAT     H269015   9.320   5.344   6.582
22925WAT      O69016   4.867   2.813   5.051
22925WAT     H169017   4.952   2.826   5.000
22925WAT     H269018   4.806   2.891   5.035
22926WAT      O69019   6.220   6.062   2.807
22926WAT     H169020   6.219   5.974   2.854
22926WAT     H269021   6.145   6.119   2.841
22927WAT      O69022   8.401   7.446   7.606
22927WAT     H169023   8.385   7.545   7.597
22927WAT     H269024   8.315   7.397   7.592
22928WAT      O69025   0.963   5.239   7.206
22928WAT     H169026   1.041   5.271   7.259
22928WAT     H269027   0.927   5.314   7.150
22929WAT      O69028   7.284   1.710   0.795
22929WAT     H169029   7.222   1.648   0.747
22929WAT     H269030   7.349   1.749   0.730
22930WAT      O69031   9.643   8.603   0.870
22930WAT     H169032   9.676   8.680   0.817
22930WAT     H269033   9.577   8.635   0.938
22931WAT      O69034   8.888   8.739   7.372
22931WAT     H169035   8.920   8.665   7.431
22931WAT     H269036   8.880   8.706   7.278
22932WAT      O69037   6.065   7.280   1.529
22932WAT     H169038   6.127   7.350   1.492
22932WAT     H269039   6.114   7.224   1.596
22933WAT      O69040   2.827   3.474   0.100
22933WAT     H169041   2.776   3.551   0.061
22933WAT     H269042   2.915   3.506   0.134
22934WAT      O69043   2.437   2.346   9.762
22934WAT     H169044   2.464   2.310   9.673
22934WAT     H269045   2.358   2.406   9.751
22935WAT      O69046   9.006   0.173   9.158
22935WAT     H169047   9.015   0.151   9.255
22935WAT     H269048   9.009   0.272   9.145
22936WAT      O69049   1.409   8.571   3.369
22936WAT     H169050   1.435   8.509   3.295
22936WAT     H269051   1.405   8.664   3.334
22937WAT      O69052   9.379   5.745   8.581
22937WAT     H169053   9.399   5.834   8.540
22937WAT     H269054   9.293   5.709   8.543
22938WAT      O69055   2.692   4.682   8.721
22938WAT     H169056   2.714   4.702   8.625
22938WAT     H269057   2.595   4.661   8.729
22939WAT      O69058   8.235   2.210   7.626
22939WAT     H169059   8.137   2.191   7.629
22939WAT     H269060   8.263   2.256   7.710
22940WAT      O69061   1.718   4.758   1.915
22940WAT     H169062   1.632   4.795   1.951
22940WAT     H269063   1.711   4.751   1.815
22941WAT      O69064   2.823   0.009   8.217
22941WAT     H169065   2.766   0.088   8.194
22941WAT     H269066   2.919   0.033   8.204
22942WAT      O69067   3.397   7.426   8.049
22942WAT     H169068   3.414   7.355   7.981
22942WAT     H269069   3.438   7.512   8.019
22943WAT      O69070   6.991   6.837   1.205
22943WAT     H169071   6.960   6.928   1.176
22943WAT     H269072   7.017   6.841   1.301
22944WAT      O69073   7.210   9.664   1.827
22944WAT     H169074   7.270   9.721   1.882
22944WAT     H269075   7.154   9.722   1.767
22945WAT      O69076   5.962   2.654   7.387
22945WAT     H169077   6.055   2.683   7.364
22945WAT     H269078   5.966   2.572   7.445
22946WAT      O69079   4.726   0.610   1.048
22946WAT     H169080   4.770   0.699   1.045
22946WAT     H269081   4.793   0.540   1.072
22947WAT      O69082   3.073   9.203   0.883
22947WAT     H169083   3.160   9.156   0.871
22947WAT     H269084   3.088   9.293   0.923
22948WAT      O69085   5.726   1.655   3.266
22948WAT     H169086   5.638   1.610   3.284
22948WAT     H269087   5.711   1.754   3.255
22949WAT      O69088   9.290   7.324   5.375
22949WAT     H169089   9.216   7.292   5.316
22949WAT     H269090   9.292   7.424   5.375
22950WAT      O69091   1.695   7.951   7.197
22950WAT     H169092   1.793   7.948   7.217
22950WAT     H269093   1.668   8.046   7.182
22951WAT      O69094   1.354   6.580   2.449
22951WAT     H169095   1.405   6.652   2.402
22951WAT     H269096   1.417   6.509   2.480
22952WAT      O69097   1.940   2.085   5.556
22952WAT     H169098   2.015   2.146   5.531
22952WAT     H269099   1.960   1.992   5.524
22953WAT      O69100   0.899   1.645   1.401
22953WAT     H169101   0.847   1.704   1.340
22953WAT     H269102   0.853   1.640   1.490
22954WAT      O69103   7.123   6.128   4.442
22954WAT     H169104   7.104   6.067   4.519
22954WAT     H269105   7.191   6.196   4.470
22955WAT      O69106   9.048   1.497   7.634
22955WAT     H169107   9.058   1.541   7.545
22955WAT     H269108   9.041   1.398   7.622
22956WAT      O69109   8.349   5.551   8.724
22956WAT     H169110   8.283   5.522   8.793
22956WAT     H269111   8.430   5.589   8.769
22957WAT      O69112   0.759   5.385   9.663
22957WAT     H169113   0.767   5.485   9.671
22957WAT     H269114   0.752   5.345   9.754
22958WAT      O69115   8.016   4.565   1.517
22958WAT     H169116   8.083   4.617   1.463
22958WAT     H269117   8.057   4.480   1.549
22959WAT      O69118   8.843   6.398   6.114
22959WAT     H169119   8.814   6.332   6.183
22959WAT     H269120   8.941   6.415   6.124
22960WAT      O69121   1.619   5.281   0.587
22960WAT     H169122   1.588   5.375   0.600
22960WAT     H269123   1.707   5.281   0.540
22961WAT      O69124   9.259   5.942   4.507
22961WAT     H169125   9.316   5.863   4.483
22961WAT     H269126   9.214   5.924   4.595
22962WAT      O69127   8.283   2.882   9.535
22962WAT     H169128   8.268   2.790   9.499
22962WAT     H269129   8.199   2.915   9.579
22963WAT      O69130   4.010   4.309   5.439
22963WAT     H169131   4.093   4.331   5.388
22963WAT     H269132   4.004   4.210   5.453
22964WAT      O69133   1.871   4.843   3.716
22964WAT     H169134   1.902   4.799   3.800
22964WAT     H269135   1.914   4.799   3.637
22965WAT      O69136   8.915   9.516   7.691
22965WAT     H169137   8.860   9.437   7.718
22965WAT     H269138   9.012   9.493   7.698
22966WAT      O69139   9.883   6.457   1.200
22966WAT     H169140   9.909   6.363   1.179
22966WAT     H269141   9.792   6.458   1.240
22967WAT      O69142   8.525   8.673   8.492
22967WAT     H169143   8.605   8.673   8.432
22967WAT     H269144   8.549   8.711   8.581
22968WAT      O69145   3.685   9.467   4.470
22968WAT     H169146   3.750   9.462   4.393
22968WAT     H269147   3.707   9.546   4.527
22969WAT      O69148   9.303   1.446   3.286
22969WAT     H169149   9.393   1.403   3.289
22969WAT     H269150   9.239   1.386   3.238
22970WAT      O69151   8.229   0.247   6.364
22970WAT     H169152   8.297   0.174   6.357
22970WAT     H269153   8.273   0.332   6.392
22971WAT      O69154   8.484   4.137   7.695
22971WAT     H169155   8.404   4.087   7.663
22971WAT     H269156   8.469   4.235   7.682
22972WAT      O69157   3.682   6.230   9.823
22972WAT     H169158   3.639   6.315   9.855
22972WAT     H269159   3.758   6.206   9.883
22973WAT      O69160   2.062   5.026   3.819
22973WAT     H169161   1.973   4.998   3.785
22973WAT     H269162   2.083   4.977   3.904
22974WAT      O69163   9.891   8.375   8.972
22974WAT     H169164   9.930   8.408   8.886
22974WAT     H269165   9.814   8.434   8.999
22975WAT      O69166   3.834   8.076   7.864
22975WAT     H169167   3.846   8.158   7.808
22975WAT     H269168   3.840   7.994   7.806
22976WAT      O69169   0.691   1.410   6.773
22976WAT     H169170   0.593   1.415   6.750
22976WAT     H269171   0.743   1.469   6.711
22977WAT      O69172   9.182   5.984   4.771
22977WAT     H169173   9.102   5.990   4.831
22977WAT     H269174   9.215   6.077   4.751
22978WAT      O69175   6.920   6.593   2.118
22978WAT     H169176   6.966   6.559   2.200
22978WAT     H269177   6.967   6.558   2.037
22979WAT      O69178   7.884   4.743   2.247
22979WAT     H169179   7.910   4.761   2.341
22979WAT     H269180   7.896   4.825   2.192
22980WAT      O69181   4.918   4.943   7.166
22980WAT     H169182   4.928   4.891   7.081
22980WAT     H269183   4.918   5.041   7.145
22981WAT      O69184   2.875   4.064   3.815
22981WAT     H169185   2.859   4.163   3.818
22981WAT     H269186   2.956   4.045   3.759
22982WAT      O69187   5.228   2.046   8.758
22982WAT     H169188   5.133   2.076   8.748
22982WAT     H269189   5.287   2.125   8.773
22983WAT      O69190   0.169   0.452   3.591
22983WAT     H169191   0.173   0.358   3.559
22983WAT     H269192   0.169   0.514   3.512
22984WAT      O69193   5.910   6.712   8.303
22984WAT     H169194   5.901   6.615   8.280
22984WAT     H269195   5.819   6.752   8.312
22985WAT      O69196   5.873   6.218   7.718
22985WAT     H169197   5.785   6.186   7.753
22985WAT     H269198   5.946   6.187   7.779
22986WAT      O69199   6.972   1.195   6.169
22986WAT     H169200   6.987   1.143   6.085
22986WAT     H269201   6.920   1.278   6.147
22987WAT      O69202   7.734   4.699   1.937
22987WAT     H169203   7.800   4.690   1.862
22987WAT     H269204   7.711   4.796   1.949
22988WAT      O69205   6.604   2.897   2.875
22988WAT     H169206   6.523   2.922   2.929
22988WAT     H269207   6.682   2.884   2.936
22989WAT      O69208   5.839   2.742   9.114
22989WAT     H169209   5.849   2.784   9.024
22989WAT     H269210   5.782   2.660   9.106
22990WAT      O69211   4.380   8.657   4.891
22990WAT     H169212   4.409   8.605   4.972
22990WAT     H269213   4.281   8.657   4.885
22991WAT      O69214   8.161   2.074   2.269
22991WAT     H169215   8.209   1.989   2.291
22991WAT     H269216   8.189   2.105   2.178
22992WAT      O69217   4.762   9.046   1.247
22992WAT     H169218   4.765   8.990   1.165
22992WAT     H269219   4.778   9.142   1.224
22993WAT      O69220   4.348   0.093   5.399
22993WAT     H169221   4.401   0.009   5.387
22993WAT     H269222   4.357   0.151   5.317
22994WAT      O69223   7.511   3.583   5.354
22994WAT     H169224   7.413   3.576   5.368
22994WAT     H269225   7.551   3.491   5.346
22995WAT      O69226   0.195   1.856   7.393
22995WAT     H169227   0.150   1.782   7.343
22995WAT     H269228   0.272   1.891   7.339
22996WAT      O69229   7.730   6.570   9.559
22996WAT     H169230   7.798   6.502   9.585
22996WAT     H269231   7.647   6.524   9.527
22997WAT      O69232   0.189   5.539   5.575
22997WAT     H169233   0.228   5.631   5.581
22997WAT     H269234   0.240   5.485   5.507
22998WAT      O69235   3.902   3.840   2.134
22998WAT     H169236   3.899   3.791   2.047
22998WAT     H269237   3.823   3.901   2.142
22999WAT      O69238   6.815   8.138   7.496
22999WAT     H169239   6.728   8.091   7.511
22999WAT     H269240   6.860   8.154   7.584
23000WAT      O69241   6.459   8.885   7.744
23000WAT     H169242   6.467   8.835   7.658
23000WAT     H269243   6.481   8.825   7.820
23001WAT      O69244   0.261   6.953   5.926
23001WAT     H169245   0.307   6.897   5.995
23001WAT     H269246   0.245   6.898   5.844
23002WAT      O69247   5.181   1.510   0.348
23002WAT     H169248   5.123   1.440   0.306
23002WAT     H269249   5.256   1.532   0.285
23003WAT      O69250   2.402   5.334   4.059
23003WAT     H169251   2.417   5.417   4.113
23003WAT     H269252   2.335   5.276   4.105
23004WAT      O69253   6.388   4.662   1.237
23004WAT     H169254   6.296   4.626   1.252
23004WAT     H269255   6.412   4.654   1.140
23005WAT      O69256   1.576   0.086   9.600
23005WAT     H169257   1.641   0.056   9.529
23005WAT     H269258   1.568   0.186   9.596
23006WAT      O69259   2.626   2.565   9.864
23006WAT     H169260   2.716   2.557   9.821
23006WAT     H269261   2.583   2.475   9.869
23007WAT      O69262   6.352   2.492   5.786
23007WAT     H169263   6.329   2.523   5.878
23007WAT     H269264   6.398   2.565   5.736
23008WAT      O69265   6.106   3.386   4.692
23008WAT     H169266   6.053   3.371   4.775
23008WAT     H269267   6.091   3.311   4.628
23009WAT      O69268   2.011   5.572   6.767
23009WAT     H169269   2.039   5.577   6.671
23009WAT     H269270   1.975   5.480   6.785
23010WAT      O69271   8.690   5.997   7.429
23010WAT     H169272   8.776   5.946   7.428
23010WAT     H269273   8.625   5.955   7.365
23011WAT      O69274   8.282   3.102   3.067
23011WAT     H169275   8.214   3.048   3.017
23011WAT     H269276   8.249   3.121   3.159
23012WAT      O69277   3.624   0.915   1.471
23012WAT     H169278   3.625   0.991   1.537
23012WAT     H269279   3.717   0.878   1.462
23013WAT      O69280   0.803   4.799   3.914
23013WAT     H169281   0.828   4.890   3.881
23013WAT     H269282   0.790   4.737   3.837
23014WAT      O69283   6.698   1.738   7.159
23014WAT     H169284   6.690   1.776   7.067
23014WAT     H269285   6.615   1.689   7.183
23015WAT      O69286   9.817   3.168   6.769
23015WAT     H169287   9.865   3.213   6.694
23015WAT     H269288   9.743   3.112   6.733
23016WAT      O69289   7.023   0.556   0.473
23016WAT     H169290   6.935   0.586   0.511
23016WAT     H269291   7.093   0.558   0.544
23017WAT      O69292   7.799   0.817   4.460
23017WAT     H169293   7.720   0.784   4.409
23017WAT     H269294   7.785   0.913   4.484
23018WAT      O69295   2.306   3.313   6.551
23018WAT     H169296   2.280   3.298   6.647
23018WAT     H269297   2.405   3.325   6.545
23019WAT      O69298   7.506   3.971   8.698
23019WAT     H169299   7.449   3.892   8.675
23019WAT     H269300   7.602   3.943   8.706
23020WAT      O69301   3.985   1.198   2.784
23020WAT     H169302   3.937   1.182   2.870
23020WAT     H269303   4.040   1.118   2.761
23021WAT      O69304   6.788   4.281   2.966
23021WAT     H169305   6.848   4.303   3.043
23021WAT     H269306   6.730   4.360   2.946
23022WAT      O69307   1.756   0.351   0.241
23022WAT     H169308   1.853   0.374   0.239
23022WAT     H269309   1.702   0.430   0.212
23023WAT      O69310   9.809   4.045   8.091
23023WAT     H169311   9.756   4.057   8.006
23023WAT     H269312   9.801   4.129   8.146
23024WAT      O69313   8.323   2.666   9.083
23024WAT     H169314   8.414   2.701   9.106
23024WAT     H269315   8.295   2.702   8.995
23025WAT      O69316   2.586   6.230   6.367
23025WAT     H169317   2.554   6.151   6.314
23025WAT     H269318   2.680   6.214   6.397
23026WAT      O69319   4.372   4.387   6.201
23026WAT     H169320   4.314   4.464   6.228
23026WAT     H269321   4.341   4.351   6.113
23027WAT      O69322   6.465   4.872   5.110
23027WAT     H169323   6.373   4.912   5.119
23027WAT     H269324   6.472   4.825   5.022
23028WAT      O69325   6.675   1.985   5.360
23028WAT     H169326   6.774   2.001   5.370
23028WAT     H269327   6.638   1.955   5.448
23029WAT      O69328   4.501   4.976   4.707
23029WAT     H169329   4.425   4.923   4.669
23029WAT     H269330   4.477   5.009   4.798
23030WAT      O69331   8.703   6.973   1.082
23030WAT     H169332   8.731   7.050   1.139
23030WAT     H269333   8.745   6.889   1.116
23031WAT      O69334   1.055   2.333   7.917
23031WAT     H169335   1.010   2.289   7.839
23031WAT     H269336   1.066   2.266   7.991
23032WAT      O69337   4.979   2.981   9.827
23032WAT     H169338   4.888   2.966   9.864
23032WAT     H269339   5.028   3.047   9.884
23033WAT      O69340   0.951   4.658   8.632
23033WAT     H169341   0.909   4.614   8.711
23033WAT     H269342   1.033   4.608   8.606
23034WAT      O69343   9.288   4.286   5.060
23034WAT     H169344   9.250   4.378   5.052
23034WAT     H269345   9.339   4.278   5.145
23035WAT      O69346   2.945   8.449   0.073
23035WAT     H169347   3.022   8.512   0.082
23035WAT     H269348   2.922   8.439  -0.024
23036WAT      O69349   4.395   1.786   0.893
23036WAT     H169350   4.336   1.786   0.812
23036WAT     H269351   4.477   1.840   0.874
23037WAT      O69352   7.965   6.315   2.580
23037WAT     H169353   7.891   6.314   2.647
23037WAT     H269354   7.948   6.245   2.510
23038WAT      O69355   0.697   4.076   1.959
23038WAT     H169356   0.756   4.154   1.935
23038WAT     H269357   0.753   4.004   1.999
23039WAT      O69358   4.303   1.386   7.233
23039WAT     H169359   4.366   1.318   7.196
23039WAT     H269360   4.261   1.437   7.158
23040WAT      O69361   3.060   0.798   8.310
23040WAT     H169362   3.043   0.870   8.378
23040WAT     H269363   2.977   0.745   8.297
23041WAT      O69364   7.164   4.035   4.278
23041WAT     H169365   7.221   4.117   4.270
23041WAT     H269366   7.072   4.061   4.306
23042WAT      O69367   1.524   0.756   8.538
23042WAT     H169368   1.504   0.743   8.441
23042WAT     H269369   1.618   0.789   8.548
23043WAT      O69370   3.190   2.165   8.228
23043WAT     H169371   3.256   2.130   8.295
23043WAT     H269372   3.101   2.176   8.272
23044WAT      O69373   0.630   5.340   1.445
23044WAT     H169374   0.592   5.257   1.484
23044WAT     H269375   0.599   5.350   1.350
23045WAT      O69376   6.063   2.543   5.458
23045WAT     H169377   6.048   2.523   5.555
23045WAT     H269378   6.143   2.493   5.425
23046WAT      O69379   2.149   5.290   8.597
23046WAT     H169380   2.160   5.356   8.672
23046WAT     H269381   2.185   5.201   8.626
23047WAT      O69382   5.084   2.532   1.012
23047WAT     H169383   5.090   2.632   1.018
23047WAT     H269384   5.123   2.492   1.095
23048WAT      O69385   6.976   0.271   6.723
23048WAT     H169386   7.037   0.198   6.754
23048WAT     H269387   7.021   0.323   6.650
23049WAT      O69388   4.403   5.697   0.999
23049WAT     H169389   4.350   5.760   1.056
23049WAT     H269390   4.343   5.650   0.936
23050WAT      O69391   3.633   7.299   7.561
23050WAT     H169392   3.573   7.368   7.600
23050WAT     H269393   3.652   7.229   7.630
23051WAT      O69394   3.399   6.116   3.731
23051WAT     H169395   3.396   6.089   3.635
23051WAT     H269396   3.459   6.054   3.781
23052WAT      O69397   7.325   8.684   4.382
23052WAT     H169398   7.237   8.651   4.417
23052WAT     H269399   7.374   8.608   4.340
23053WAT      O69400   4.502   8.000   4.611
23053WAT     H169401   4.507   7.906   4.646
23053WAT     H269402   4.578   8.053   4.648
23054WAT      O69403   9.096   6.397   1.879
23054WAT     H169404   9.195   6.385   1.870
23054WAT     H269405   9.068   6.481   1.832
23055WAT      O69406   5.994   3.172   0.790
23055WAT     H169407   6.030   3.110   0.721
23055WAT     H269408   5.912   3.133   0.831
23056WAT      O69409   9.503   5.057   1.607
23056WAT     H169410   9.602   5.065   1.620
23056WAT     H269411   9.483   5.043   1.510
23057WAT      O69412   1.762   2.742   6.565
23057WAT     H169413   1.722   2.651   6.577
23057WAT     H269414   1.691   2.806   6.536
23058WAT      O69415   8.637   5.353   0.154
23058WAT     H169416   8.643   5.281   0.084
23058WAT     H269417   8.548   5.398   0.148
23059WAT      O69418   8.980   6.334   9.480
23059WAT     H169419   8.881   6.346   9.472
23059WAT     H269420   9.022   6.337   9.389
23060WAT      O69421   0.638   4.669   9.530
23060WAT     H169422   0.597   4.631   9.613
23060WAT     H269423   0.737   4.654   9.532
23061WAT      O69424   7.677   4.320   5.049
23061WAT     H169425   7.675   4.313   4.949
23061WAT     H269426   7.756   4.375   5.076
23062WAT      O69427   6.221   5.244   5.030
23062WAT     H169428   6.261   5.174   5.089
23062WAT     H269429   6.172   5.311   5.086
23063WAT      O69430   0.889   0.349   9.270
23063WAT     H169431   0.903   0.440   9.311
23063WAT     H269432   0.951   0.284   9.314
23064WAT      O69433   3.509   0.908   5.462
23064WAT     H169434   3.424   0.903   5.410
23064WAT     H269435   3.509   0.989   5.520
23065WAT      O69436   9.508   2.227   0.970
23065WAT     H169437   9.447   2.266   0.899
23065WAT     H269438   9.485   2.131   0.983
23066WAT      O69439   6.056   8.213   7.608
23066WAT     H169440   6.125   8.278   7.640
23066WAT     H269441   5.993   8.193   7.682
23067WAT      O69442   1.189   1.272   4.069
23067WAT     H169443   1.164   1.274   3.972
23067WAT     H269444   1.197   1.178   4.099
23068WAT      O69445   7.670   7.258   4.732
23068WAT     H169446   7.583   7.282   4.690
23068WAT     H269447   7.709   7.179   4.684
23069WAT      O69448   3.782   6.900   7.342
23069WAT     H169449   3.810   6.964   7.271
23069WAT     H269450   3.685   6.877   7.331
23070WAT      O69451   8.389   3.027   8.773
23070WAT     H169452   8.433   3.117   8.778
23070WAT     H269453   8.412   2.974   8.855
23071WAT      O69454   2.823   9.221   5.983
23071WAT     H169455   2.729   9.255   5.974
23071WAT     H269456   2.875   9.245   5.900
23072WAT      O69457   8.449   3.064   5.635
23072WAT     H169458   8.397   3.041   5.717
23072WAT     H269459   8.500   3.148   5.651
23073WAT      O69460   5.565   0.786   6.753
23073WAT     H169461   5.558   0.855   6.826
23073WAT     H269462   5.495   0.804   6.684
23074WAT      O69463   6.640   1.451   0.061
23074WAT     H169464   6.569   1.420  -0.001
23074WAT     H269465   6.666   1.546   0.039
23075WAT      O69466   7.443   1.826   5.359
23075WAT     H169467   7.421   1.744   5.306
23075WAT     H269468   7.420   1.811   5.455
23076WAT      O69469   6.513   5.870   2.558
23076WAT     H169470   6.596   5.890   2.507
23076WAT     H269471   6.494   5.945   2.622
23077WAT      O69472   3.860   5.285   5.328
23077WAT     H169473   3.879   5.295   5.230
23077WAT     H269474   3.945   5.270   5.377
23078WAT      O69475   2.671   1.679   7.799
23078WAT     H169476   2.659   1.581   7.782
23078WAT     H269477   2.737   1.692   7.873
23079WAT      O69478   6.240   0.127   9.541
23079WAT     H169479   6.241   0.218   9.499
23079WAT     H269480   6.145   0.095   9.548
23080WAT      O69481   7.141   4.236   9.288
23080WAT     H169482   7.189   4.200   9.208
23080WAT     H269483   7.073   4.169   9.319
23081WAT      O69484   6.537   3.221   9.593
23081WAT     H169485   6.578   3.159   9.660
23081WAT     H269486   6.475   3.285   9.638
23082WAT      O69487   7.974   7.949   7.234
23082WAT     H169488   7.940   7.960   7.141
23082WAT     H269489   8.068   7.984   7.240
23083WAT      O69490   7.394   2.853   5.082
23083WAT     H169491   7.325   2.889   5.145
23083WAT     H269492   7.385   2.753   5.077
23084WAT      O69493   5.279   7.250   4.652
23084WAT     H169494   5.351   7.270   4.587
23084WAT     H269495   5.241   7.335   4.688
23085WAT      O69496   1.895   7.219   6.387
23085WAT     H169497   1.821   7.179   6.334
23085WAT     H269498   1.910   7.314   6.358
23086WAT      O69499   4.451   7.012   8.825
23086WAT     H169500   4.527   7.042   8.767
23086WAT     H269501   4.419   6.922   8.795
23087WAT      O69502   1.402   8.554   9.065
23087WAT     H169503   1.371   8.535   9.158
23087WAT     H269504   1.344   8.505   9.000
23088WAT      O69505   1.791   6.562   4.827
23088WAT     H169506   1.699   6.523   4.823
23088WAT     H269507   1.855   6.493   4.860
23089WAT      O69508   9.105   6.117   6.245
23089WAT     H169509   9.151   6.032   6.220
23089WAT     H269510   9.009   6.098   6.268
23090WAT      O69511   8.142   5.529   1.778
23090WAT     H169512   8.060   5.579   1.751
23090WAT     H269513   8.180   5.569   1.861
23091WAT      O69514   3.897   1.315   7.060
23091WAT     H169515   3.817   1.356   7.016
23091WAT     H269516   3.979   1.364   7.031
23092WAT      O69517   3.176   7.136   1.047
23092WAT     H169518   3.266   7.173   1.023
23092WAT     H269519   3.187   7.057   1.106
23093WAT      O69520   6.897   1.544   0.841
23093WAT     H169521   6.854   1.622   0.796
23093WAT     H269522   6.981   1.520   0.792
23094WAT      O69523   0.498   8.418   2.513
23094WAT     H169524   0.545   8.372   2.589
23094WAT     H269525   0.477   8.512   2.540
23095WAT      O69526   1.346   7.189   0.142
23095WAT     H169527   1.428   7.231   0.105
23095WAT     H269528   1.344   7.092   0.117
23096WAT      O69529   6.153   9.572   2.314
23096WAT     H169530   6.212   9.524   2.249
23096WAT     H269531   6.057   9.561   2.288
23097WAT      O69532   9.280   8.769   4.832
23097WAT     H169533   9.358   8.733   4.884
23097WAT     H269534   9.231   8.836   4.887
23098WAT      O69535   7.119   2.907   5.331
23098WAT     H169536   7.173   2.983   5.295
23098WAT     H269537   7.043   2.887   5.268
23099WAT      O69538   4.518   4.391   9.779
23099WAT     H169539   4.438   4.431   9.734
23099WAT     H269540   4.500   4.295   9.801
23100WAT      O69541   8.843   6.019   9.240
23100WAT     H169542   8.826   6.097   9.300
23100WAT     H269543   8.866   5.939   9.295
23101WAT      O69544   2.125   0.491   9.098
23101WAT     H169545   2.191   0.539   9.041
23101WAT     H269546   2.165   0.473   9.188
23102WAT      O69547   4.815   2.145   0.307
23102WAT     H169548   4.803   2.200   0.390
23102WAT     H269549   4.839   2.051   0.332
23103WAT      O69550   1.662   2.428   2.673
23103WAT     H169551   1.704   2.354   2.620
23103WAT     H269552   1.727   2.460   2.743
23104WAT      O69553   4.589   3.409   8.522
23104WAT     H169554   4.612   3.343   8.450
23104WAT     H269555   4.586   3.501   8.483
23105WAT      O69556   7.084   5.374   2.111
23105WAT     H169557   7.037   5.389   2.198
23105WAT     H269558   7.036   5.303   2.059
23106WAT      O69559   3.558   6.987   5.061
23106WAT     H169560   3.603   6.912   5.012
23106WAT     H269561   3.627   7.050   5.095
23107WAT      O69562   7.084   6.159   7.598
23107WAT     H169563   7.019   6.170   7.674
23107WAT     H269564   7.103   6.249   7.558
23108WAT      O69565   1.120   3.980   4.506
23108WAT     H169566   1.115   4.013   4.412
23108WAT     H269567   1.164   3.890   4.508
23109WAT      O69568   5.733   6.562   0.982
23109WAT     H169569   5.734   6.633   1.053
23109WAT     H269570   5.769   6.477   1.020
23110WAT      O69571   9.412   0.373   7.356
23110WAT     H169572   9.458   0.364   7.444
23110WAT     H269573   9.464   0.322   7.286
23111WAT      O69574   7.367   4.272   5.360
23111WAT     H169575   7.288   4.300   5.306
23111WAT     H269576   7.336   4.239   5.449
23112WAT      O69577   0.296   8.552   6.079
23112WAT     H169578   0.275   8.458   6.054
23112WAT     H269579   0.292   8.610   5.997
23113WAT      O69580   2.530   3.175   3.387
23113WAT     H169581   2.577   3.260   3.410
23113WAT     H269582   2.597   3.109   3.351
23114WAT      O69583   0.458   7.356   6.531
23114WAT     H169584   0.399   7.432   6.558
23114WAT     H269585   0.536   7.392   6.480
23115WAT      O69586   8.720   6.159   7.634
23115WAT     H169587   8.695   6.077   7.582
23115WAT     H269588   8.816   6.153   7.660
23116WAT      O69589   5.717   2.508   1.207
23116WAT     H169590   5.710   2.436   1.277
23116WAT     H269591   5.752   2.469   1.122
23117WAT      O69592   1.776   3.261   0.772
23117WAT     H169593   1.707   3.298   0.834
23117WAT     H269594   1.868   3.287   0.804
23118WAT      O69595   3.553   1.409   8.898
23118WAT     H169596   3.467   1.458   8.909
23118WAT     H269597   3.622   1.448   8.959
23119WAT      O69598   4.963   4.236   2.044
23119WAT     H169599   4.992   4.208   1.953
23119WAT     H269600   4.926   4.156   2.093
23120WAT      O69601   0.617   0.220   7.851
23120WAT     H169602   0.613   0.174   7.940
23120WAT     H269603   0.607   0.318   7.863
23121WAT      O69604   5.409   2.670   6.783
23121WAT     H169605   5.359   2.752   6.755
23121WAT     H269606   5.504   2.693   6.801
23122WAT      O69607   5.196   1.089   4.854
23122WAT     H169608   5.268   1.081   4.922
23122WAT     H269609   5.108   1.102   4.900
23123WAT      O69610   5.835   0.782   6.270
23123WAT     H169611   5.803   0.877   6.277
23123WAT     H269612   5.889   0.771   6.187
23124WAT      O69613   2.127   8.119   5.560
23124WAT     H169614   2.167   8.181   5.492
23124WAT     H269615   2.093   8.037   5.514
23125WAT      O69616   3.149   7.198   7.816
23125WAT     H169617   3.121   7.102   7.826
23125WAT     H269618   3.231   7.215   7.871
23126WAT      O69619   2.054   9.408   5.295
23126WAT     H169620   2.075   9.315   5.323
23126WAT     H269621   1.956   9.426   5.305
23127WAT      O69622   7.588   0.068   8.519
23127WAT     H169623   7.534   0.065   8.435
23127WAT     H269624   7.678   0.027   8.503
23128WAT      O69625   7.413   2.337   7.892
23128WAT     H169626   7.475   2.369   7.821
23128WAT     H269627   7.319   2.357   7.865
23129WAT      O69628   8.217   6.628   4.254
23129WAT     H169629   8.257   6.540   4.280
23129WAT     H269630   8.136   6.612   4.197
23130WAT      O69631   2.655   5.342   2.262
23130WAT     H169632   2.560   5.316   2.277
23130WAT     H269633   2.707   5.261   2.235
23131WAT      O69634   9.226   9.692   5.010
23131WAT     H169635   9.216   9.704   4.911
23131WAT     H269636   9.213   9.595   5.032
23132WAT      O69637   0.318   9.004   9.175
23132WAT     H169638   0.306   9.019   9.077
23132WAT     H269639   0.395   8.942   9.190
23133WAT      O69640   1.868   9.322   6.142
23133WAT     H169641   1.891   9.260   6.068
23133WAT     H269642   1.830   9.271   6.219
23134WAT      O69643   4.903   7.890   0.855
23134WAT     H169644   4.822   7.840   0.887
23134WAT     H269645   4.920   7.868   0.759
23135WAT      O69646   1.629   3.390   3.286
23135WAT     H169647   1.555   3.454   3.263
23135WAT     H269648   1.715   3.423   3.246
23136WAT      O69649   7.782   8.610   1.484
23136WAT     H169650   7.731   8.693   1.505
23136WAT     H269651   7.874   8.634   1.454
23137WAT      O69652   7.690   2.649   7.990
23137WAT     H169653   7.631   2.729   7.979
23137WAT     H269654   7.685   2.593   7.907
23138WAT      O69655   7.756   6.991   5.060
23138WAT     H169656   7.818   7.065   5.034
23138WAT     H269657   7.756   6.921   4.988
23139WAT      O69658   5.451   6.506   8.376
23139WAT     H169659   5.414   6.594   8.345
23139WAT     H269660   5.539   6.488   8.332
23140WAT      O69661   5.268   4.849   1.911
23140WAT     H169662   5.226   4.919   1.969
23140WAT     H269663   5.202   4.775   1.897
23141WAT      O69664   3.423   9.041   8.212
23141WAT     H169665   3.484   9.072   8.139
23141WAT     H269666   3.451   8.949   8.242
23142WAT      O69667   2.340   7.039   5.573
23142WAT     H169668   2.405   7.110   5.547
23142WAT     H269669   2.328   7.040   5.673
23143WAT      O69670   3.030   3.745   9.484
23143WAT     H169671   2.990   3.822   9.533
23143WAT     H269672   3.038   3.667   9.546
23144WAT      O69673   5.720   8.287   7.541
23144WAT     H169674   5.670   8.208   7.578
23144WAT     H269675   5.811   8.291   7.581
23145WAT      O69676   5.542   8.230   3.494
23145WAT     H169677   5.591   8.171   3.430
23145WAT     H269678   5.555   8.326   3.469
23146WAT      O69679   6.752   2.237   1.109
23146WAT     H169680   6.720   2.302   1.177
23146WAT     H269681   6.836   2.193   1.141
23147WAT      O69682   0.301   6.714   0.379
23147WAT     H169683   0.366   6.691   0.306
23147WAT     H269684   0.326   6.665   0.463
23148WAT      O69685   0.811   2.265   2.272
23148WAT     H169686   0.724   2.299   2.308
23148WAT     H269687   0.812   2.275   2.172
23149WAT      O69688   2.160   3.277   3.957
23149WAT     H169689   2.191   3.347   3.893
23149WAT     H269690   2.071   3.303   3.994
23150WAT      O69691   9.574   2.197   9.569
23150WAT     H169692   9.641   2.134   9.608
23150WAT     H269693   9.489   2.191   9.621
23151WAT      O69694   4.888   8.091   7.716
23151WAT     H169695   4.931   8.074   7.805
23151WAT     H269696   4.917   8.022   7.651
23152WAT      O69697   6.465   7.963   7.755
23152WAT     H169698   6.385   7.911   7.785
23152WAT     H269699   6.468   7.964   7.655
23153WAT      O69700   8.999   4.360   5.916
23153WAT     H169701   8.935   4.433   5.892
23153WAT     H269702   9.018   4.304   5.835
23154WAT      O69703   6.806   6.837   8.279
23154WAT     H169704   6.735   6.779   8.238
23154WAT     H269705   6.842   6.899   8.210
23155WAT      O69706   5.528   3.030   5.546
23155WAT     H169707   5.437   3.012   5.511
23155WAT     H269708   5.568   3.108   5.499
23156WAT      O69709   3.933   8.285   7.088
23156WAT     H169710   4.019   8.234   7.078
23156WAT     H269711   3.917   8.303   7.185
23157WAT      O69712   0.122   3.870   0.422
23157WAT     H169713   0.093   3.890   0.329
23157WAT     H269714   0.059   3.804   0.464
23158WAT      O69715   2.899   3.393   3.299
23158WAT     H169716   2.966   3.467   3.300
23158WAT     H269717   2.924   3.324   3.366
23159WAT      O69718   0.613   6.594   1.248
23159WAT     H169719   0.694   6.644   1.216
23159WAT     H269720   0.642   6.511   1.296
23160WAT      O69721   5.932   3.015   5.677
23160WAT     H169722   5.930   3.060   5.766
23160WAT     H269723   5.861   2.943   5.674
23161WAT      O69724   4.931   8.885   3.434
23161WAT     H169725   4.894   8.933   3.513
23161WAT     H269726   4.943   8.950   3.358
23162WAT      O69727   0.076   2.873   2.659
23162WAT     H169728   0.131   2.937   2.605
23162WAT     H269729   0.010   2.827   2.600
23163WAT      O69730   3.815   7.611   3.357
23163WAT     H169731   3.908   7.600   3.392
23163WAT     H269732   3.769   7.684   3.408
23164WAT      O69733   3.525   1.326   2.155
23164WAT     H169734   3.460   1.380   2.102
23164WAT     H269735   3.568   1.385   2.223
23165WAT      O69736   8.803   4.665   2.001
23165WAT     H169737   8.833   4.659   2.096
23165WAT     H269738   8.704   4.679   1.998
23166WAT      O69739   3.026   7.545   2.885
23166WAT     H169740   2.991   7.501   2.968
23166WAT     H269741   2.968   7.521   2.807
23167WAT      O69742   9.160   3.294   2.090
23167WAT     H169743   9.168   3.232   2.011
23167WAT     H269744   9.132   3.384   2.058
23168WAT      O69745   9.243   1.017   6.526
23168WAT     H169746   9.231   1.113   6.499
23168WAT     H269747   9.271   1.013   6.622
23169WAT      O69748   6.727   0.549   2.114
23169WAT     H169749   6.822   0.569   2.092
23169WAT     H269750   6.719   0.453   2.142
23170WAT      O69751   5.102   1.123   1.346
23170WAT     H169752   5.156   1.043   1.320
23170WAT     H269753   5.161   1.189   1.392
23171WAT      O69754   0.535   3.953   3.719
23171WAT     H169755   0.612   3.916   3.666
23171WAT     H269756   0.460   3.974   3.657
23172WAT      O69757   8.733   9.335   7.991
23172WAT     H169758   8.827   9.307   7.972
23172WAT     H269759   8.721   9.431   7.966
23173WAT      O69760   2.213   7.608   7.732
23173WAT     H169761   2.305   7.646   7.726
23173WAT     H269762   2.176   7.596   7.640
23174WAT      O69763   7.572   7.572   8.511
23174WAT     H169764   7.539   7.667   8.517
23174WAT     H269765   7.494   7.510   8.505
23175WAT      O69766   2.968   6.655   8.591
23175WAT     H169767   2.930   6.618   8.676
23175WAT     H269768   2.901   6.644   8.517
23176WAT      O69769   9.077   4.901   3.930
23176WAT     H169770   9.155   4.851   3.969
23176WAT     H269771   9.098   4.928   3.837
23177WAT      O69772   0.953   8.477   5.305
23177WAT     H169773   0.953   8.385   5.266
23177WAT     H269774   0.874   8.527   5.270
23178WAT      O69775   0.776   7.908   3.593
23178WAT     H169776   0.820   7.944   3.511
23178WAT     H269777   0.806   7.813   3.607
23179WAT      O69778   6.527   9.057   5.426
23179WAT     H169779   6.608   9.004   5.403
23179WAT     H269780   6.493   9.027   5.516
23180WAT      O69781   9.278   1.867   9.060
23180WAT     H169782   9.290   1.767   9.058
23180WAT     H269783   9.331   1.908   8.986
23181WAT      O69784   3.666   3.007   3.376
23181WAT     H169785   3.680   3.044   3.468
23181WAT     H269786   3.755   2.998   3.331
23182WAT      O69787   7.680   9.288   1.227
23182WAT     H169788   7.712   9.337   1.308
23182WAT     H269789   7.727   9.323   1.146
23183WAT      O69790   6.929   6.116   9.748
23183WAT     H169791   6.842   6.148   9.786
23183WAT     H269792   6.940   6.152   9.655
23184WAT      O69793   0.780   9.432   0.344
23184WAT     H169794   0.725   9.481   0.276
23184WAT     H269795   0.765   9.334   0.334
23185WAT      O69796   6.242   5.365   1.923
23185WAT     H169797   6.270   5.447   1.973
23185WAT     H269798   6.144   5.370   1.902
23186WAT      O69799   0.211   7.143   1.863
23186WAT     H169800   0.214   7.068   1.929
23186WAT     H269801   0.304   7.170   1.839
23187WAT      O69802   1.111   7.722   6.602
23187WAT     H169803   1.087   7.686   6.512
23187WAT     H269804   1.034   7.774   6.638
23188WAT      O69805   8.823   7.915   6.115
23188WAT     H169806   8.910   7.867   6.130
23188WAT     H269807   8.773   7.869   6.041
23189WAT      O69808   4.280   6.021   5.052
23189WAT     H169809   4.335   6.081   4.993
23189WAT     H269810   4.256   6.071   5.135
23190WAT      O69811   7.637   4.453   4.257
23190WAT     H169812   7.735   4.444   4.236
23190WAT     H269813   7.595   4.362   4.259
23191WAT      O69814   7.479   3.482   4.769
23191WAT     H169815   7.505   3.573   4.735
23191WAT     H269816   7.385   3.462   4.742
23192WAT      O69817   5.504   7.887   6.835
23192WAT     H169818   5.533   7.839   6.918
23192WAT     H269819   5.415   7.852   6.806
23193WAT      O69820   8.443   6.476   0.954
23193WAT     H169821   8.381   6.554   0.948
23193WAT     H269822   8.447   6.444   1.049
23194WAT      O69823   8.436   8.409   8.362
23194WAT     H169824   8.362   8.345   8.379
23194WAT     H269825   8.491   8.419   8.445
23195WAT      O69826   0.490   5.293   9.581
23195WAT     H169827   0.494   5.202   9.621
23195WAT     H269828   0.569   5.346   9.611
23196WAT      O69829   9.596   1.010   6.142
23196WAT     H169830   9.660   0.995   6.217
23196WAT     H269831   9.533   0.932   6.137
23197WAT      O69832   1.766   8.562   0.066
23197WAT     H169833   1.801   8.590   0.156
23197WAT     H269834   1.803   8.622  -0.005
23198WAT      O69835   2.863   7.346   0.232
23198WAT     H169836   2.770   7.359   0.198
23198WAT     H269837   2.860   7.292   0.316
23199WAT      O69838   0.718   4.977   5.877
23199WAT     H169839   0.726   4.995   5.779
23199WAT     H269840   0.674   5.055   5.922
23200WAT      O69841   8.019   4.385   8.501
23200WAT     H169842   7.972   4.387   8.413
23200WAT     H269843   8.118   4.375   8.486
23201WAT      O69844   9.203   4.941   3.058
23201WAT     H169845   9.211   4.947   3.157
23201WAT     H269846   9.279   4.991   3.015
23202WAT      O69847   6.150   5.720   1.461
23202WAT     H169848   6.225   5.721   1.395
23202WAT     H269849   6.181   5.682   1.548
23203WAT      O69850   5.651   4.791   0.020
23203WAT     H169851   5.686   4.734   0.095
23203WAT     H269852   5.664   4.743  -0.066
23204WAT      O69853   4.938   8.980   2.010
23204WAT     H169854   4.964   8.925   1.930
23204WAT     H269855   4.980   8.942   2.092
23205WAT      O69856   4.861   8.373   3.491
23205WAT     H169857   4.874   8.290   3.545
23205WAT     H269858   4.804   8.353   3.411
23206WAT      O69859   7.430   5.057   9.538
23206WAT     H169860   7.359   5.073   9.470
23206WAT     H269861   7.462   5.145   9.574
23207WAT      O69862   7.340   6.416   6.504
23207WAT     H169863   7.416   6.481   6.506
23207WAT     H269864   7.257   6.462   6.536
23208WAT      O69865   7.044   3.925   2.326
23208WAT     H169866   7.026   4.006   2.381
23208WAT     H269867   6.981   3.923   2.248
23209WAT      O69868   1.607   0.972   6.564
23209WAT     H169869   1.509   0.949   6.559
23209WAT     H269870   1.651   0.949   6.477
23210WAT      O69871   5.985   1.525   0.193
23210WAT     H169872   6.011   1.435   0.227
23210WAT     H269873   5.938   1.515   0.105
23211WAT      O69874   7.589   2.631   8.573
23211WAT     H169875   7.528   2.710   8.581
23211WAT     H269876   7.684   2.662   8.577
23212WAT      O69877   2.626   0.870   6.078
23212WAT     H169878   2.655   0.778   6.104
23212WAT     H269879   2.537   0.890   6.119
23213WAT      O69880   6.160   3.614   0.586
23213WAT     H169881   6.097   3.537   0.580
23213WAT     H269882   6.236   3.591   0.646
23214WAT      O69883   8.363   0.204   7.408
23214WAT     H169884   8.271   0.227   7.439
23214WAT     H269885   8.359   0.148   7.326
23215WAT      O69886   2.342   0.857   5.686
23215WAT     H169887   2.378   0.803   5.610
23215WAT     H269888   2.243   0.865   5.677
23216WAT      O69889   4.879   7.259   7.413
23216WAT     H169890   4.820   7.233   7.490
23216WAT     H269891   4.940   7.333   7.441
23217WAT      O69892   8.992   4.418   3.511
23217WAT     H169893   8.918   4.354   3.530
23217WAT     H269894   9.072   4.367   3.478
23218WAT      O69895   4.329   8.618   1.593
23218WAT     H169896   4.236   8.626   1.629
23218WAT     H269897   4.352   8.522   1.581
23219WAT      O69898   4.937   7.397   2.554
23219WAT     H169899   4.940   7.494   2.575
23219WAT     H269900   4.902   7.346   2.633
23220WAT      O69901   2.050   6.751   0.286
23220WAT     H169902   2.013   6.838   0.255
23220WAT     H269903   2.120   6.720   0.221
23221WAT      O69904   5.768   7.238   7.968
23221WAT     H169905   5.695   7.181   7.931
23221WAT     H269906   5.851   7.183   7.981
23222WAT      O69907   1.780   0.493   9.275
23222WAT     H169908   1.789   0.552   9.195
23222WAT     H269909   1.859   0.504   9.334
23223WAT      O69910   8.159   3.797   9.149
23223WAT     H169911   8.232   3.794   9.081
23223WAT     H269912   8.156   3.888   9.190
23224WAT      O69913   8.111   6.094   6.965
23224WAT     H169914   8.092   5.996   6.961
23224WAT     H269915   8.106   6.133   6.873
23225WAT      O69916   2.514   2.952   8.134
23225WAT     H169917   2.613   2.951   8.124
23225WAT     H269918   2.472   2.983   8.048
23226WAT      O69919   3.425   9.609   7.309
23226WAT     H169920   3.462   9.677   7.372
23226WAT     H269921   3.341   9.569   7.348
23227WAT      O69922   8.389   3.227   1.724
23227WAT     H169923   8.482   3.199   1.702
23227WAT     H269924   8.374   3.321   1.692
23228WAT      O69925   2.885   3.512   4.981
23228WAT     H169926   2.793   3.507   5.019
23228WAT     H269927   2.911   3.608   4.971
23229WAT      O69928   3.916   1.862   9.213
23229WAT     H169929   3.854   1.932   9.178
23229WAT     H269930   4.010   1.897   9.211
23230WAT      O69931   5.477   0.397   1.086
23230WAT     H169932   5.443   0.345   1.007
23230WAT     H269933   5.567   0.363   1.113
23231WAT      O69934   0.872   8.122   1.770
23231WAT     H169935   0.905   8.205   1.814
23231WAT     H269936   0.841   8.057   1.839
23232WAT      O69937   6.356   4.495   9.303
23232WAT     H169938   6.392   4.522   9.392
23232WAT     H269939   6.319   4.575   9.257
23233WAT      O69940   9.841   8.856   3.911
23233WAT     H169941   9.789   8.799   3.847
23233WAT     H269942   9.919   8.897   3.863
23234WAT      O69943   6.794   5.516   1.237
23234WAT     H169944   6.894   5.520   1.243
23234WAT     H269945   6.768   5.468   1.153
23235WAT      O69946   6.029   4.377   6.242
23235WAT     H169947   6.104   4.312   6.258
23235WAT     H269948   5.942   4.334   6.267
23236WAT      O69949   9.812   0.917   9.044
23236WAT     H169950   9.894   0.939   8.992
23236WAT     H269951   9.740   0.982   9.023
23237WAT      O69952   0.783   3.526   4.388
23237WAT     H169953   0.726   3.483   4.318
23237WAT     H269954   0.862   3.570   4.345
23238WAT      O69955   0.480   2.106   5.496
23238WAT     H169956   0.483   2.205   5.483
23238WAT     H269957   0.573   2.072   5.513
23239WAT      O69958   0.669   7.257   3.246
23239WAT     H169959   0.616   7.295   3.170
23239WAT     H269960   0.622   7.277   3.333
23240WAT      O69961   1.096   4.795   0.924
23240WAT     H169962   1.060   4.887   0.941
23240WAT     H269963   1.023   4.738   0.885
23241WAT      O69964   9.183   4.132   2.049
23241WAT     H169965   9.277   4.163   2.031
23241WAT     H269966   9.176   4.098   2.143
23242WAT      O69967   2.978   3.634   6.145
23242WAT     H169968   2.900   3.664   6.090
23242WAT     H269969   2.953   3.549   6.193
23243WAT      O69970   3.244   3.492   4.969
23243WAT     H169971   3.219   3.491   5.065
23243WAT     H269972   3.298   3.410   4.948
23244WAT      O69973   3.829   8.014   7.081
23244WAT     H169974   3.872   8.105   7.084
23244WAT     H269975   3.731   8.024   7.100
23245WAT      O69976   4.105   1.690   7.692
23245WAT     H169977   4.186   1.645   7.728
23245WAT     H269978   4.030   1.625   7.686
23246WAT      O69979   7.266   2.002   0.251
23246WAT     H169980   7.348   1.972   0.299
23246WAT     H269981   7.208   1.923   0.231
23247WAT      O69982   6.894   6.593   7.234
23247WAT     H169983   6.872   6.584   7.331
23247WAT     H269984   6.891   6.504   7.190
23248WAT      O69985   0.291   8.220   6.303
23248WAT     H169986   0.205   8.195   6.348
23248WAT     H269987   0.337   8.291   6.356
23249WAT      O69988   1.066   2.943   6.187
23249WAT     H169989   1.139   2.996   6.145
23249WAT     H269990   0.978   2.986   6.167
23250WAT      O69991   8.230   3.224   5.220
23250WAT     H169992   8.321   3.244   5.184
23250WAT     H269993   8.233   3.143   5.279
23251WAT      O69994   0.587   6.475   8.850
23251WAT     H169995   0.583   6.413   8.771
23251WAT     H269996   0.617   6.424   8.930
23252WAT      O69997   7.353   3.845   4.960
23252WAT     H169998   7.406   3.826   5.043
23252WAT     H269999   7.414   3.866   4.884
23253WAT      O70000   1.603   2.949   5.797
23253WAT     H170001   1.653   2.863   5.785
23253WAT     H270002   1.648   3.021   5.744
23254WAT      O70003   8.366   6.040   3.529
23254WAT     H170004   8.398   6.126   3.569
23254WAT     H270005   8.386   6.040   3.431
23255WAT      O70006   0.558   5.620   4.616
23255WAT     H170007   0.465   5.653   4.633
23255WAT     H270008   0.569   5.529   4.656
23256WAT      O70009   5.515   5.924   2.761
23256WAT     H170010   5.568   5.849   2.802
23256WAT     H270011   5.538   5.933   2.664
23257WAT      O70012   3.625   8.845   6.726
23257WAT     H170013   3.607   8.757   6.683
23257WAT     H270014   3.629   8.916   6.656
23258WAT      O70015   5.412   6.903   5.750
23258WAT     H170016   5.396   6.957   5.833
23258WAT     H270017   5.389   6.807   5.768
23259WAT      O70018   6.092   9.339   5.993
23259WAT     H170019   6.068   9.341   6.090
23259WAT     H270020   6.151   9.261   5.974
23260WAT      O70021   7.103   5.142   6.132
23260WAT     H170022   7.036   5.072   6.106
23260WAT     H270023   7.087   5.225   6.078
23261WAT      O70024   2.525   5.469   7.952
23261WAT     H170025   2.539   5.550   8.008
23261WAT     H270026   2.574   5.392   7.992
23262WAT      O70027   2.393   2.803   1.124
23262WAT     H170028   2.463   2.792   1.053
23262WAT     H270029   2.384   2.717   1.175
23263WAT      O70030   8.705   1.100   0.109
23263WAT     H170031   8.800   1.069   0.101
23263WAT     H270032   8.692   1.182   0.054
23264WAT      O70033   6.641   2.759   9.256
23264WAT     H170034   6.696   2.829   9.302
23264WAT     H270035   6.692   2.724   9.177
23265WAT      O70036   6.230   8.532   0.419
23265WAT     H170037   6.136   8.538   0.387
23265WAT     H270038   6.232   8.515   0.517
23266WAT      O70039   8.829   1.483   3.300
23266WAT     H170040   8.806   1.575   3.332
23266WAT     H270041   8.754   1.447   3.245
23267WAT      O70042   6.151   3.311   9.358
23267WAT     H170043   6.238   3.352   9.386
23267WAT     H270044   6.076   3.361   9.402
23268WAT      O70045   6.974   4.387   6.783
23268WAT     H170046   6.960   4.485   6.795
23268WAT     H270047   7.072   4.368   6.775
23269WAT      O70048   3.303   7.306   6.681
23269WAT     H170049   3.265   7.218   6.652
23269WAT     H270050   3.403   7.301   6.682
23270WAT      O70051   4.938   5.840   0.398
23270WAT     H170052   5.016   5.780   0.416
23270WAT     H270053   4.854   5.785   0.396
23271WAT      O70054   4.613   9.159   7.337
23271WAT     H170055   4.694   9.215   7.357
23271WAT     H270056   4.535   9.192   7.390
23272WAT      O70057   0.298   7.020   6.579
23272WAT     H170058   0.397   7.032   6.586
23272WAT     H270059   0.278   6.934   6.532
23273WAT      O70060   0.465   2.093   6.062
23273WAT     H170061   0.528   2.024   6.099
23273WAT     H270062   0.472   2.177   6.116
23274WAT      O70063   4.551   2.555   5.003
23274WAT     H170064   4.600   2.585   5.085
23274WAT     H270065   4.469   2.610   4.992
23275WAT      O70066   2.690   6.246   4.051
23275WAT     H170067   2.692   6.199   3.963
23275WAT     H270068   2.704   6.179   4.124
23276WAT      O70069   8.386   7.258   7.850
23276WAT     H170070   8.386   7.187   7.780
23276WAT     H270071   8.435   7.338   7.815
23277WAT      O70072   7.629   0.859   7.879
23277WAT     H170073   7.538   0.858   7.837
23277WAT     H270074   7.676   0.944   7.853
23278WAT      O70075   6.434   9.625   9.770
23278WAT     H170076   6.444   9.634   9.869
23278WAT     H270077   6.521   9.650   9.726
23279WAT      O70078   0.993   4.246   4.072
23279WAT     H170079   0.956   4.329   4.113
23279WAT     H270080   1.035   4.190   4.143
23280WAT      O70081   9.828   6.373   1.541
23280WAT     H170082   9.779   6.302   1.591
23280WAT     H270083   9.852   6.447   1.603
23281WAT      O70084   0.753   0.785   1.023
23281WAT     H170085   0.681   0.821   0.964
23281WAT     H270086   0.752   0.834   1.110
23282WAT      O70087   3.843   4.110   2.922
23282WAT     H170088   3.821   4.125   2.825
23282WAT     H270089   3.844   4.012   2.941
23283WAT      O70090   2.289   7.865   5.299
23283WAT     H170091   2.210   7.901   5.348
23283WAT     H270092   2.259   7.802   5.228
23284WAT      O70093   9.435   6.547   7.215
23284WAT     H170094   9.420   6.642   7.241
23284WAT     H270095   9.372   6.522   7.141
23285WAT      O70096   9.220   6.683   6.671
23285WAT     H170097   9.265   6.769   6.695
23285WAT     H270098   9.236   6.616   6.743
23286WAT      O70099   9.066   3.512   3.473
23286WAT     H170100   8.983   3.481   3.520
23286WAT     H270101   9.060   3.490   3.376
23287WAT      O70102   7.944   6.997   9.078
23287WAT     H170103   7.945   7.032   8.984
23287WAT     H270104   7.930   7.073   9.141
23288WAT      O70105   8.408   9.097   0.245
23288WAT     H170106   8.489   9.087   0.302
23288WAT     H270107   8.333   9.044   0.284
23289WAT      O70108   1.880   9.150   9.005
23289WAT     H170109   1.892   9.077   8.938
23289WAT     H270110   1.788   9.188   8.998
23290WAT      O70111   1.709   2.580   0.533
23290WAT     H170112   1.654   2.510   0.487
23290WAT     H270113   1.722   2.658   0.471
23291WAT      O70114   1.249   0.456   0.583
23291WAT     H170115   1.184   0.490   0.651
23291WAT     H270116   1.296   0.376   0.621
23292WAT      O70117   8.857   6.466   4.080
23292WAT     H170118   8.786   6.530   4.109
23292WAT     H270119   8.907   6.434   4.160
23293WAT      O70120   0.150   7.912   6.155
23293WAT     H170121   0.152   8.002   6.199
23293WAT     H270122   0.062   7.898   6.111
23294WAT      O70123   9.072   5.795   8.481
23294WAT     H170124   9.068   5.723   8.411
23294WAT     H270125   9.041   5.881   8.442
23295WAT      O70126   3.057   5.464   8.955
23295WAT     H170127   3.057   5.481   9.054
23295WAT     H270128   3.053   5.365   8.939
23296WAT      O70129   4.179   8.764   3.021
23296WAT     H170130   4.241   8.721   2.956
23296WAT     H270131   4.158   8.857   2.991
23297WAT      O70132   3.472   0.151   9.803
23297WAT     H170133   3.383   0.195   9.819
23297WAT     H270134   3.458   0.063   9.758
23298WAT      O70135   2.697   2.160   2.566
23298WAT     H170136   2.716   2.254   2.595
23298WAT     H270137   2.676   2.159   2.469
23299WAT      O70138   8.195   2.040   7.361
23299WAT     H170139   8.244   2.124   7.336
23299WAT     H270140   8.210   1.971   7.291
23300WAT      O70141   7.004   8.768   9.659
23300WAT     H170142   6.946   8.844   9.686
23300WAT     H270143   6.962   8.719   9.582
23301WAT      O70144   0.874   3.387   8.384
23301WAT     H170145   0.892   3.423   8.476
23301WAT     H270146   0.777   3.393   8.364
23302WAT      O70147   3.875   6.667   7.459
23302WAT     H170148   3.945   6.675   7.388
23302WAT     H270149   3.800   6.730   7.438
23303WAT      O70150   8.467   3.837   5.303
23303WAT     H170151   8.519   3.855   5.220
23303WAT     H270152   8.529   3.818   5.378
23304WAT      O70153   4.668   7.375   5.988
23304WAT     H170154   4.697   7.431   5.911
23304WAT     H270155   4.732   7.386   6.064
23305WAT      O70156   5.319   8.742   0.928
23305WAT     H170157   5.357   8.680   0.996
23305WAT     H270158   5.392   8.798   0.889
23306WAT      O70159   4.588   4.302   5.202
23306WAT     H170160   4.652   4.281   5.127
23306WAT     H270161   4.510   4.353   5.165
23307WAT      O70162   3.445   1.182   7.650
23307WAT     H170163   3.360   1.191   7.701
23307WAT     H270164   3.523   1.200   7.711
23308WAT      O70165   9.419   8.548   1.921
23308WAT     H170166   9.471   8.565   2.004
23308WAT     H270167   9.358   8.469   1.936
23309WAT      O70168   1.139   2.112   8.118
23309WAT     H170169   1.165   2.021   8.150
23309WAT     H270170   1.209   2.178   8.145
23310WAT      O70171   9.031   7.740   6.205
23310WAT     H170172   9.038   7.669   6.275
23310WAT     H270173   9.123   7.767   6.176
23311WAT      O70174   0.529   8.556   1.691
23311WAT     H170175   0.532   8.527   1.596
23311WAT     H270176   0.621   8.573   1.724
23312WAT      O70177   7.477   3.249   4.459
23312WAT     H170178   7.412   3.218   4.528
23312WAT     H270179   7.565   3.204   4.474
23313WAT      O70180   8.077   0.436   3.275
23313WAT     H170181   8.058   0.338   3.265
23313WAT     H270182   8.163   0.458   3.228
23314WAT      O70183   9.149   7.171   2.641
23314WAT     H170184   9.115   7.096   2.699
23314WAT     H270185   9.245   7.189   2.662
23315WAT      O70186   9.175   7.199   0.773
23315WAT     H170187   9.164   7.161   0.681
23315WAT     H270188   9.108   7.158   0.834
23316WAT      O70189   4.796   6.969   1.062
23316WAT     H170190   4.721   6.984   1.127
23316WAT     H270191   4.883   6.971   1.110
23317WAT      O70192   5.767   0.214   4.664
23317WAT     H170193   5.721   0.248   4.582
23317WAT     H270194   5.865   0.229   4.657
23318WAT      O70195   3.281   6.255   1.767
23318WAT     H170196   3.344   6.329   1.788
23318WAT     H270197   3.324   6.167   1.787
23319WAT      O70198   7.898   0.126   9.544
23319WAT     H170199   7.906   0.069   9.462
23319WAT     H270200   7.926   0.073   9.624
23320WAT      O70201   6.732   7.755   2.146
23320WAT     H170202   6.714   7.800   2.233
23320WAT     H270203   6.830   7.758   2.126
23321WAT      O70204   1.120   8.218   5.920
23321WAT     H170205   1.070   8.197   6.004
23321WAT     H270206   1.065   8.282   5.865
23322WAT      O70207   3.365   5.026   7.713
23322WAT     H170208   3.327   5.075   7.635
23322WAT     H270209   3.298   5.026   7.788
23323WAT      O70210   3.825   7.040   6.469
23323WAT     H170211   3.899   7.046   6.401
23323WAT     H270212   3.739   7.016   6.423
23324WAT      O70213   2.499   5.496   3.349
23324WAT     H170214   2.585   5.448   3.334
23324WAT     H270215   2.475   5.547   3.266
23325WAT      O70216   3.738   3.444   2.452
23325WAT     H170217   3.668   3.506   2.416
23325WAT     H270218   3.813   3.438   2.385
23326WAT      O70219   3.132   9.232   7.359
23326WAT     H170220   3.204   9.218   7.427
23326WAT     H270221   3.172   9.229   7.267
23327WAT      O70222   3.752   2.109   2.975
23327WAT     H170223   3.774   2.130   2.880
23327WAT     H270224   3.739   2.010   2.984
23328WAT      O70225   9.333   9.705   5.577
23328WAT     H170226   9.271   9.688   5.654
23328WAT     H270227   9.421   9.661   5.594
23329WAT      O70228   0.096   2.690   0.605
23329WAT     H170229   0.051   2.650   0.685
23329WAT     H270230   0.142   2.775   0.632
23330WAT      O70231   7.989   5.201   8.283
23330WAT     H170232   7.996   5.209   8.184
23330WAT     H270233   7.893   5.205   8.311
23331WAT      O70234   2.686   1.183   8.903
23331WAT     H170235   2.685   1.179   8.803
23331WAT     H270236   2.744   1.258   8.933
23332WAT      O70237   1.276   6.580   3.422
23332WAT     H170238   1.322   6.560   3.336
23332WAT     H270239   1.225   6.665   3.414
23333WAT      O70240   9.160   6.015   9.234
23333WAT     H170241   9.062   5.996   9.228
23333WAT     H270242   9.206   5.978   9.153
23334WAT      O70243   9.879   8.350   2.971
23334WAT     H170244   9.784   8.371   2.997
23334WAT     H270245   9.900   8.395   2.884
23335WAT      O70246   8.060   8.889   4.214
23335WAT     H170247   8.006   8.968   4.185
23335WAT     H270248   8.088   8.836   4.134
23336WAT      O70249   5.889   5.485   2.873
23336WAT     H170250   5.800   5.526   2.853
23336WAT     H270251   5.955   5.557   2.893
23337WAT      O70252   1.573   0.166   1.743
23337WAT     H170253   1.649   0.118   1.787
23337WAT     H270254   1.491   0.156   1.799
23338WAT      O70255   9.865   8.272   9.443
23338WAT     H170256   9.945   8.279   9.382
23338WAT     H270257   9.858   8.179   9.478
23339WAT      O70258   1.090   0.202   5.483
23339WAT     H170259   1.182   0.242   5.484
23339WAT     H270260   1.024   0.272   5.454
23340WAT      O70261   8.248   0.680   6.350
23340WAT     H170262   8.185   0.756   6.334
23340WAT     H270263   8.198   0.593   6.346
23341WAT      O70264   9.469   8.049   5.547
23341WAT     H170265   9.484   8.147   5.543
23341WAT     H270266   9.451   8.014   5.455
23342WAT      O70267   0.062   1.652   6.694
23342WAT     H170268  -0.030   1.631   6.661
23342WAT     H270269   0.118   1.685   6.619
23343WAT      O70270   4.049   6.540   8.976
23343WAT     H170271   4.024   6.545   9.073
23343WAT     H270272   4.120   6.607   8.956
23344WAT      O70273   8.214   4.174   7.573
23344WAT     H170274   8.139   4.142   7.516
23344WAT     H270275   8.178   4.205   7.661
23345WAT      O70276   5.928   3.703   5.183
23345WAT     H170277   6.006   3.703   5.119
23345WAT     H270278   5.944   3.771   5.255
23346WAT      O70279   2.684   9.179   7.551
23346WAT     H170280   2.736   9.138   7.476
23346WAT     H270281   2.745   9.237   7.605
23347WAT      O70282   8.642   7.065   6.560
23347WAT     H170283   8.578   7.080   6.485
23347WAT     H270284   8.715   7.004   6.529
23348WAT      O70285   2.650   5.700   1.861
23348WAT     H170286   2.561   5.661   1.840
23348WAT     H270287   2.662   5.707   1.960
23349WAT      O70288   1.215   4.204   6.038
23349WAT     H170289   1.299   4.163   6.000
23349WAT     H270290   1.232   4.232   6.132
23350WAT      O70291   1.149   0.372   2.205
23350WAT     H170292   1.174   0.467   2.224
23350WAT     H270293   1.232   0.318   2.190
23351WAT      O70294   6.998   1.824   3.585
23351WAT     H170295   7.041   1.852   3.500
23351WAT     H270296   7.066   1.785   3.647
23352WAT      O70297   4.626   2.973   2.407
23352WAT     H170298   4.591   2.957   2.314
23352WAT     H270299   4.662   3.066   2.414
23353WAT      O70300   7.147   1.854   3.357
23353WAT     H170301   7.242   1.871   3.384
23353WAT     H270302   7.112   1.932   3.307
23354WAT      O70303   1.796   8.941   0.183
23354WAT     H170304   1.781   8.853   0.228
23354WAT     H270305   1.738   8.947   0.101
23355WAT      O70306   5.467   5.049   3.221
23355WAT     H170307   5.385   5.074   3.170
23355WAT     H270308   5.548   5.073   3.167
23356WAT      O70309   9.010   3.982   6.818
23356WAT     H170310   8.995   4.080   6.832
23356WAT     H270311   8.945   3.930   6.873
23357WAT      O70312   1.666   6.658   1.455
23357WAT     H170313   1.724   6.618   1.383
23357WAT     H270314   1.600   6.590   1.486
23358WAT      O70315   1.327   6.927   7.304
23358WAT     H170316   1.334   6.876   7.219
23358WAT     H270317   1.240   6.908   7.348
23359WAT      O70318   3.458   6.261   8.962
23359WAT     H170319   3.406   6.331   9.011
23359WAT     H270320   3.489   6.191   9.027
23360WAT      O70321   7.334   9.789   7.021
23360WAT     H170322   7.338   9.788   7.121
23360WAT     H270323   7.405   9.848   6.985
23361WAT      O70324   3.619   5.190   5.072
23361WAT     H170325   3.710   5.232   5.062
23361WAT     H270326   3.555   5.257   5.109
23362WAT      O70327   5.708   7.207   9.415
23362WAT     H170328   5.738   7.253   9.498
23362WAT     H270329   5.772   7.134   9.392
23363WAT      O70330   1.014   7.672   9.109
23363WAT     H170331   1.094   7.732   9.113
23363WAT     H270332   1.029   7.602   9.039
23364WAT      O70333   6.884   4.944   4.896
23364WAT     H170334   6.858   4.850   4.876
23364WAT     H270335   6.804   4.995   4.928
23365WAT      O70336   2.788   3.061   9.037
23365WAT     H170337   2.709   3.082   9.095
23365WAT     H270338   2.765   2.985   8.976
23366WAT      O70339   2.145   6.826   4.969
23366WAT     H170340   2.197   6.892   4.914
23366WAT     H270341   2.173   6.833   5.065
23367WAT      O70342   0.412   4.751   0.597
23367WAT     H170343   0.332   4.766   0.539
23367WAT     H270344   0.495   4.770   0.544
23368WAT      O70345   4.734   3.102   3.363
23368WAT     H170346   4.721   3.201   3.360
23368WAT     H270347   4.787   3.077   3.444
23369WAT      O70348   2.508   9.503   5.141
23369WAT     H170349   2.561   9.551   5.070
23369WAT     H270350   2.552   9.516   5.230
23370WAT      O70351   6.150   8.054   4.465
23370WAT     H170352   6.148   8.154   4.463
23370WAT     H270353   6.196   8.020   4.382
23371WAT      O70354   4.749   3.208   5.093
23371WAT     H170355   4.708   3.134   5.147
23371WAT     H270356   4.824   3.249   5.145
23372WAT      O70357   6.565   3.509   5.326
23372WAT     H170358   6.644   3.552   5.281
23372WAT     H270359   6.563   3.536   5.422
23373WAT      O70360   5.834   8.606   4.960
23373WAT     H170361   5.924   8.590   4.920
23373WAT     H270362   5.832   8.697   5.002
23374WAT      O70363   2.119   5.324   1.663
23374WAT     H170364   2.162   5.333   1.753
23374WAT     H270365   2.178   5.270   1.603
23375WAT      O70366   5.035   1.686   0.723
23375WAT     H170367   5.056   1.752   0.795
23375WAT     H270368   4.961   1.722   0.666
23376WAT      O70369   8.185   0.086   9.310
23376WAT     H170370   8.114   0.018   9.325
23376WAT     H270371   8.216   0.083   9.215
23377WAT      O70372   6.500   2.193   8.576
23377WAT     H170373   6.595   2.190   8.545
23377WAT     H270374   6.473   2.288   8.591
23378WAT      O70375   9.080   3.251   4.781
23378WAT     H170376   9.159   3.249   4.721
23378WAT     H270377   8.999   3.222   4.731
23379WAT      O70378   2.566   9.529   7.895
23379WAT     H170379   2.598   9.434   7.905
23379WAT     H270380   2.513   9.538   7.811
23380WAT      O70381   8.594   2.672   2.766
23380WAT     H170382   8.603   2.577   2.738
23380WAT     H270383   8.529   2.679   2.841
23381WAT      O70384   3.377   4.024   9.281
23381WAT     H170385   3.337   3.955   9.341
23381WAT     H270386   3.461   4.059   9.323
23382WAT      O70387   9.282   4.135   3.805
23382WAT     H170388   9.237   4.046   3.814
23382WAT     H270389   9.325   4.141   3.715
23383WAT      O70390   7.134   0.928   9.313
23383WAT     H170391   7.169   0.912   9.405
23383WAT     H270392   7.092   0.845   9.278
23384WAT      O70393   8.050   5.840   0.717
23384WAT     H170394   7.987   5.915   0.739
23384WAT     H270395   8.032   5.808   0.624
23385WAT      O70396   3.491   3.623   8.031
23385WAT     H170397   3.587   3.609   8.007
23385WAT     H270398   3.435   3.619   7.948
23386WAT      O70399   7.587   1.035   3.760
23386WAT     H170400   7.500   0.985   3.762
23386WAT     H270401   7.569   1.131   3.740
23387WAT      O70402   9.795   5.068   6.827
23387WAT     H170403   9.815   5.134   6.901
23387WAT     H270404   9.772   5.118   6.744
23388WAT      O70405   0.955   8.849   3.111
23388WAT     H170406   0.934   8.919   3.180
23388WAT     H270407   1.028   8.790   3.144
23389WAT      O70408   7.284   4.740   8.976
23389WAT     H170409   7.196   4.780   9.003
23389WAT     H270410   7.312   4.777   8.888
23390WAT      O70411   8.396   3.374   0.511
23390WAT     H170412   8.405   3.302   0.442
23390WAT     H270413   8.371   3.460   0.466
23391WAT      O70414   3.498   0.904   1.233
23391WAT     H170415   3.407   0.870   1.259
23391WAT     H270416   3.558   0.904   1.312
23392WAT      O70417   4.395   0.951   9.051
23392WAT     H170418   4.330   0.887   9.091
23392WAT     H270419   4.488   0.920   9.067
23393WAT      O70420   1.398   9.090   4.459
23393WAT     H170421   1.323   9.131   4.512
23393WAT     H270422   1.446   9.161   4.408
23394WAT      O70423   7.618   7.079   1.527
23394WAT     H170424   7.643   7.033   1.442
23394WAT     H270425   7.617   7.013   1.602
23395WAT      O70426   0.334   9.213   4.163
23395WAT     H170427   0.270   9.206   4.240
23395WAT     H270428   0.366   9.121   4.138
23396WAT      O70429   0.641   3.469   8.809
23396WAT     H170430   0.653   3.488   8.906
23396WAT     H270431   0.579   3.536   8.769
23397WAT      O70432   5.822   0.323   9.728
23397WAT     H170433   5.742   0.282   9.771
23397WAT     H270434   5.794   0.380   9.651
23398WAT      O70435   2.480   8.715   1.435
23398WAT     H170436   2.448   8.763   1.354
23398WAT     H270437   2.508   8.782   1.504
23399WAT      O70438   1.122   5.568   3.492
23399WAT     H170439   1.093   5.485   3.444
23399WAT     H270440   1.090   5.649   3.442
23400WAT      O70441   1.681   5.965   6.046
23400WAT     H170442   1.641   5.908   5.974
23400WAT     H270443   1.643   5.939   6.134
23401WAT      O70444   5.566   5.838   1.213
23401WAT     H170445   5.566   5.757   1.154
23401WAT     H270446   5.661   5.865   1.230
23402WAT      O70447   6.817   6.950   5.773
23402WAT     H170448   6.806   6.961   5.872
23402WAT     H270449   6.913   6.966   5.749
23403WAT      O70450   5.328   3.121   1.646
23403WAT     H170451   5.335   3.189   1.573
23403WAT     H270452   5.346   3.165   1.734
23404WAT      O70453   2.970   9.452   1.301
23404WAT     H170454   3.009   9.361   1.290
23404WAT     H270455   2.873   9.450   1.279
23405WAT      O70456   3.977   3.090   5.786
23405WAT     H170457   4.023   3.001   5.793
23405WAT     H270458   3.955   3.109   5.691
23406WAT      O70459   8.826   1.297   2.601
23406WAT     H170460   8.911   1.350   2.614
23406WAT     H270461   8.838   1.233   2.525
23407WAT      O70462   7.583   5.601   6.959
23407WAT     H170463   7.601   5.569   6.866
23407WAT     H270464   7.487   5.585   6.981
23408WAT      O70465   2.421   4.610   3.211
23408WAT     H170466   2.482   4.577   3.283
23408WAT     H270467   2.352   4.541   3.191
23409WAT      O70468   3.173   2.025   1.384
23409WAT     H170469   3.177   2.105   1.444
23409WAT     H270470   3.080   2.013   1.350
23410WAT      O70471   6.710   5.002   0.575
23410WAT     H170472   6.718   5.095   0.611
23410WAT     H270473   6.619   4.966   0.593
23411WAT      O70474   3.194   7.652   0.076
23411WAT     H170475   3.229   7.744   0.097
23411WAT     H270476   3.119   7.630   0.138
23412WAT      O70477   6.002   4.832   0.016
23412WAT     H170478   5.953   4.829   0.103
23412WAT     H270479   6.031   4.740  -0.010
23413WAT      O70480   7.377   6.191   6.360
23413WAT     H170481   7.299   6.146   6.317
23413WAT     H270482   7.353   6.284   6.385
23414WAT      O70483   8.228   1.667   9.305
23414WAT     H170484   8.130   1.648   9.315
23414WAT     H270485   8.241   1.765   9.288
23415WAT      O70486   5.633   8.412   6.382
23415WAT     H170487   5.583   8.447   6.303
23415WAT     H270488   5.571   8.398   6.458
23416WAT      O70489   0.157   0.115   9.491
23416WAT     H170490   0.101   0.189   9.529
23416WAT     H270491   0.129   0.028   9.531
23417WAT      O70492   1.517   5.917   6.258
23417WAT     H170493   1.581   5.910   6.334
23417WAT     H270494   1.426   5.887   6.289
23418WAT      O70495   3.634   0.648   0.233
23418WAT     H170496   3.587   0.627   0.319
23418WAT     H270497   3.568   0.678   0.165
23419WAT      O70498   7.984   0.564   5.209
23419WAT     H170499   7.996   0.468   5.231
23419WAT     H270500   8.072   0.603   5.182
23420WAT      O70501   5.667   5.342   9.263
23420WAT     H170502   5.705   5.275   9.199
23420WAT     H270503   5.687   5.434   9.230
23421WAT      O70504   1.623   6.877   2.997
23421WAT     H170505   1.664   6.961   2.963
23421WAT     H270506   1.692   6.805   3.001
23422WAT      O70507   5.855   2.929   1.522
23422WAT     H170508   5.914   2.959   1.597
23422WAT     H270509   5.774   2.987   1.518
23423WAT      O70510   7.888   3.316   9.730
23423WAT     H170511   7.971   3.356   9.690
23423WAT     H270512   7.905   3.220   9.752
23424WAT      O70513   4.278   8.595   2.826
23424WAT     H170514   4.345   8.582   2.753
23424WAT     H270515   4.186   8.582   2.790
23425WAT      O70516   3.467   0.610   7.732
23425WAT     H170517   3.551   0.607   7.677
23425WAT     H270518   3.424   0.699   7.722
23426WAT      O70519   3.214   0.488   0.244
23426WAT     H170520   3.304   0.450   0.223
23426WAT     H270521   3.216   0.527   0.337
23427WAT      O70522   1.154   8.259   1.192
23427WAT     H170523   1.063   8.287   1.162
23427WAT     H270524   1.197   8.203   1.121
23428WAT      O70525   2.664   4.596   9.737
23428WAT     H170526   2.732   4.618   9.807
23428WAT     H270527   2.588   4.546   9.778
23429WAT      O70528   3.679   1.637   1.637
23429WAT     H170529   3.608   1.688   1.589
23429WAT     H270530   3.701   1.683   1.723
23430WAT      O70531   5.350   0.012   2.480
23430WAT     H170532   5.310  -0.012   2.568
23430WAT     H270533   5.377   0.108   2.480
23431WAT      O70534   7.136   4.559   8.213
23431WAT     H170535   7.191   4.483   8.248
23431WAT     H270536   7.190   4.643   8.215
23432WAT      O70537   2.787   6.460   2.989
23432WAT     H170538   2.810   6.528   3.059
23432WAT     H270539   2.707   6.408   3.019
23433WAT      O70540   0.118   6.280   9.518
23433WAT     H170541   0.143   6.323   9.431
23433WAT     H270542   0.029   6.236   9.508
23434WAT      O70543   4.519   4.118   9.852
23434WAT     H170544   4.512   4.120   9.752
23434WAT     H270545   4.520   4.023   9.884
23435WAT      O70546   0.210   8.689   2.341
23435WAT     H170547   0.222   8.617   2.272
23435WAT     H270548   0.197   8.777   2.296
23436WAT      O70549   0.176   9.716   1.874
23436WAT     H170550   0.213   9.624   1.860
23436WAT     H270551   0.084   9.721   1.835
23437WAT      O70552   7.524   0.281   1.333
23437WAT     H170553   7.614   0.297   1.373
23437WAT     H270554   7.506   0.351   1.263
23438WAT      O70555   5.358   4.815   5.777
23438WAT     H170556   5.294   4.760   5.831
23438WAT     H270557   5.336   4.807   5.680
23439WAT      O70558   6.538   6.338   0.435
23439WAT     H170559   6.522   6.316   0.339
23439WAT     H270560   6.517   6.258   0.491
23440WAT      O70561   0.742   5.245   2.805
23440WAT     H170562   0.712   5.222   2.898
23440WAT     H270563   0.730   5.165   2.746
23441WAT      O70564   9.618   3.335   0.273
23441WAT     H170565   9.716   3.327   0.257
23441WAT     H270566   9.581   3.409   0.216
23442WAT      O70567   9.571   1.293   5.221
23442WAT     H170568   9.481   1.299   5.176
23442WAT     H270569   9.594   1.198   5.236
23443WAT      O70570   4.898   6.948   0.546
23443WAT     H170571   4.870   6.953   0.450
23443WAT     H270572   4.907   7.040   0.584
23444WAT      O70573   9.287   1.961   4.650
23444WAT     H170574   9.210   2.023   4.640
23444WAT     H270575   9.288   1.896   4.575
23445WAT      O70576   3.422   0.941   4.558
23445WAT     H170577   3.450   0.872   4.491
23445WAT     H270578   3.482   1.021   4.550
23446WAT      O70579   8.972   1.049   9.701
23446WAT     H170580   9.071   1.045   9.718
23446WAT     H270581   8.955   1.091   9.612
23447WAT      O70582   1.143   9.658   8.650
23447WAT     H170583   1.146   9.614   8.561
23447WAT     H270584   1.049   9.663   8.683
23448WAT      O70585   3.180   3.812   7.204
23448WAT     H170586   3.206   3.907   7.186
23448WAT     H270587   3.258   3.752   7.191
23449WAT      O70588   1.288   2.493   5.903
23449WAT     H170589   1.335   2.419   5.854
23449WAT     H270590   1.216   2.455   5.960
23450WAT      O70591   3.702   6.592   5.103
23450WAT     H170592   3.617   6.608   5.153
23450WAT     H270593   3.713   6.494   5.087
23451WAT      O70594   4.882   1.526   4.756
23451WAT     H170595   4.970   1.488   4.728
23451WAT     H270596   4.861   1.606   4.700
23452WAT      O70597   2.542   9.485   9.824
23452WAT     H170598   2.487   9.551   9.876
23452WAT     H270599   2.621   9.458   9.878
23453WAT      O70600   6.734   6.641   0.797
23453WAT     H170601   6.786   6.556   0.793
23453WAT     H270602   6.679   6.642   0.881
23454WAT      O70603   2.725   8.315   7.459
23454WAT     H170604   2.723   8.360   7.370
23454WAT     H270605   2.803   8.350   7.512
23455WAT      O70606   7.175   7.847   7.068
23455WAT     H170607   7.248   7.895   7.117
23455WAT     H270608   7.126   7.912   7.009
23456WAT      O70609   5.558   2.547   3.734
23456WAT     H170610   5.526   2.479   3.800
23456WAT     H270611   5.504   2.540   3.650
23457WAT      O70612   9.844   1.710   4.159
23457WAT     H170613   9.782   1.713   4.238
23457WAT     H270614   9.936   1.686   4.190
23458WAT      O70615   3.959   7.953   6.597
23458WAT     H170616   3.933   8.038   6.642
23458WAT     H270617   4.020   7.973   6.521
23459WAT      O70618   1.121   3.082   5.420
23459WAT     H170619   1.131   3.141   5.500
23459WAT     H270620   1.143   3.133   5.338
23460WAT      O70621   0.903   4.741   5.322
23460WAT     H170622   0.944   4.702   5.240
23460WAT     H270623   0.905   4.674   5.396
23461WAT      O70624   9.240   2.546   2.941
23461WAT     H170625   9.238   2.509   3.034
23461WAT     H270626   9.330   2.585   2.923
23462WAT      O70627   5.902   9.605   3.779
23462WAT     H170628   5.863   9.696   3.769
23462WAT     H270629   5.843   9.550   3.839
23463WAT      O70630   5.503   4.363   1.236
23463WAT     H170631   5.539   4.273   1.262
23463WAT     H270632   5.569   4.434   1.261
23464WAT      O70633   9.193   1.568   4.949
23464WAT     H170634   9.207   1.498   4.879
23464WAT     H270635   9.230   1.655   4.916
23465WAT      O70636   2.954   0.292   5.487
23465WAT     H170637   3.030   0.302   5.423
23465WAT     H270638   2.905   0.379   5.495
23466WAT      O70639   3.888   1.671   1.162
23466WAT     H170640   3.972   1.650   1.212
23466WAT     H270641   3.898   1.644   1.067
23467WAT      O70642   1.938   5.059   0.312
23467WAT     H170643   1.955   5.121   0.236
23467WAT     H270644   2.025   5.026   0.348
23468WAT      O70645   4.059   4.486   2.662
23468WAT     H170646   4.123   4.409   2.666
23468WAT     H270647   4.104   4.565   2.622
23469WAT      O70648   3.952   3.053   7.909
23469WAT     H170649   4.042   3.013   7.921
23469WAT     H270650   3.897   3.036   7.991
23470WAT      O70651   0.252   2.864   1.732
23470WAT     H170652   0.314   2.850   1.654
23470WAT     H270653   0.218   2.958   1.729
23471WAT      O70654   2.373   2.185   4.603
23471WAT     H170655   2.368   2.252   4.677
23471WAT     H270656   2.469   2.169   4.579
23472WAT      O70657   3.383   1.142   1.934
23472WAT     H170658   3.374   1.226   1.987
23472WAT     H270659   3.300   1.125   1.882
23473WAT      O70660   5.594   0.103   3.540
23473WAT     H170661   5.614   0.038   3.467
23473WAT     H270662   5.513   0.156   3.516
23474WAT      O70663   2.074   6.480   2.380
23474WAT     H170664   2.030   6.490   2.291
23474WAT     H270665   2.109   6.387   2.389
23475WAT      O70666   8.134   0.145   3.837
23475WAT     H170667   8.146   0.122   3.934
23475WAT     H270668   8.101   0.239   3.830
23476WAT      O70669   8.309   1.819   0.338
23476WAT     H170670   8.244   1.793   0.266
23476WAT     H270671   8.267   1.806   0.428
23477WAT      O70672   9.775   2.455   3.688
23477WAT     H170673   9.714   2.457   3.609
23477WAT     H270674   9.870   2.450   3.656
23478WAT      O70675   6.895   1.607   6.794
23478WAT     H170676   6.945   1.606   6.707
23478WAT     H270677   6.940   1.669   6.858
23479WAT      O70678   7.374   1.240   1.622
23479WAT     H170679   7.308   1.166   1.637
23479WAT     H270680   7.351   1.289   1.538
23480WAT      O70681   8.864   0.462   9.193
23480WAT     H170682   8.942   0.523   9.205
23480WAT     H270683   8.789   0.491   9.253
23481WAT      O70684   7.183   2.871   2.687
23481WAT     H170685   7.165   2.948   2.748
23481WAT     H270686   7.107   2.807   2.691
23482WAT      O70687   0.366   5.366   0.440
23482WAT     H170688   0.461   5.375   0.472
23482WAT     H270689   0.308   5.336   0.516
23483WAT      O70690   6.815   8.660   7.630
23483WAT     H170691   6.849   8.588   7.691
23483WAT     H270692   6.851   8.749   7.659
23484WAT      O70693   4.100   8.300   6.688
23484WAT     H170694   4.112   8.368   6.616
23484WAT     H270695   4.002   8.284   6.704
23485WAT      O70696   1.839   3.921   4.282
23485WAT     H170697   1.858   4.017   4.304
23485WAT     H270698   1.772   3.917   4.208
23486WAT      O70699   4.907   0.712   5.182
23486WAT     H170700   4.813   0.737   5.202
23486WAT     H270701   4.923   0.617   5.210
23487WAT      O70702   4.064   0.101   8.108
23487WAT     H170703   3.968   0.116   8.081
23487WAT     H270704   4.122   0.165   8.059
23488WAT      O70705   9.102   2.305   3.622
23488WAT     H170706   9.084   2.355   3.537
23488WAT     H270707   9.101   2.207   3.604
23489WAT      O70708   7.108   2.133   3.269
23489WAT     H170709   7.158   2.156   3.186
23489WAT     H270710   7.138   2.192   3.344
23490WAT      O70711   2.022   8.934   2.714
23490WAT     H170712   2.111   8.977   2.697
23490WAT     H270713   2.016   8.908   2.810
23491WAT      O70714   3.314   8.728   6.996
23491WAT     H170715   3.229   8.761   7.036
23491WAT     H270716   3.294   8.678   6.911
23492WAT      O70717   5.486   2.177   7.397
23492WAT     H170718   5.433   2.196   7.480
23492WAT     H270719   5.581   2.158   7.422
23493WAT      O70720   9.542   4.791   0.821
23493WAT     H170721   9.464   4.802   0.759
23493WAT     H270722   9.620   4.756   0.771
23494WAT      O70723   4.454   7.098   4.116
23494WAT     H170724   4.511   7.138   4.187
23494WAT     H270725   4.358   7.101   4.144
23495WAT      O70726   6.950   4.668   6.566
23495WAT     H170727   6.864   4.713   6.541
23495WAT     H270728   7.010   4.664   6.486
23496WAT      O70729   7.374   2.535   6.792
23496WAT     H170730   7.305   2.502   6.727
23496WAT     H270731   7.460   2.486   6.776
23497WAT      O70732   9.320   3.755   3.966
23497WAT     H170733   9.404   3.720   3.924
23497WAT     H270734   9.261   3.793   3.894
23498WAT      O70735   8.281   7.200   5.384
23498WAT     H170736   8.331   7.162   5.462
23498WAT     H270737   8.214   7.267   5.417
23499WAT      O70738   6.780   9.229   2.970
23499WAT     H170739   6.771   9.154   2.904
23499WAT     H270740   6.857   9.211   3.030
23500WAT      O70741   0.269   7.180   3.397
23500WAT     H170742   0.228   7.192   3.307
23500WAT     H270743   0.366   7.206   3.394
23501WAT      O70744   3.865   8.903   9.618
23501WAT     H170745   3.949   8.899   9.564
23501WAT     H270746   3.830   8.996   9.620
23502WAT      O70747   3.621   7.061   7.697
23502WAT     H170748   3.550   7.000   7.732
23502WAT     H270749   3.711   7.021   7.714
23503WAT      O70750   8.946   6.507   4.585
23503WAT     H170751   8.930   6.409   4.602
23503WAT     H270752   8.888   6.561   4.645
23504WAT      O70753   1.550   3.504   2.571
23504WAT     H170754   1.456   3.511   2.602
23504WAT     H270755   1.552   3.474   2.476
23505WAT      O70756   7.565   9.664   9.308
23505WAT     H170757   7.477   9.651   9.354
23505WAT     H270758   7.555   9.641   9.211
23506WAT      O70759   9.850   0.693   4.691
23506WAT     H170760   9.908   0.620   4.652
23506WAT     H270761   9.756   0.661   4.697
23507WAT      O70762   0.606   2.354   5.147
23507WAT     H170763   0.665   2.429   5.174
23507WAT     H270764   0.540   2.386   5.079
23508WAT      O70765   5.999   7.345   6.621
23508WAT     H170766   6.006   7.323   6.524
23508WAT     H270767   5.992   7.444   6.633
23509WAT      O70768   8.612   2.513   4.119
23509WAT     H170769   8.620   2.487   4.023
23509WAT     H270770   8.680   2.584   4.140
23510WAT      O70771   9.234   5.641   9.363
23510WAT     H170772   9.275   5.557   9.400
23510WAT     H270773   9.160   5.671   9.424
23511WAT      O70774   6.123   8.625   0.007
23511WAT     H170775   6.124   8.576  -0.080
23511WAT     H270776   6.077   8.570   0.076
23512WAT      O70777   2.808   8.944   9.267
23512WAT     H170778   2.830   8.913   9.174
23512WAT     H270779   2.892   8.953   9.320
23513WAT      O70780   4.435   9.120   0.721
23513WAT     H170781   4.365   9.097   0.654
23513WAT     H270782   4.427   9.217   0.746
23514WAT      O70783   5.382   2.644   5.494
23514WAT     H170784   5.305   2.581   5.483
23514WAT     H270785   5.355   2.719   5.554
23515WAT      O70786   2.647   0.882   8.343
23515WAT     H170787   2.714   0.845   8.406
23515WAT     H270788   2.669   0.977   8.322
23516WAT      O70789   1.000   7.948   1.554
23516WAT     H170790   0.957   8.017   1.612
23516WAT     H270791   1.100   7.955   1.561
23517WAT      O70792   9.626   9.560   8.063
23517WAT     H170793   9.610   9.483   8.124
23517WAT     H270794   9.539   9.600   8.035
23518WAT      O70795   3.749   5.331   3.597
23518WAT     H170796   3.746   5.357   3.694
23518WAT     H270797   3.710   5.405   3.542
23519WAT      O70798   2.280   7.037   1.233
23519WAT     H170799   2.191   7.005   1.200
23519WAT     H270800   2.272   7.064   1.329
23520WAT      O70801   9.130   3.682   9.759
23520WAT     H170802   9.227   3.703   9.753
23520WAT     H270803   9.095   3.657   9.669
23521WAT      O70804   1.228   6.046   9.280
23521WAT     H170805   1.294   6.102   9.231
23521WAT     H270806   1.230   6.068   9.377
23522WAT      O70807   4.164   7.993   3.254
23522WAT     H170808   4.140   7.978   3.349
23522WAT     H270809   4.099   7.944   3.195
23523WAT      O70810   7.019   0.364   3.380
23523WAT     H170811   7.020   0.340   3.283
23523WAT     H270812   7.037   0.461   3.392
23524WAT      O70813   2.419   5.098   0.794
23524WAT     H170814   2.515   5.071   0.792
23524WAT     H270815   2.381   5.076   0.884
23525WAT      O70816   3.652   3.897   9.762
23525WAT     H170817   3.683   3.804   9.746
23525WAT     H270818   3.619   3.906   9.856
23526WAT      O70819   3.126   0.617   6.499
23526WAT     H170820   3.090   0.684   6.434
23526WAT     H270821   3.223   0.601   6.480
23527WAT      O70822   8.033   1.553   5.057
23527WAT     H170823   8.107   1.608   5.096
23527WAT     H270824   7.965   1.613   5.015
23528WAT      O70825   5.462   1.284   0.595
23528WAT     H170826   5.468   1.365   0.536
23528WAT     H270827   5.535   1.221   0.572
23529WAT      O70828   2.352   3.551   7.299
23529WAT     H170829   2.318   3.633   7.253
23529WAT     H270830   2.449   3.560   7.318
23530WAT      O70831   3.439   7.084   8.719
23530WAT     H170832   3.357   7.125   8.758
23530WAT     H270833   3.489   7.153   8.667
23531WAT      O70834   1.067   3.139   2.177
23531WAT     H170835   0.986   3.102   2.131
23531WAT     H270836   1.129   3.064   2.199
23532WAT      O70837   8.264   0.348   2.497
23532WAT     H170838   8.297   0.329   2.404
23532WAT     H270839   8.169   0.316   2.505
23533WAT      O70840   1.888   0.273   3.684
23533WAT     H170841   1.919   0.285   3.778
23533WAT     H270842   1.928   0.188   3.647
23534WAT      O70843   3.623   9.190   5.817
23534WAT     H170844   3.628   9.195   5.718
23534WAT     H270845   3.588   9.276   5.854
23535WAT      O70846   3.898   5.534   4.947
23535WAT     H170847   3.917   5.602   5.018
23535WAT     H270848   3.828   5.569   4.885
23536WAT      O70849   7.979   7.793   3.005
23536WAT     H170850   8.010   7.852   2.930
23536WAT     H270851   8.017   7.701   2.993
23537WAT      O70852   8.285   6.643   2.849
23537WAT     H170853   8.244   6.598   2.770
23537WAT     H270854   8.214   6.672   2.912
23538WAT      O70855   6.468   0.890   9.556
23538WAT     H170856   6.486   0.792   9.554
23538WAT     H270857   6.416   0.912   9.639
23539WAT      O70858   6.859   9.124   0.244
23539WAT     H170859   6.953   9.147   0.221
23539WAT     H270860   6.802   9.207   0.237
23540WAT      O70861   7.520   2.757   6.801
23540WAT     H170862   7.492   2.842   6.756
23540WAT     H270863   7.455   2.685   6.779
23541WAT      O70864   3.187   2.820   7.196
23541WAT     H170865   3.242   2.900   7.220
23541WAT     H270866   3.102   2.850   7.153
23542WAT      O70867   7.022   1.730   3.921
23542WAT     H170868   6.985   1.821   3.940
23542WAT     H270869   7.095   1.737   3.854
23543WAT      O70870   9.394   3.811   0.758
23543WAT     H170871   9.318   3.827   0.821
23543WAT     H270872   9.447   3.733   0.790
23544WAT      O70873   3.954   2.742   3.307
23544WAT     H170874   3.871   2.718   3.257
23544WAT     H270875   3.969   2.841   3.303
23545WAT      O70876   8.969   7.610   3.149
23545WAT     H170877   8.989   7.542   3.079
23545WAT     H270878   8.918   7.566   3.224
23546WAT      O70879   6.074   0.587   0.304
23546WAT     H170880   6.033   0.539   0.382
23546WAT     H270881   6.079   0.525   0.226
23547WAT      O70882   3.856   5.477   1.336
23547WAT     H170883   3.814   5.528   1.261
23547WAT     H270884   3.953   5.500   1.341
23548WAT      O70885   1.118   9.429   3.582
23548WAT     H170886   1.047   9.407   3.649
23548WAT     H270887   1.088   9.509   3.528
23549WAT      O70888   3.990   9.324   8.435
23549WAT     H170889   3.915   9.386   8.410
23549WAT     H270890   3.996   9.318   8.535
23550WAT      O70891   9.480   9.593   0.911
23550WAT     H170892   9.479   9.634   0.820
23550WAT     H270893   9.498   9.664   0.979
23551WAT      O70894   5.275   5.558   0.699
23551WAT     H170895   5.190   5.525   0.739
23551WAT     H270896   5.352   5.506   0.737
23552WAT      O70897   5.180   2.356   4.228
23552WAT     H170898   5.139   2.265   4.235
23552WAT     H270899   5.110   2.421   4.198
23553WAT      O70900   8.672   5.315   7.145
23553WAT     H170901   8.686   5.300   7.047
23553WAT     H270902   8.620   5.399   7.159
23554WAT      O70903   1.761   7.359   6.605
23554WAT     H170904   1.816   7.390   6.683
23554WAT     H270905   1.820   7.328   6.531
23555WAT      O70906   2.281   3.619   1.152
23555WAT     H170907   2.259   3.690   1.085
23555WAT     H270908   2.359   3.566   1.120
23556WAT      O70909   1.869   4.184   1.592
23556WAT     H170910   1.792   4.221   1.539
23556WAT     H270911   1.858   4.208   1.688
23557WAT      O70912   5.468   2.845   6.514
23557WAT     H170913   5.433   2.777   6.579
23557WAT     H270914   5.462   2.936   6.555
23558WAT      O70915   3.726   3.577   0.756
23558WAT     H170916   3.751   3.492   0.803
23558WAT     H270917   3.701   3.557   0.661
23559WAT      O70918   7.483   4.219   7.173
23559WAT     H170919   7.428   4.206   7.091
23559WAT     H270920   7.431   4.188   7.253
23560WAT      O70921   6.951   7.102   9.814
23560WAT     H170922   6.984   7.020   9.767
23560WAT     H270923   6.884   7.075   9.884
23561WAT      O70924   7.841   4.189   6.973
23561WAT     H170925   7.885   4.279   6.985
23561WAT     H270926   7.744   4.202   6.953
23562WAT      O70927   2.786   0.863   9.759
23562WAT     H170928   2.885   0.869   9.750
23562WAT     H270929   2.745   0.950   9.734
23563WAT      O70930   2.966   4.786   5.464
23563WAT     H170931   2.945   4.774   5.367
23563WAT     H270932   3.066   4.789   5.476
23564WAT      O70933   4.723   8.175   6.860
23564WAT     H170934   4.754   8.081   6.851
23564WAT     H270935   4.801   8.237   6.854
23565WAT      O70936   5.778   6.794   0.452
23565WAT     H170937   5.761   6.740   0.535
23565WAT     H270938   5.789   6.890   0.477
23566WAT      O70939   7.824   7.522   5.376
23566WAT     H170940   7.818   7.541   5.278
23566WAT     H270941   7.848   7.426   5.389
23567WAT      O70942   6.693   9.131   5.141
23567WAT     H170943   6.647   9.052   5.100
23567WAT     H270944   6.648   9.215   5.111
23568WAT      O70945   2.547   3.482   9.783
23568WAT     H170946   2.464   3.474   9.728
23568WAT     H270947   2.545   3.566   9.836
23569WAT      O70948   5.778   9.296   1.124
23569WAT     H170949   5.796   9.238   1.203
23569WAT     H270950   5.679   9.306   1.112
23570WAT      O70951   0.624   9.473   3.113
23570WAT     H170952   0.601   9.429   3.026
23570WAT     H270953   0.677   9.409   3.169
23571WAT      O70954   2.099   9.615   6.074
23571WAT     H170955   2.081   9.705   6.033
23571WAT     H270956   2.024   9.590   6.134
23572WAT      O70957   6.228   5.213   8.185
23572WAT     H170958   6.285   5.255   8.114
23572WAT     H270959   6.210   5.118   8.162
23573WAT      O70960   8.107   8.440   4.866
23573WAT     H170961   8.148   8.393   4.788
23573WAT     H270962   8.171   8.440   4.943
23574WAT      O70963   7.977   7.197   2.130
23574WAT     H170964   7.950   7.118   2.186
23574WAT     H270965   8.039   7.166   2.057
23575WAT      O70966   2.072   1.233   2.473
23575WAT     H170967   2.021   1.186   2.401
23575WAT     H270968   2.107   1.166   2.539
23576WAT      O70969   0.601   8.414   0.390
23576WAT     H170970   0.512   8.459   0.396
23576WAT     H270971   0.653   8.453   0.315
23577WAT      O70972   6.080   8.639   4.442
23577WAT     H170973   6.046   8.547   4.420
23577WAT     H270974   6.016   8.685   4.503
23578WAT      O70975   9.530   1.323   3.211
23578WAT     H170976   9.534   1.339   3.113
23578WAT     H270977   9.615   1.354   3.253
23579WAT      O70978   2.639   5.198   4.515
23579WAT     H170979   2.684   5.144   4.444
23579WAT     H270980   2.696   5.277   4.538
23580WAT      O70981   1.316   2.339   2.442
23580WAT     H170982   1.413   2.323   2.424
23580WAT     H270983   1.297   2.325   2.539
23581WAT      O70984   8.621   0.068   6.179
23581WAT     H170985   8.678   0.133   6.128
23581WAT     H270986   8.595  -0.008   6.120
23582WAT      O70987   5.090   7.193   1.715
23582WAT     H170988   5.076   7.094   1.713
23582WAT     H270989   5.032   7.236   1.646
23583WAT      O70990   5.762   4.545   8.794
23583WAT     H170991   5.726   4.620   8.737
23583WAT     H270992   5.722   4.552   8.886
23584WAT      O70993   6.449   0.382   2.717
23584WAT     H170994   6.484   0.474   2.735
23584WAT     H270995   6.493   0.345   2.636
23585WAT      O70996   8.712   2.604   8.986
23585WAT     H170997   8.703   2.550   9.070
23585WAT     H270998   8.659   2.689   8.995
23586WAT      O70999   0.679   3.060   1.475
23586WAT     H171000   0.647   3.093   1.564
23586WAT     H271001   0.778   3.067   1.471
23587WAT      O71002   8.610   0.925   4.993
23587WAT     H171003   8.610   0.943   5.092
23587WAT     H271004   8.557   0.997   4.947
23588WAT      O71005   7.257   1.008   6.783
23588WAT     H171006   7.213   1.052   6.862
23588WAT     H271007   7.187   0.965   6.726
23589WAT      O71008   1.942   5.821   6.831
23589WAT     H171009   1.856   5.829   6.881
23589WAT     H271010   1.958   5.725   6.807
23590WAT      O71011   4.361   1.072   8.124
23590WAT     H171012   4.277   1.028   8.155
23590WAT     H271013   4.390   1.140   8.191
23591WAT      O71014   8.464   0.744   1.452
23591WAT     H171015   8.380   0.796   1.465
23591WAT     H271016   8.465   0.667   1.516
23592WAT      O71017   4.476   8.540   3.363
23592WAT     H171018   4.452   8.550   3.460
23592WAT     H271019   4.406   8.586   3.307
23593WAT      O71020   6.511   9.371   5.385
23593WAT     H171021   6.609   9.354   5.377
23593WAT     H271022   6.463   9.284   5.393
23594WAT      O71023   0.876   4.385   8.756
23594WAT     H171024   0.916   4.312   8.700
23594WAT     H271025   0.948   4.428   8.811
23595WAT      O71026   7.280   4.365   9.558
23595WAT     H171027   7.193   4.322   9.535
23595WAT     H271028   7.355   4.313   9.516
23596WAT      O71029   3.170   5.385   1.013
23596WAT     H171030   3.149   5.387   1.111
23596WAT     H271031   3.250   5.442   0.995
23597WAT      O71032   2.699   6.887   1.352
23597WAT     H171033   2.678   6.950   1.427
23597WAT     H271034   2.785   6.914   1.309
23598WAT      O71035   4.106   8.080   6.388
23598WAT     H171036   4.031   8.144   6.369
23598WAT     H271037   4.139   8.041   6.303
23599WAT      O71038   5.932   0.871   9.732
23599WAT     H171039   5.870   0.887   9.809
23599WAT     H271040   5.907   0.786   9.686
23600WAT      O71041   5.139   5.452   2.062
23600WAT     H171042   5.068   5.432   1.994
23600WAT     H271043   5.109   5.423   2.152
23601WAT      O71044   6.078   7.603   0.279
23601WAT     H171045   6.053   7.699   0.286
23601WAT     H271046   6.065   7.572   0.184
23602WAT      O71047   8.362   4.992   2.587
23602WAT     H171048   8.460   4.973   2.582
23602WAT     H271049   8.314   4.910   2.618
23603WAT      O71050   1.748   5.274   2.358
23603WAT     H171051   1.767   5.240   2.450
23603WAT     H271052   1.802   5.356   2.341
23604WAT      O71053   4.526   2.532   8.044
23604WAT     H171054   4.586   2.546   8.124
23604WAT     H271055   4.581   2.505   7.965
23605WAT      O71056   6.417   9.193   4.062
23605WAT     H171057   6.374   9.107   4.090
23605WAT     H271058   6.452   9.184   3.968
23606WAT      O71059   8.579   5.169   1.546
23606WAT     H171060   8.536   5.139   1.631
23606WAT     H271061   8.521   5.143   1.468
23607WAT      O71062   9.081   5.275   2.029
23607WAT     H171063   9.009   5.222   1.984
23607WAT     H271064   9.041   5.355   2.073
23608WAT      O71065   7.255   1.972   4.479
23608WAT     H171066   7.272   1.971   4.577
23608WAT     H271067   7.318   2.036   4.434
23609WAT      O71068   3.180   5.165   8.770
23609WAT     H171069   3.178   5.087   8.707
23609WAT     H271070   3.135   5.138   8.856
23610WAT      O71071   2.144   1.525   7.671
23610WAT     H171072   2.235   1.551   7.702
23610WAT     H271073   2.151   1.452   7.603
23611WAT      O71074   9.550   0.693   0.210
23611WAT     H171075   9.572   0.744   0.293
23611WAT     H271076   9.584   0.600   0.219
23612WAT      O71077   0.467   4.843   2.763
23612WAT     H171078   0.427   4.925   2.723
23612WAT     H271079   0.501   4.864   2.855
23613WAT      O71080   6.762   1.461   8.587
23613WAT     H171081   6.703   1.401   8.642
23613WAT     H271082   6.853   1.465   8.628
23614WAT      O71083   7.582   2.583   3.910
23614WAT     H171084   7.664   2.550   3.862
23614WAT     H271085   7.502   2.536   3.875
23615WAT      O71086   7.551   8.370   4.924
23615WAT     H171087   7.523   8.275   4.941
23615WAT     H271088   7.650   8.373   4.907
23616WAT      O71089   8.178   4.526   5.340
23616WAT     H171090   8.267   4.531   5.295
23616WAT     H271091   8.120   4.460   5.292
23617WAT      O71092   2.388   1.141   3.507
23617WAT     H171093   2.440   1.095   3.435
23617WAT     H271094   2.343   1.072   3.564
23618WAT      O71095   9.699   2.845   3.508
23618WAT     H171096   9.700   2.771   3.441
23618WAT     H271097   9.607   2.856   3.545
23619WAT      O71098   1.068   4.558   4.295
23619WAT     H171099   1.024   4.605   4.219
23619WAT     H271100   1.161   4.593   4.307
23620WAT      O71101   9.484   4.673   1.070
23620WAT     H171102   9.493   4.708   0.977
23620WAT     H271103   9.541   4.592   1.081
23621WAT      O71104   3.310   5.046   2.235
23621WAT     H171105   3.375   5.000   2.174
23621WAT     H271106   3.239   4.982   2.263
23622WAT      O71107   6.777   3.325   5.767
23622WAT     H171108   6.844   3.308   5.839
23622WAT     H271109   6.726   3.240   5.748
23623WAT      O71110   1.179   7.750   3.906
23623WAT     H171111   1.171   7.840   3.863
23623WAT     H271112   1.161   7.679   3.838
23624WAT      O71113   6.205   4.766   5.707
23624WAT     H171114   6.258   4.682   5.706
23624WAT     H271115   6.200   4.801   5.801
23625WAT      O71116   0.704   9.769   0.604
23625WAT     H171117   0.615   9.797   0.567
23625WAT     H271118   0.775   9.784   0.536
23626WAT      O71119   5.037   1.743   5.353
23626WAT     H171120   4.943   1.761   5.381
23626WAT     H271121   5.039   1.669   5.285
23627WAT      O71122   1.827   5.798   4.190
23627WAT     H171123   1.878   5.882   4.205
23627WAT     H271124   1.764   5.811   4.114
23628WAT      O71125   6.404   8.514   6.072
23628WAT     H171126   6.473   8.514   6.000
23628WAT     H271127   6.352   8.600   6.069
23629WAT      O71128   4.307   8.920   7.025
23629WAT     H171129   4.320   8.847   6.958
23629WAT     H271130   4.213   8.918   7.059
23630WAT      O71131   9.700   2.096   6.920
23630WAT     H171132   9.758   2.147   6.984
23630WAT     H271133   9.753   2.022   6.879
23631WAT      O71134   4.967   0.016   0.957
23631WAT     H171135   5.042  -0.048   0.971
23631WAT     H271136   4.881  -0.034   0.944
23632WAT      O71137   2.988   1.076   4.192
23632WAT     H171138   2.933   1.145   4.241
23632WAT     H271139   3.084   1.103   4.193
23633WAT      O71140   2.822   2.406   4.766
23633WAT     H171141   2.846   2.465   4.688
23633WAT     H271142   2.905   2.364   4.802
23634WAT      O71143   7.825   2.276   6.061
23634WAT     H171144   7.871   2.332   5.992
23634WAT     H271145   7.727   2.275   6.043
23635WAT      O71146   5.369   7.782   0.776
23635WAT     H171147   5.375   7.690   0.738
23635WAT     H271148   5.459   7.825   0.776
23636WAT      O71149   7.994   6.829   5.460
23636WAT     H171150   7.985   6.890   5.381
23636WAT     H271151   8.010   6.736   5.428
23637WAT      O71152   4.539   1.731   5.322
23637WAT     H171153   4.449   1.770   5.336
23637WAT     H271154   4.574   1.695   5.408
23638WAT      O71155   4.681   4.035   7.627
23638WAT     H171156   4.720   4.094   7.556
23638WAT     H271157   4.725   4.055   7.714
23639WAT      O71158   1.442   3.331   8.145
23639WAT     H171159   1.391   3.412   8.115
23639WAT     H271160   1.384   3.274   8.202
23640WAT      O71161   8.234   6.482   0.107
23640WAT     H171162   8.331   6.486   0.134
23640WAT     H271163   8.224   6.520   0.015
23641WAT      O71164   8.150   8.974   3.239
23641WAT     H171165   8.070   8.999   3.183
23641WAT     H271166   8.230   9.025   3.207
23642WAT      O71167   2.972   5.082   5.989
23642WAT     H171168   2.993   5.092   6.086
23642WAT     H271169   2.942   5.170   5.953
23643WAT      O71170   9.609   4.757   2.664
23643WAT     H171171   9.621   4.706   2.750
23643WAT     H271172   9.600   4.855   2.685
23644WAT      O71173   2.606   6.813   0.708
23644WAT     H171174   2.691   6.773   0.742
23644WAT     H271175   2.586   6.897   0.757
23645WAT      O71176   6.785  -0.005   1.906
23645WAT     H171177   6.718   0.059   1.869
23645WAT     H271178   6.876   0.036   1.902
23646WAT      O71179   7.115   0.711   4.454
23646WAT     H171180   7.168   0.772   4.513
23646WAT     H271181   7.040   0.762   4.412
23647WAT      O71182   6.009   6.931   6.177
23647WAT     H171183   5.960   6.845   6.189
23647WAT     H271184   6.081   6.938   6.246
23648WAT      O71185   3.953   0.822   7.049
23648WAT     H171186   3.868   0.864   7.016
23648WAT     H271187   4.012   0.892   7.090
23649WAT      O71188   2.723   4.127   6.056
23649WAT     H171189   2.713   4.046   5.998
23649WAT     H271190   2.782   4.194   6.010
23650WAT      O71191   7.308   2.000   7.205
23650WAT     H171192   7.384   2.042   7.154
23650WAT     H271193   7.299   1.904   7.178
23651WAT      O71194   8.946   9.107   8.227
23651WAT     H171195   8.888   9.186   8.247
23651WAT     H271196   8.903   9.050   8.158
23652WAT      O71197   5.553   7.427   1.845
23652WAT     H171198   5.632   7.483   1.870
23652WAT     H271199   5.526   7.448   1.751
23653WAT      O71200   8.770   4.257   9.816
23653WAT     H171201   8.818   4.196   9.878
23653WAT     H271202   8.822   4.267   9.732
23654WAT      O71203   3.039   6.322   0.514
23654WAT     H171204   3.076   6.282   0.598
23654WAT     H271205   3.036   6.252   0.443
23655WAT      O71206   3.557   5.205   7.817
23655WAT     H171207   3.480   5.144   7.795
23655WAT     H271208   3.521   5.293   7.847
23656WAT      O71209   2.846   0.149   3.187
23656WAT     H171210   2.819   0.073   3.127
23656WAT     H271211   2.863   0.115   3.279
23657WAT      O71212   4.991   7.835   1.904
23657WAT     H171213   4.910   7.885   1.935
23657WAT     H271214   5.036   7.886   1.831
23658WAT      O71215   6.646   1.284   2.234
23658WAT     H171216   6.651   1.381   2.213
23658WAT     H271217   6.555   1.250   2.212
23659WAT      O71218   4.232   0.623   0.598
23659WAT     H171219   4.187   0.603   0.511
23659WAT     H271220   4.295   0.548   0.621
23660WAT      O71221   4.735   5.547   8.401
23660WAT     H171222   4.690   5.535   8.490
23660WAT     H271223   4.669   5.530   8.328
23661WAT      O71224   2.608   4.086   4.159
23661WAT     H171225   2.613   4.172   4.108
23661WAT     H271226   2.633   4.010   4.098
23662WAT      O71227   7.981   2.102   3.266
23662WAT     H171228   7.925   2.185   3.267
23662WAT     H271229   8.039   2.101   3.348
23663WAT      O71230   7.568   9.652   4.476
23663WAT     H171231   7.509   9.572   4.479
23663WAT     H271232   7.578   9.690   4.568
23664WAT      O71233   2.617   4.136   6.703
23664WAT     H171234   2.708   4.097   6.685
23664WAT     H271235   2.548   4.083   6.654
23665WAT      O71236   1.616   0.410   2.247
23665WAT     H171237   1.538   0.370   2.199
23665WAT     H271238   1.608   0.392   2.345
23666WAT      O71239   7.415   7.460   0.254
23666WAT     H171240   7.390   7.548   0.215
23666WAT     H271241   7.398   7.461   0.353
23667WAT      O71242   3.994   5.387   1.997
23667WAT     H171243   4.067   5.382   2.066
23667WAT     H271244   3.955   5.479   1.998
23668WAT      O71245   1.710   0.053   0.695
23668WAT     H171246   1.808   0.064   0.710
23668WAT     H271247   1.667   0.022   0.779
23669WAT      O71248   7.454   9.648   0.945
23669WAT     H171249   7.528   9.687   1.000
23669WAT     H271250   7.442   9.551   0.969
23670WAT      O71251   0.775   2.982   4.711
23670WAT     H171252   0.828   2.898   4.720
23670WAT     H271253   0.791   3.041   4.790
23671WAT      O71254   0.144   2.975   9.381
23671WAT     H171255   0.140   2.906   9.454
23671WAT     H271256   0.202   2.942   9.307
23672WAT      O71257   1.899   3.774   0.871
23672WAT     H171258   1.894   3.851   0.807
23672WAT     H271259   1.919   3.690   0.821
23673WAT      O71260   7.856   2.384   0.681
23673WAT     H171261   7.759   2.369   0.700
23673WAT     H271262   7.878   2.480   0.695
23674WAT      O71263   5.204   4.635   1.528
23674WAT     H171264   5.111   4.666   1.549
23674WAT     H271265   5.203   4.577   1.447
23675WAT      O71266   4.526   6.858   8.322
23675WAT     H171267   4.444   6.885   8.271
23675WAT     H271268   4.513   6.767   8.359
23676WAT      O71269   1.403   1.907   6.056
23676WAT     H171270   1.473   1.955   6.109
23676WAT     H271271   1.348   1.973   6.005
23677WAT      O71272   2.170   8.803   5.769
23677WAT     H171273   2.158   8.818   5.868
23677WAT     H271274   2.114   8.725   5.741
23678WAT      O71275   3.074   6.692   5.224
23678WAT     H171276   3.035   6.686   5.132
23678WAT     H271277   3.095   6.788   5.244
23679WAT      O71278   9.736   2.660   4.799
23679WAT     H171279   9.703   2.752   4.778
23679WAT     H271280   9.824   2.666   4.845
23680WAT      O71281   2.314   4.544   5.117
23680WAT     H171282   2.408   4.524   5.146
23680WAT     H271283   2.296   4.642   5.129
23681WAT      O71284   6.852   7.090   3.791
23681WAT     H171285   6.831   7.024   3.719
23681WAT     H271286   6.840   7.047   3.880
23682WAT      O71287   3.876   2.673   5.840
23682WAT     H171288   3.781   2.689   5.866
23682WAT     H271289   3.934   2.680   5.921
23683WAT      O71290   3.122   8.885   7.265
23683WAT     H171291   3.141   8.856   7.358
23683WAT     H271292   3.190   8.952   7.236
23684WAT      O71293   2.670   0.416   5.031
23684WAT     H171294   2.699   0.348   5.098
23684WAT     H271295   2.624   0.371   4.955
23685WAT      O71296   7.585   5.350   8.703
23685WAT     H171297   7.675   5.368   8.742
23685WAT     H271298   7.560   5.424   8.640
23686WAT      O71299   9.531   7.013   4.131
23686WAT     H171300   9.492   7.102   4.151
23686WAT     H271301   9.630   7.016   4.143
23687WAT      O71302   5.089   6.105   9.046
23687WAT     H171303   5.124   6.198   9.034
23687WAT     H271304   5.106   6.052   8.963
23688WAT      O71305   5.582   3.981   9.154
23688WAT     H171306   5.652   3.917   9.123
23688WAT     H271307   5.528   4.010   9.075
23689WAT      O71308   7.567   8.653   6.167
23689WAT     H171309   7.614   8.701   6.093
23689WAT     H271310   7.474   8.689   6.177
23690WAT      O71311   6.689   8.372   7.377
23690WAT     H171312   6.695   8.370   7.277
23690WAT     H271313   6.746   8.299   7.415
23691WAT      O71314   2.017   7.454   8.957
23691WAT     H171315   1.938   7.447   9.017
23691WAT     H271316   2.099   7.475   9.011
23692WAT      O71317   3.357   4.315   0.360
23692WAT     H171318   3.276   4.258   0.374
23692WAT     H271319   3.429   4.287   0.424
23693WAT      O71320   9.351   8.606   2.497
23693WAT     H171321   9.406   8.542   2.551
23693WAT     H271322   9.301   8.555   2.426
23694WAT      O71323   2.958   1.374   4.572
23694WAT     H171324   2.873   1.422   4.591
23694WAT     H271325   3.035   1.438   4.578
23695WAT      O71326   7.221   4.715   1.619
23695WAT     H171327   7.260   4.635   1.574
23695WAT     H271328   7.280   4.795   1.601
23696WAT      O71329   2.032   5.496   7.561
23696WAT     H171330   2.006   5.425   7.626
23696WAT     H271331   2.072   5.574   7.610
23697WAT      O71332   4.202   5.578   8.441
23697WAT     H171333   4.294   5.612   8.417
23697WAT     H271334   4.206   5.531   8.529
23698WAT      O71335   2.226   9.808   8.352
23698WAT     H171336   2.191   9.763   8.434
23698WAT     H271337   2.183   9.897   8.342
23699WAT      O71338   5.905   4.948   0.993
23699WAT     H171339   5.907   5.041   0.955
23699WAT     H271340   5.904   4.952   1.092
23700WAT      O71341   7.671   0.371   4.504
23700WAT     H171342   7.622   0.449   4.542
23700WAT     H271343   7.658   0.291   4.563
23701WAT      O71344   1.630   7.717   7.008
23701WAT     H171345   1.730   7.716   6.999
23701WAT     H271346   1.605   7.719   7.105
23702WAT      O71347   3.839   7.539   7.145
23702WAT     H171348   3.816   7.468   7.212
23702WAT     H271349   3.837   7.629   7.189
23703WAT      O71350   2.720   7.137   6.039
23703WAT     H171351   2.800   7.178   6.081
23703WAT     H271352   2.735   7.038   6.027
23704WAT      O71353   6.753   5.239   8.171
23704WAT     H171354   6.768   5.310   8.102
23704WAT     H271355   6.666   5.255   8.217
23705WAT      O71356   7.990   4.933   8.625
23705WAT     H171357   8.024   4.865   8.560
23705WAT     H271358   7.921   4.891   8.685
23706WAT      O71359   5.454   3.033   3.800
23706WAT     H171360   5.500   3.095   3.863
23706WAT     H271361   5.506   2.948   3.792
23707WAT      O71362   5.826   6.091   6.386
23707WAT     H171363   5.811   6.078   6.484
23707WAT     H271364   5.820   6.003   6.340
23708WAT      O71365   3.358   1.940   2.985
23708WAT     H171366   3.414   1.965   3.064
23708WAT     H271367   3.262   1.944   3.010
23709WAT      O71368   8.403   6.817   0.178
23709WAT     H171369   8.476   6.854   0.120
23709WAT     H271370   8.316   6.819   0.129
23710WAT      O71371   8.630   7.916   5.164
23710WAT     H171372   8.694   7.968   5.109
23710WAT     H271373   8.592   7.975   5.235
23711WAT      O71374   0.193   5.097   5.171
23711WAT     H171375   0.217   5.012   5.217
23711WAT     H271376   0.147   5.158   5.234
23712WAT      O71377   8.506   0.747   1.172
23712WAT     H171378   8.497   0.753   1.272
23712WAT     H271379   8.452   0.819   1.129
23713WAT      O71380   7.511   2.760   7.695
23713WAT     H171381   7.574   2.683   7.695
23713WAT     H271382   7.433   2.741   7.637
23714WAT      O71383   0.410   2.805   7.216
23714WAT     H171384   0.445   2.867   7.285
23714WAT     H271385   0.351   2.855   7.153
23715WAT      O71386   4.085   6.448   2.870
23715WAT     H171387   4.066   6.395   2.787
23715WAT     H271388   4.108   6.386   2.945
23716WAT      O71389   7.365   9.443   5.340
23716WAT     H171390   7.339   9.525   5.392
23716WAT     H271391   7.283   9.392   5.315
23717WAT      O71392   1.892   5.623   4.689
23717WAT     H171393   1.887   5.578   4.778
23717WAT     H271394   1.915   5.556   4.619
23718WAT      O71395   3.618   7.204   9.588
23718WAT     H171396   3.580   7.249   9.668
23718WAT     H271397   3.649   7.273   9.522
23719WAT      O71398   4.869   1.879   1.125
23719WAT     H171399   4.790   1.917   1.172
23719WAT     H271400   4.893   1.936   1.047
23720WAT      O71401   9.590   9.345   1.469
23720WAT     H171402   9.640   9.280   1.412
23720WAT     H271403   9.517   9.297   1.518
23721WAT      O71404   0.216   6.841   5.680
23721WAT     H171405   0.293   6.798   5.634
23721WAT     H271406   0.152   6.877   5.612
23722WAT      O71407   3.991   2.972   8.640
23722WAT     H171408   4.020   2.883   8.677
23722WAT     H271409   4.071   3.027   8.619
23723WAT      O71410   4.171   9.605   7.242
23723WAT     H171411   4.268   9.581   7.241
23723WAT     H271412   4.121   9.541   7.301
23724WAT      O71413   2.582   5.662   6.943
23724WAT     H171414   2.635   5.607   6.879
23724WAT     H271415   2.557   5.749   6.900
23725WAT      O71416   7.487   7.027   2.229
23725WAT     H171417   7.396   7.036   2.270
23725WAT     H271418   7.504   7.105   2.169
23726WAT      O71419   1.958   1.409   5.024
23726WAT     H171420   1.876   1.462   5.005
23726WAT     H271421   2.028   1.467   5.065
23727WAT      O71422   2.250   0.823   9.709
23727WAT     H171423   2.292   0.845   9.797
23727WAT     H271424   2.152   0.813   9.721
23728WAT      O71425   8.238   9.813   6.806
23728WAT     H171426   8.138   9.811   6.798
23728WAT     H271427   8.269   9.729   6.851
23729WAT      O71428   9.244   9.747   3.214
23729WAT     H171429   9.246   9.665   3.156
23729WAT     H271430   9.172   9.737   3.283
23730WAT      O71431   1.423   4.947   2.954
23730WAT     H171432   1.364   4.957   3.034
23730WAT     H271433   1.368   4.928   2.873
23731WAT      O71434   7.934   5.321   4.308
23731WAT     H171435   7.941   5.365   4.398
23731WAT     H271436   8.002   5.248   4.303
23732WAT      O71437   6.082   3.070   0.213
23732WAT     H171438   6.056   3.088   0.118
23732WAT     H271439   6.111   2.975   0.222
23733WAT      O71440   5.325   5.057   1.513
23733WAT     H171441   5.371   5.072   1.426
23733WAT     H271442   5.342   4.964   1.544
23734WAT      O71443   0.942   1.231   7.542
23734WAT     H171444   0.948   1.147   7.596
23734WAT     H271445   0.892   1.300   7.595
23735WAT      O71446   7.167   5.323   8.000
23735WAT     H171447   7.139   5.416   7.975
23735WAT     H271448   7.262   5.325   8.031
23736WAT      O71449   4.388   0.322   8.282
23736WAT     H171450   4.487   0.331   8.290
23736WAT     H271451   4.352   0.393   8.222
23737WAT      O71452   8.003   5.397   4.786
23737WAT     H171453   7.919   5.359   4.826
23737WAT     H271454   7.981   5.481   4.736
23738WAT      O71455   1.965   5.315   9.218
23738WAT     H171456   1.955   5.364   9.304
23738WAT     H271457   1.996   5.221   9.236
23739WAT      O71458   9.870   0.547   4.415
23739WAT     H171459   9.778   0.583   4.401
23739WAT     H271460   9.935   0.599   4.359
23740WAT      O71461   5.727   8.106   0.976
23740WAT     H171462   5.790   8.123   1.051
23740WAT     H271463   5.778   8.104   0.890
23741WAT      O71464   4.142   2.496   4.411
23741WAT     H171465   4.111   2.461   4.322
23741WAT     H271466   4.104   2.440   4.484
23742WAT      O71467   4.054   1.112   0.668
23742WAT     H171468   4.123   1.078   0.604
23742WAT     H271469   3.978   1.048   0.672
23743WAT      O71470   4.414   9.338   1.173
23743WAT     H171471   4.373   9.330   1.082
23743WAT     H271472   4.512   9.317   1.168
23744WAT      O71473   7.592   5.164   8.491
23744WAT     H171474   7.512   5.152   8.432
23744WAT     H271475   7.565   5.211   8.575
23745WAT      O71476   6.631   1.342   1.433
23745WAT     H171477   6.630   1.441   1.448
23745WAT     H271478   6.598   1.296   1.516
23746WAT      O71479   3.782   3.221   1.524
23746WAT     H171480   3.697   3.270   1.540
23746WAT     H271481   3.787   3.192   1.428
23747WAT      O71482   6.415   6.610   5.328
23747WAT     H171483   6.463   6.559   5.398
23747WAT     H271484   6.373   6.692   5.368
23748WAT      O71485   8.180   1.387   9.645
23748WAT     H171486   8.199   1.392   9.546
23748WAT     H271487   8.230   1.310   9.684
23749WAT      O71488   9.262   2.027   2.021
23749WAT     H171489   9.239   2.109   1.968
23749WAT     H271490   9.322   1.968   1.967
23750WAT      O71491   8.065   4.376   2.769
23750WAT     H171492   8.097   4.345   2.679
23750WAT     H271493   8.059   4.298   2.831
23751WAT      O71494   0.344   3.803   6.788
23751WAT     H171495   0.341   3.894   6.830
23751WAT     H271496   0.272   3.795   6.720
23752WAT      O71497   1.145   4.680   6.119
23752WAT     H171498   1.238   4.643   6.125
23752WAT     H271499   1.096   4.660   6.203
23753WAT      O71500   1.157   1.338   7.883
23753WAT     H171501   1.061   1.363   7.879
23753WAT     H271502   1.165   1.241   7.907
23754WAT      O71503   3.845   9.531   7.855
23754WAT     H171504   3.938   9.561   7.876
23754WAT     H271505   3.780   9.600   7.884
23755WAT      O71506   0.428   7.270   9.479
23755WAT     H171507   0.419   7.272   9.579
23755WAT     H271508   0.525   7.268   9.454
23756WAT      O71509   2.863   8.442   4.451
23756WAT     H171510   2.772   8.478   4.430
23756WAT     H271511   2.930   8.483   4.389
23757WAT      O71512   2.964   4.153   8.800
23757WAT     H171513   2.953   4.207   8.716
23757WAT     H271514   3.059   4.159   8.831
23758WAT      O71515   3.315   6.458   9.036
23758WAT     H171516   3.264   6.535   8.997
23758WAT     H271517   3.343   6.480   9.129
23759WAT      O71518   0.470   1.888   7.227
23759WAT     H171519   0.507   1.981   7.225
23759WAT     H271520   0.545   1.822   7.231
23760WAT      O71521   1.022   2.480   3.190
23760WAT     H171522   0.947   2.547   3.194
23760WAT     H271523   1.030   2.445   3.097
23761WAT      O71524   5.508   5.944   3.584
23761WAT     H171525   5.479   5.898   3.668
23761WAT     H271526   5.583   6.006   3.605
23762WAT      O71527   0.464   0.908   2.021
23762WAT     H171528   0.552   0.916   1.975
23762WAT     H271529   0.479   0.898   2.120
23763WAT      O71530   9.004   9.193   1.878
23763WAT     H171531   8.946   9.178   1.958
23763WAT     H271532   9.070   9.265   1.898
23764WAT      O71533   0.891   4.989   1.037
23764WAT     H171534   0.853   4.897   1.037
23764WAT     H271535   0.817   5.056   1.042
23765WAT      O71536   9.615   5.656   1.217
23765WAT     H171537   9.540   5.593   1.238
23765WAT     H271538   9.657   5.630   1.130
23766WAT      O71539   1.104   3.053   6.472
23766WAT     H171540   1.021   3.015   6.514
23766WAT     H271541   1.113   3.019   6.379
23767WAT      O71542   9.361   1.563   1.560
23767WAT     H171543   9.379   1.466   1.547
23767WAT     H271544   9.274   1.587   1.516
23768WAT      O71545   3.711   4.654   4.288
23768WAT     H171546   3.692   4.581   4.223
23768WAT     H271547   3.674   4.740   4.254
23769WAT      O71548   8.269   9.722   4.364
23769WAT     H171549   8.256   9.681   4.455
23769WAT     H271550   8.362   9.756   4.355
23770WAT      O71551   3.450   2.228   2.059
23770WAT     H171552   3.370   2.228   2.120
23770WAT     H271553   3.427   2.274   1.973
23771WAT      O71554   3.281   5.083   1.030
23771WAT     H171555   3.234   5.171   1.022
23771WAT     H271556   3.259   5.041   1.118
23772WAT      O71557   0.841   5.788   5.100
23772WAT     H171558   0.890   5.754   5.019
23772WAT     H271559   0.894   5.769   5.182
23773WAT      O71560   9.315   4.752   0.665
23773WAT     H171561   9.317   4.684   0.592
23773WAT     H271562   9.230   4.745   0.716
23774WAT      O71563   0.924   3.634   1.653
23774WAT     H171564   0.894   3.706   1.716
23774WAT     H271565   0.849   3.569   1.639
23775WAT      O71566   9.069   0.420   4.477
23775WAT     H171567   9.091   0.499   4.535
23775WAT     H271568   9.064   0.450   4.382
23776WAT      O71569   7.995   6.791   3.572
23776WAT     H171570   8.073   6.848   3.595
23776WAT     H271571   7.961   6.746   3.655
23777WAT      O71572   2.606   3.348   0.247
23777WAT     H171573   2.539   3.419   0.269
23777WAT     H271574   2.682   3.389   0.197
23778WAT      O71575   7.890   2.515   0.176
23778WAT     H171576   7.841   2.503   0.090
23778WAT     H271577   7.829   2.492   0.252
23779WAT      O71578   6.365   0.437   4.382
23779WAT     H171579   6.289   0.501   4.370
23779WAT     H271580   6.363   0.370   4.308
23780WAT      O71581   5.971   1.374   0.569
23780WAT     H171582   5.991   1.421   0.655
23780WAT     H271583   5.897   1.422   0.521
23781WAT      O71584   4.321   0.582   2.220
23781WAT     H171585   4.269   0.553   2.139
23781WAT     H271586   4.316   0.681   2.230
23782WAT      O71587   6.717   7.637   4.509
23782WAT     H171588   6.776   7.655   4.430
23782WAT     H271589   6.701   7.722   4.558
23783WAT      O71590   0.634   9.807   3.496
23783WAT     H171591   0.558   9.807   3.431
23783WAT     H271592   0.613   9.869   3.572
23784WAT      O71593   5.488   0.519   8.719
23784WAT     H171594   5.465   0.429   8.683
23784WAT     H271595   5.408   0.578   8.714
23785WAT      O71596   5.669   6.852   8.336
23785WAT     H171597   5.714   6.940   8.324
23785WAT     H271598   5.597   6.861   8.405
23786WAT      O71599   5.287   7.229   2.584
23786WAT     H171600   5.316   7.141   2.622
23786WAT     H271601   5.366   7.279   2.551
23787WAT      O71602   5.056   3.362   4.808
23787WAT     H171603   5.049   3.451   4.853
23787WAT     H271604   4.979   3.349   4.746
23788WAT      O71605   8.919   6.485   9.720
23788WAT     H171606   8.856   6.410   9.743
23788WAT     H271607   8.959   6.469   9.630
23789WAT      O71608   2.475   7.254   5.995
23789WAT     H171609   2.564   7.208   6.000
23789WAT     H271610   2.402   7.185   5.988
23790WAT      O71611   5.225   7.151   8.545
23790WAT     H171612   5.213   7.052   8.542
23790WAT     H271613   5.272   7.176   8.630
23791WAT      O71614   4.728   0.402   6.740
23791WAT     H171615   4.643   0.449   6.718
23791WAT     H271616   4.709   0.309   6.770
23792WAT      O71617   9.002   0.037   8.176
23792WAT     H171618   8.938   0.109   8.149
23792WAT     H271619   8.952  -0.049   8.190
23793WAT      O71620   7.006   9.704   2.436
23793WAT     H171621   7.010   9.608   2.462
23793WAT     H271622   7.034   9.714   2.340
23794WAT      O71623   1.075   9.145   5.380
23794WAT     H171624   1.004   9.135   5.451
23794WAT     H271625   1.155   9.190   5.420
23795WAT      O71626   7.857   0.835   2.137
23795WAT     H171627   7.954   0.816   2.151
23795WAT     H271628   7.814   0.758   2.089
23796WAT      O71629   0.117   7.882   4.597
23796WAT     H171630   0.080   7.937   4.672
23796WAT     H271631   0.171   7.807   4.634
23797WAT      O71632   6.384   1.902   4.935
23797WAT     H171633   6.298   1.897   4.987
23797WAT     H271634   6.428   1.812   4.935
23798WAT      O71635   5.301   9.012   1.442
23798WAT     H171636   5.226   9.059   1.396
23798WAT     H271637   5.386   9.062   1.429
23799WAT      O71638   3.931   8.047   1.749
23799WAT     H171639   4.022   8.065   1.711
23799WAT     H271640   3.918   8.100   1.832
23800WAT      O71641   6.166   6.263   8.662
23800WAT     H171642   6.093   6.301   8.605
23800WAT     H271643   6.147   6.282   8.758
23801WAT      O71644   5.663   9.294   9.029
23801WAT     H171645   5.677   9.198   9.050
23801WAT     H271646   5.660   9.347   9.115
23802WAT      O71647   2.563   8.355   0.750
23802WAT     H171648   2.601   8.262   0.756
23802WAT     H271649   2.528   8.382   0.840
23803WAT      O71650   0.511   5.732   9.638
23803WAT     H171651   0.501   5.682   9.724
23803WAT     H271652   0.434   5.712   9.579
23804WAT      O71653   3.519   4.202   0.169
23804WAT     H171654   3.513   4.245   0.079
23804WAT     H271655   3.456   4.247   0.232
23805WAT      O71656   4.809   7.116   4.895
23805WAT     H171657   4.711   7.133   4.891
23805WAT     H271658   4.833   7.041   4.833
23806WAT      O71659   2.377   8.355   1.720
23806WAT     H171660   2.376   8.275   1.781
23806WAT     H271661   2.394   8.325   1.627
23807WAT      O71662   6.803   1.385   1.756
23807WAT     H171663   6.714   1.348   1.730
23807WAT     H271664   6.873   1.315   1.744
23808WAT      O71665   3.415   3.855   1.500
23808WAT     H171666   3.501   3.807   1.518
23808WAT     H271667   3.348   3.833   1.571
23809WAT      O71668   2.275   8.916   6.934
23809WAT     H171669   2.175   8.911   6.942
23809WAT     H271670   2.301   8.921   6.838
23810WAT      O71671   7.984   8.455   9.884
23810WAT     H171672   7.929   8.538   9.895
23810WAT     H271673   7.982   8.426   9.789
23811WAT      O71674   4.350   0.263   2.804
23811WAT     H171675   4.362   0.318   2.721
23811WAT     H271676   4.439   0.231   2.836
23812WAT      O71677   0.596   2.568   9.081
23812WAT     H171678   0.580   2.535   8.988
23812WAT     H271679   0.526   2.530   9.142
23813WAT      O71680   3.044   3.864   9.020
23813WAT     H171681   2.962   3.822   8.983
23813WAT     H271682   3.082   3.805   9.091
23814WAT      O71683   9.629   2.812   5.726
23814WAT     H171684   9.710   2.796   5.670
23814WAT     H271685   9.569   2.732   5.721
23815WAT      O71686   4.434   3.434   8.951
23815WAT     H171687   4.515   3.434   8.893
23815WAT     H271688   4.368   3.500   8.915
23816WAT      O71689   5.184   8.814   3.506
23816WAT     H171690   5.219   8.901   3.539
23816WAT     H271691   5.101   8.830   3.452
23817WAT      O71692   3.498   2.899   4.100
23817WAT     H171693   3.424   2.836   4.123
23817WAT     H271694   3.493   2.980   4.158
23818WAT      O71695   7.916   9.659   2.330
23818WAT     H171696   7.895   9.725   2.258
23818WAT     H271697   7.844   9.661   2.399
23819WAT      O71698   0.894   5.927   2.207
23819WAT     H171699   0.832   6.006   2.214
23819WAT     H271700   0.845   5.850   2.166
23820WAT      O71701   7.371   7.905   5.985
23820WAT     H171702   7.380   7.856   5.899
23820WAT     H271703   7.275   7.906   6.013
23821WAT      O71704   6.417   7.700   2.662
23821WAT     H171705   6.404   7.792   2.698
23821WAT     H271706   6.505   7.695   2.614
23822WAT      O71707   9.371   0.859   0.426
23822WAT     H171708   9.350   0.855   0.328
23822WAT     H271709   9.464   0.824   0.441
23823WAT      O71710   2.096   6.136   6.628
23823WAT     H171711   2.192   6.119   6.650
23823WAT     H271712   2.091   6.192   6.545
23824WAT      O71713   8.006   5.775   2.515
23824WAT     H171714   7.909   5.800   2.508
23824WAT     H271715   8.058   5.853   2.550
23825WAT      O71716   7.073   0.465   2.295
23825WAT     H171717   7.164   0.459   2.335
23825WAT     H271718   7.024   0.543   2.335
23826WAT      O71719   8.090   6.592   1.646
23826WAT     H171720   8.051   6.574   1.737
23826WAT     H271721   8.043   6.534   1.579
23827WAT      O71722   7.959   8.746   6.698
23827WAT     H171723   7.945   8.812   6.772
23827WAT     H271724   8.054   8.715   6.697
23828WAT      O71725   8.472   6.467   3.958
23828WAT     H171726   8.491   6.477   4.056
23828WAT     H271727   8.407   6.392   3.944
23829WAT      O71728   6.839   0.789   4.059
23829WAT     H171729   6.741   0.769   4.050
23829WAT     H271730   6.882   0.785   3.969
23830WAT      O71731   0.580   8.165   4.010
23830WAT     H171732   0.494   8.213   3.994
23830WAT     H271733   0.564   8.066   4.013
23831WAT      O71734   4.104   2.485   8.253
23831WAT     H171735   4.180   2.438   8.298
23831WAT     H271736   4.137   2.569   8.210
23832WAT      O71737   0.342   6.550   5.895
23832WAT     H171738   0.283   6.472   5.875
23832WAT     H271739   0.349   6.608   5.814
23833WAT      O71740   8.965   8.894   0.731
23833WAT     H171741   8.902   8.904   0.808
23833WAT     H271742   8.926   8.831   0.664
23834WAT      O71743   5.998   4.048   3.204
23834WAT     H171744   6.014   4.049   3.302
23834WAT     H271745   6.029   4.134   3.164
23835WAT      O71746   5.537   5.741   0.610
23835WAT     H171747   5.465   5.789   0.559
23835WAT     H271748   5.498   5.660   0.653
23836WAT      O71749   6.550   8.568   6.983
23836WAT     H171750   6.587   8.484   7.022
23836WAT     H271751   6.452   8.574   7.004
23837WAT      O71752   2.434   1.441   6.955
23837WAT     H171753   2.505   1.419   6.887
23837WAT     H271754   2.377   1.515   6.920
23838WAT      O71755   8.519   4.905   2.965
23838WAT     H171756   8.464   4.874   3.042
23838WAT     H271757   8.493   4.998   2.941
23839WAT      O71758   5.666   7.223   1.645
23839WAT     H171759   5.715   7.305   1.616
23839WAT     H271760   5.686   7.204   1.741
23840WAT      O71761   1.589   7.331   6.406
23840WAT     H171762   1.494   7.359   6.419
23840WAT     H271763   1.644   7.362   6.483
23841WAT      O71764   8.271   6.119   7.439
23841WAT     H171765   8.268   6.030   7.485
23841WAT     H271766   8.263   6.106   7.340
23842WAT      O71767   8.625   3.600   2.062
23842WAT     H171768   8.671   3.649   2.136
23842WAT     H271769   8.544   3.651   2.034
23843WAT      O71770   1.524   2.506   4.349
23843WAT     H171771   1.474   2.457   4.277
23843WAT     H271772   1.564   2.439   4.412
23844WAT      O71773   7.737   1.856   6.272
23844WAT     H171774   7.826   1.810   6.262
23844WAT     H271775   7.666   1.788   6.291
23845WAT      O71776   9.185   1.688   5.744
23845WAT     H171777   9.222   1.596   5.735
23845WAT     H271778   9.225   1.746   5.672
23846WAT      O71779   2.287   2.252   7.591
23846WAT     H171780   2.198   2.206   7.591
23846WAT     H271781   2.357   2.189   7.623
23847WAT      O71782   4.900   1.441   0.533
23847WAT     H171783   4.994   1.421   0.506
23847WAT     H271784   4.900   1.495   0.617
23848WAT      O71785   2.414   1.338   2.609
23848WAT     H171786   2.358   1.380   2.681
23848WAT     H271787   2.500   1.305   2.649
23849WAT      O71788   6.829   8.181   8.343
23849WAT     H171789   6.847   8.279   8.335
23849WAT     H271790   6.859   8.135   8.260
23850WAT      O71791   2.927   5.072   1.144
23850WAT     H171792   2.944   5.006   1.217
23850WAT     H271793   2.900   5.159   1.183
23851WAT      O71794   4.501   7.412   6.688
23851WAT     H171795   4.417   7.372   6.650
23851WAT     H271796   4.494   7.412   6.788
23852WAT      O71797   7.189   2.610   8.765
23852WAT     H171798   7.210   2.706   8.750
23852WAT     H271799   7.170   2.566   8.677
23853WAT      O71800   4.070   0.044   3.627
23853WAT     H171801   4.168   0.027   3.636
23853WAT     H271802   4.031  -0.020   3.561
23854WAT      O71803   0.365   3.412   6.474
23854WAT     H171804   0.290   3.435   6.412
23854WAT     H271805   0.356   3.467   6.557
23855WAT      O71806   2.307   9.649   9.884
23855WAT     H171807   2.247   9.615   9.812
23855WAT     H271808   2.298   9.749   9.891
23856WAT      O71809   8.334   2.214   8.566
23856WAT     H171810   8.292   2.200   8.476
23856WAT     H271811   8.410   2.151   8.578
23857WAT      O71812   0.828   2.354   9.495
23857WAT     H171813   0.763   2.410   9.444
23857WAT     H271814   0.867   2.408   9.570
23858WAT      O71815   2.089   6.823   5.734
23858WAT     H171816   2.078   6.906   5.788
23858WAT     H271817   2.019   6.818   5.663
23859WAT      O71818   4.963   9.431   7.197
23859WAT     H171819   5.012   9.508   7.238
23859WAT     H271820   4.989   9.422   7.101
23860WAT      O71821   8.729   6.223   1.159
23860WAT     H171822   8.652   6.193   1.102
23860WAT     H271823   8.707   6.311   1.201
23861WAT      O71824   4.518   7.504   5.312
23861WAT     H171825   4.512   7.427   5.249
23861WAT     H271826   4.507   7.472   5.406
23862WAT      O71827   0.320   5.964   5.318
23862WAT     H171828   0.335   5.986   5.414
23862WAT     H271829   0.407   5.935   5.277
23863WAT      O71830   7.628   6.143   5.971
23863WAT     H171831   7.613   6.046   5.952
23863WAT     H271832   7.555   6.177   6.029
23864WAT      O71833   8.316   6.734   7.021
23864WAT     H171834   8.332   6.638   7.040
23864WAT     H271835   8.393   6.789   7.054
23865WAT      O71836   2.288   1.263   5.909
23865WAT     H171837   2.311   1.308   5.995
23865WAT     H271838   2.320   1.319   5.832
23866WAT      O71839   6.266   5.861   2.983
23866WAT     H171840   6.228   5.931   3.044
23866WAT     H271841   6.366   5.863   2.989
23867WAT      O71842   9.356   5.874   3.535
23867WAT     H171843   9.266   5.833   3.551
23867WAT     H271844   9.400   5.826   3.459
23868WAT      O71845   8.077   6.128   6.483
23868WAT     H171846   7.980   6.107   6.498
23868WAT     H271847   8.123   6.049   6.445
23869WAT      O71848   8.856   3.474   8.169
23869WAT     H171849   8.768   3.432   8.149
23869WAT     H271850   8.928   3.424   8.121
23870WAT      O71851   5.230   5.519   2.853
23870WAT     H171852   5.209   5.458   2.776
23870WAT     H271853   5.232   5.614   2.821
23871WAT      O71854   0.374   7.596   1.452
23871WAT     H171855   0.327   7.591   1.364
23871WAT     H271856   0.436   7.518   1.461
23872WAT      O71857   5.472   2.511   6.365
23872WAT     H171858   5.488   2.415   6.387
23872WAT     H271859   5.389   2.543   6.411
23873WAT      O71860   7.629   4.456   9.698
23873WAT     H171861   7.599   4.437   9.791
23873WAT     H271862   7.614   4.552   9.677
23874WAT      O71863   2.545   5.531   4.715
23874WAT     H171864   2.521   5.456   4.778
23874WAT     H271865   2.490   5.524   4.632
23875WAT      O71866   8.202   4.109   9.339
23875WAT     H171867   8.178   4.087   9.245
23875WAT     H271868   8.130   4.165   9.380
23876WAT      O71869   8.729   1.550   0.119
23876WAT     H171870   8.725   1.456   0.086
23876WAT     H271871   8.798   1.556   0.192
23877WAT      O71872   5.790   3.999   4.638
23877WAT     H171873   5.777   3.999   4.539
23877WAT     H271874   5.820   4.089   4.668
23878WAT      O71875   0.074   6.507   5.064
23878WAT     H171876   0.166   6.500   5.028
23878WAT     H271877   0.047   6.420   5.106
23879WAT      O71878   1.505   1.664   1.719
23879WAT     H171879   1.465   1.687   1.631
23879WAT     H271880   1.512   1.747   1.775
23880WAT      O71881   4.958   3.010   2.269
23880WAT     H171882   5.058   3.018   2.267
23880WAT     H271883   4.933   2.916   2.245
23881WAT      O71884   7.560   0.520   8.380
23881WAT     H171885   7.647   0.474   8.361
23881WAT     H271886   7.512   0.538   8.295
23882WAT      O71887   7.831   7.762   6.749
23882WAT     H171888   7.882   7.840   6.713
23882WAT     H271889   7.889   7.680   6.744
23883WAT      O71890   7.799   7.643   9.365
23883WAT     H171891   7.855   7.582   9.422
23883WAT     H271892   7.705   7.642   9.399
23884WAT      O71893   4.724   9.184   3.041
23884WAT     H171894   4.792   9.255   3.027
23884WAT     H271895   4.642   9.204   2.987
23885WAT      O71896   6.283   7.011   3.847
23885WAT     H171897   6.247   7.104   3.856
23885WAT     H271898   6.276   6.981   3.752
23886WAT      O71899   6.527   4.290   0.400
23886WAT     H171900   6.591   4.342   0.456
23886WAT     H271901   6.514   4.336   0.312
23887WAT      O71902   7.344   7.940   8.144
23887WAT     H171903   7.319   8.004   8.217
23887WAT     H271904   7.305   7.850   8.162
23888WAT      O71905   5.106   3.275   1.273
23888WAT     H171906   5.201   3.274   1.304
23888WAT     H271907   5.045   3.278   1.352
23889WAT      O71908   1.599   1.391   2.647
23889WAT     H171909   1.606   1.295   2.620
23889WAT     H271910   1.545   1.441   2.579
23890WAT      O71911   4.995   9.168   7.849
23890WAT     H171912   4.901   9.158   7.881
23890WAT     H271913   5.056   9.111   7.904
23891WAT      O71914   6.696   9.694   2.804
23891WAT     H171915   6.763   9.622   2.821
23891WAT     H271916   6.726   9.751   2.727
23892WAT      O71917   7.755   5.547   5.275
23892WAT     H171918   7.837   5.600   5.254
23892WAT     H271919   7.696   5.545   5.195
23893WAT      O71920   6.879   6.483   7.529
23893WAT     H171921   6.819   6.455   7.603
23893WAT     H271922   6.888   6.409   7.463
23894WAT      O71923   7.755   9.157   8.486
23894WAT     H171924   7.837   9.103   8.504
23894WAT     H271925   7.775   9.254   8.503
23895WAT      O71926   6.836   8.861   8.369
23895WAT     H171927   6.907   8.924   8.337
23895WAT     H271928   6.824   8.872   8.468
23896WAT      O71929   1.096   2.288   1.339
23896WAT     H171930   1.038   2.318   1.414
23896WAT     H271931   1.105   2.188   1.342
23897WAT      O71932   2.130   4.854   7.015
23897WAT     H171933   2.032   4.877   7.015
23897WAT     H271934   2.164   4.855   7.109
23898WAT      O71935   7.031   6.541   9.842
23898WAT     H171936   7.071   6.469   9.899
23898WAT     H271937   6.944   6.509   9.805
23899WAT      O71938   5.623   5.402   8.516
23899WAT     H171939   5.693   5.438   8.577
23899WAT     H271940   5.536   5.448   8.534
23900WAT      O71941   7.430   2.208   6.762
23900WAT     H171942   7.353   2.208   6.827
23900WAT     H271943   7.476   2.120   6.765
23901WAT      O71944   4.923   5.236   4.146
23901WAT     H171945   4.925   5.169   4.220
23901WAT     H271946   4.944   5.192   4.059
23902WAT      O71947   1.550   6.965   7.680
23902WAT     H171948   1.641   7.002   7.661
23902WAT     H271949   1.545   6.936   7.776
23903WAT      O71950   2.177   8.320   7.616
23903WAT     H171951   2.251   8.334   7.550
23903WAT     H271952   2.143   8.227   7.608
23904WAT      O71953   2.230   1.429   0.464
23904WAT     H171954   2.254   1.442   0.560
23904WAT     H271955   2.299   1.371   0.420
23905WAT      O71956   2.973   7.338   4.605
23905WAT     H171957   3.010   7.347   4.697
23905WAT     H271958   2.940   7.245   4.591
23906WAT      O71959   5.616   3.830   8.324
23906WAT     H171960   5.706   3.787   8.323
23906WAT     H271961   5.559   3.787   8.394
23907WAT      O71962   8.412   0.117   2.552
23907WAT     H171963   8.507   0.142   2.533
23907WAT     H271964   8.355   0.199   2.545
23908WAT      O71965   1.342   7.456   6.435
23908WAT     H171966   1.277   7.415   6.500
23908WAT     H271967   1.395   7.527   6.481
23909WAT      O71968   0.634   7.225   6.165
23909WAT     H171969   0.682   7.266   6.087
23909WAT     H271970   0.537   7.246   6.158
23910WAT      O71971   1.597   9.694   8.022
23910WAT     H171972   1.696   9.680   8.029
23910WAT     H271973   1.579   9.781   7.977
23911WAT      O71974   4.930   8.549   5.068
23911WAT     H171975   4.976   8.490   5.002
23911WAT     H271976   4.994   8.575   5.141
23912WAT      O71977   8.972   3.485   4.864
23912WAT     H171978   8.950   3.553   4.794
23912WAT     H271979   9.017   3.406   4.821
23913WAT      O71980   5.876   9.381   8.345
23913WAT     H171981   5.818   9.321   8.291
23913WAT     H271982   5.971   9.371   8.315
23914WAT      O71983   3.212   3.192   8.262
23914WAT     H171984   3.176   3.248   8.188
23914WAT     H271985   3.282   3.243   8.313
23915WAT      O71986   2.685   6.092   1.416
23915WAT     H171987   2.641   6.181   1.429
23915WAT     H271988   2.773   6.091   1.463
23916WAT      O71989   8.214   1.666   6.641
23916WAT     H171990   8.191   1.614   6.723
23916WAT     H271991   8.151   1.743   6.632
23917WAT      O71992   0.107   5.607   2.758
23917WAT     H171993   0.198   5.600   2.718
23917WAT     H271994   0.100   5.694   2.808
23918WAT      O71995   3.202   7.756   7.776
23918WAT     H171996   3.226   7.748   7.679
23918WAT     H271997   3.283   7.785   7.828
23919WAT      O71998   3.610   8.982   1.999
23919WAT     H171999   3.534   9.047   2.013
23919WAT     H272000   3.692   9.017   2.043
23920WAT      O72001   9.044   6.143   9.652
23920WAT     H172002   9.091   6.073   9.599
23920WAT     H272003   9.019   6.219   9.593
23921WAT      O72004   3.715   8.123   4.127
23921WAT     H172005   3.679   8.069   4.051
23921WAT     H272006   3.681   8.086   4.214
23922WAT      O72007   0.354   8.953   6.808
23922WAT     H172008   0.356   8.856   6.784
23922WAT     H272009   0.272   8.972   6.862
23923WAT      O72010   7.980   5.681   5.193
23923WAT     H172011   7.956   5.618   5.119
23923WAT     H272012   8.058   5.645   5.243
23924WAT      O72013   1.020   6.419   0.548
23924WAT     H172014   0.999   6.494   0.610
23924WAT     H272015   1.109   6.434   0.505
23925WAT      O72016   0.725   2.184   8.601
23925WAT     H172017   0.824   2.169   8.594
23925WAT     H272018   0.701   2.265   8.547
23926WAT      O72019   3.398   9.733   0.693
23926WAT     H172020   3.478   9.736   0.754
23926WAT     H272021   3.424   9.693   0.605
23927WAT      O72022   7.669   1.133   9.784
23927WAT     H172023   7.747   1.185   9.819
23927WAT     H272024   7.696   1.038   9.769
23928WAT      O72025   5.288   1.603   0.590
23928WAT     H172026   5.211   1.633   0.647
23928WAT     H272027   5.254   1.563   0.506
23929WAT      O72028   6.087   5.940   9.791
23929WAT     H172029   6.035   6.022   9.815
23929WAT     H272030   6.149   5.917   9.866
23930WAT      O72031   8.126   2.192   5.658
23930WAT     H172032   8.181   2.269   5.626
23930WAT     H272033   8.163   2.158   5.744
23931WAT      O72034   9.683   1.839   5.783
23931WAT     H172035   9.780   1.858   5.767
23931WAT     H272036   9.630   1.859   5.700
23932WAT      O72037   6.672   0.099   4.107
23932WAT     H172038   6.684   0.184   4.056
23932WAT     H272039   6.587   0.104   4.161
23933WAT      O72040   8.047   0.457   6.282
23933WAT     H172041   8.066   0.382   6.345
23933WAT     H272042   8.045   0.422   6.188
23934WAT      O72043   2.268   2.839   0.489
23934WAT     H172044   2.178   2.857   0.528
23934WAT     H272045   2.302   2.921   0.444
23935WAT      O72046   4.195   2.266   5.965
23935WAT     H172047   4.248   2.181   5.973
23935WAT     H272048   4.257   2.344   5.968
23936WAT      O72049   9.833   0.581   4.980
23936WAT     H172050   9.754   0.634   4.947
23936WAT     H272051   9.864   0.619   5.067
23937WAT      O72052   3.565   6.265   6.204
23937WAT     H172053   3.470   6.288   6.181
23937WAT     H272054   3.626   6.339   6.174
23938WAT      O72055   2.358   5.506   0.486
23938WAT     H172056   2.352   5.483   0.583
23938WAT     H272057   2.285   5.459   0.436
23939WAT      O72058   3.828   7.921   0.333
23939WAT     H172059   3.894   7.986   0.295
23939WAT     H272060   3.861   7.890   0.422
23940WAT      O72061   7.916   8.018   4.094
23940WAT     H172062   8.012   8.041   4.081
23940WAT     H272063   7.864   8.048   4.014
23941WAT      O72064   7.872   2.304   7.817
23941WAT     H172065   7.877   2.266   7.725
23941WAT     H272066   7.859   2.230   7.883
23942WAT      O72067   2.025   1.043   4.347
23942WAT     H172068   1.944   0.986   4.363
23942WAT     H272069   2.003   1.138   4.365
23943WAT      O72070   9.262   1.136   3.532
23943WAT     H172071   9.294   1.099   3.445
23943WAT     H272072   9.332   1.195   3.572
23944WAT      O72073   6.225   0.195   9.880
23944WAT     H172074   6.289   0.147   9.820
23944WAT     H272075   6.132   0.162   9.862
23945WAT      O72076   8.429   4.003   4.230
23945WAT     H172077   8.383   4.004   4.319
23945WAT     H272078   8.463   3.912   4.211
23946WAT      O72079   3.841   6.173   8.789
23946WAT     H172080   3.819   6.084   8.749
23946WAT     H272081   3.848   6.164   8.889
23947WAT      O72082   0.772   0.248   6.030
23947WAT     H172083   0.864   0.216   6.050
23947WAT     H272084   0.721   0.175   5.983
23948WAT      O72085   3.213   8.962   5.459
23948WAT     H172086   3.157   8.957   5.376
23948WAT     H272087   3.304   8.924   5.439
23949WAT      O72088   8.291   6.384   1.769
23949WAT     H172089   8.235   6.462   1.741
23949WAT     H272090   8.378   6.385   1.719
23950WAT      O72091   4.365   8.020   7.710
23950WAT     H172092   4.436   8.090   7.712
23950WAT     H272093   4.275   8.063   7.717
23951WAT      O72094   6.629   7.685   8.554
23951WAT     H172095   6.607   7.595   8.592
23951WAT     H272096   6.644   7.750   8.628
23952WAT      O72097   9.709   0.012   3.190
23952WAT     H172098   9.747  -0.071   3.147
23952WAT     H272099   9.768   0.040   3.266
23953WAT      O72100   1.009   8.061   0.763
23953WAT     H172101   0.911   8.039   0.763
23953WAT     H272102   1.039   8.076   0.669
23954WAT      O72103   5.741   4.138   9.343
23954WAT     H172104   5.821   4.141   9.283
23954WAT     H272105   5.662   4.101   9.293
23955WAT      O72106   0.851   0.643   8.650
23955WAT     H172107   0.780   0.687   8.705
23955WAT     H272108   0.941   0.668   8.686
23956WAT      O72109   2.749   5.848   1.651
23956WAT     H172110   2.712   5.791   1.725
23956WAT     H272111   2.774   5.938   1.688
23957WAT      O72112   6.942   6.347   4.943
23957WAT     H172113   7.027   6.398   4.956
23957WAT     H272114   6.962   6.249   4.936
23958WAT      O72115   1.527   4.238   6.172
23958WAT     H172116   1.441   4.221   6.222
23958WAT     H272117   1.511   4.227   6.074
23959WAT      O72118   4.639   8.605   8.977
23959WAT     H172119   4.656   8.512   8.943
23959WAT     H272120   4.717   8.663   8.956
23960WAT      O72121   0.658   1.423   2.375
23960WAT     H172122   0.559   1.417   2.369
23960WAT     H272123   0.689   1.382   2.461
23961WAT      O72124   2.189   7.041   9.733
23961WAT     H172125   2.268   6.991   9.767
23961WAT     H272126   2.201   7.061   9.636
23962WAT      O72127   7.782   8.849   5.339
23962WAT     H172128   7.805   8.839   5.436
23962WAT     H272129   7.803   8.943   5.310
23963WAT      O72130   6.410   4.238   7.956
23963WAT     H172131   6.433   4.332   7.933
23963WAT     H272132   6.470   4.176   7.905
23964WAT      O72133   9.646   2.744   6.843
23964WAT     H172134   9.625   2.672   6.777
23964WAT     H272135   9.646   2.706   6.935
23965WAT      O72136   0.161   2.001   0.126
23965WAT     H172137   0.148   1.902   0.133
23965WAT     H272138   0.239   2.020   0.066
23966WAT      O72139   0.426   9.802   3.333
23966WAT     H172140   0.376   9.827   3.249
23966WAT     H272141   0.369   9.824   3.413
23967WAT      O72142   9.143   6.674   6.404
23967WAT     H172143   9.053   6.681   6.361
23967WAT     H272144   9.132   6.632   6.495
23968WAT      O72145   4.170   4.574   1.227
23968WAT     H172146   4.217   4.652   1.268
23968WAT     H272147   4.230   4.533   1.157
23969WAT      O72148   2.420   4.160   5.964
23969WAT     H172149   2.357   4.096   5.919
23969WAT     H272150   2.511   4.119   5.970
23970WAT      O72151   9.207   5.488   1.889
23970WAT     H172152   9.152   5.501   1.807
23970WAT     H272153   9.163   5.421   1.948
23971WAT      O72154   4.072   4.559   7.678
23971WAT     H172155   4.121   4.633   7.725
23971WAT     H272156   4.053   4.485   7.741
23972WAT      O72157   1.113   2.142   3.997
23972WAT     H172158   1.200   2.152   3.949
23972WAT     H272159   1.066   2.060   3.965
23973WAT      O72160   2.569   4.237   4.639
23973WAT     H172161   2.546   4.177   4.562
23973WAT     H272162   2.522   4.325   4.627
23974WAT      O72163   4.505   7.844   2.262
23974WAT     H172164   4.472   7.912   2.327
23974WAT     H272165   4.589   7.803   2.297
23975WAT      O72166   1.626   9.696   3.432
23975WAT     H172167   1.715   9.650   3.425
23975WAT     H272168   1.578   9.663   3.513
23976WAT      O72169   0.089   0.721   4.215
23976WAT     H172170   0.041   0.805   4.190
23976WAT     H272171   0.182   0.744   4.244
23977WAT      O72172   5.635   6.349   0.084
23977WAT     H172173   5.581   6.399   0.017
23977WAT     H272174   5.652   6.408   0.163
23978WAT      O72175   1.514   3.177   2.561
23978WAT     H172176   1.587   3.143   2.620
23978WAT     H272177   1.554   3.221   2.481
23979WAT      O72178   8.433   5.183   7.575
23979WAT     H172179   8.468   5.181   7.668
23979WAT     H272180   8.509   5.180   7.510
23980WAT      O72181   2.075   4.638   0.530
23980WAT     H172182   2.033   4.726   0.554
23980WAT     H272183   2.074   4.578   0.610
23981WAT      O72184   8.137   6.594   0.359
23981WAT     H172185   8.182   6.548   0.283
23981WAT     H272186   8.049   6.631   0.328
23982WAT      O72187   4.429   5.854   8.575
23982WAT     H172188   4.520   5.835   8.611
23982WAT     H272189   4.376   5.904   8.643
23983WAT      O72190   3.364   6.000   1.793
23983WAT     H172191   3.385   5.991   1.890
23983WAT     H272192   3.393   5.918   1.744
23984WAT      O72193   0.043   8.941   0.881
23984WAT     H172194  -0.015   8.899   0.811
23984WAT     H272195   0.091   8.869   0.931
23985WAT      O72196   3.774   4.916   2.360
23985WAT     H172197   3.776   5.002   2.412
23985WAT     H272198   3.688   4.869   2.376
23986WAT      O72199   1.498   8.624   4.695
23986WAT     H172200   1.591   8.634   4.732
23986WAT     H272201   1.436   8.683   4.746
23987WAT      O72202   5.112   6.503   3.913
23987WAT     H172203   5.107   6.511   4.012
23987WAT     H272204   5.023   6.471   3.878
23988WAT      O72205   9.672   3.495   6.729
23988WAT     H172206   9.749   3.478   6.668
23988WAT     H272207   9.705   3.533   6.815
23989WAT      O72208   9.436   7.431   9.720
23989WAT     H172209   9.352   7.377   9.724
23989WAT     H272210   9.414   7.528   9.729
23990WAT      O72211   8.218   8.058   7.219
23990WAT     H172212   8.270   7.980   7.183
23990WAT     H272213   8.279   8.115   7.275
23991WAT      O72214   4.681   6.908   7.759
23991WAT     H172215   4.753   6.974   7.737
23991WAT     H272216   4.672   6.899   7.858
23992WAT      O72217   9.253   2.635   6.049
23992WAT     H172218   9.332   2.574   6.042
23992WAT     H272219   9.283   2.730   6.038
23993WAT      O72220   3.691   9.825   9.519
23993WAT     H172221   3.725   9.744   9.473
23993WAT     H272222   3.664   9.802   9.612
23994WAT      O72223   5.911   2.976   8.614
23994WAT     H172224   5.859   2.978   8.699
23994WAT     H272225   6.009   2.981   8.634
23995WAT      O72226   3.198   2.092   7.797
23995WAT     H172227   3.220   2.178   7.750
23995WAT     H272228   3.169   2.112   7.890
23996WAT      O72229   0.967   7.597   0.114
23996WAT     H172230   0.897   7.527   0.118
23996WAT     H272231   1.017   7.600   0.201
23997WAT      O72232   2.042   5.139   2.206
23997WAT     H172233   1.995   5.092   2.132
23997WAT     H272234   2.138   5.153   2.181
23998WAT      O72235   2.920   2.415   1.253
23998WAT     H172236   2.857   2.367   1.191
23998WAT     H272237   2.919   2.513   1.233
23999WAT      O72238   1.664   4.111   5.427
23999WAT     H172239   1.663   4.145   5.521
23999WAT     H272240   1.708   4.021   5.425
24000WAT      O72241   2.336   4.096   4.276
24000WAT     H172242   2.273   4.111   4.353
24000WAT     H272243   2.429   4.121   4.303
24001WAT      O72244   3.575   3.170   3.150
24001WAT     H172245   3.656   3.214   3.110
24001WAT     H272246   3.604   3.104   3.220
24002WAT      O72247   1.696   2.915   9.831
24002WAT     H172248   1.645   2.921   9.746
24002WAT     H272249   1.642   2.956   9.905
24003WAT      O72250   1.417   7.404   1.608
24003WAT     H172251   1.362   7.321   1.596
24003WAT     H272252   1.416   7.457   1.523
24004WAT      O72253   5.384   7.196   8.759
24004WAT     H172254   5.437   7.115   8.782
24004WAT     H272255   5.344   7.236   8.841
24005WAT      O72256   5.200   4.848   2.676
24005WAT     H172257   5.130   4.858   2.606
24005WAT     H272258   5.204   4.930   2.733
24006WAT      O72259   5.348   6.122   2.857
24006WAT     H172260   5.407   6.042   2.860
24006WAT     H272261   5.252   6.094   2.868
24007WAT      O72262   1.717   5.924   7.501
24007WAT     H172263   1.698   5.832   7.465
24007WAT     H272264   1.815   5.942   7.496
24008WAT      O72265   3.814   5.259   7.723
24008WAT     H172266   3.783   5.353   7.716
24008WAT     H272267   3.735   5.198   7.736
24009WAT      O72268   8.316   7.226   3.158
24009WAT     H172269   8.415   7.231   3.145
24009WAT     H272270   8.279   7.152   3.102
24010WAT      O72271   6.610   4.018   2.283
24010WAT     H172272   6.620   3.984   2.377
24010WAT     H272273   6.697   4.056   2.252
24011WAT      O72274   3.223   4.361   9.633
24011WAT     H172275   3.157   4.306   9.584
24011WAT     H272276   3.256   4.311   9.713
24012WAT      O72277   1.358   3.537   3.289
24012WAT     H172278   1.380   3.626   3.329
24012WAT     H272279   1.302   3.484   3.353
24013WAT      O72280   3.299   1.739   9.684
24013WAT     H172281   3.387   1.694   9.671
24013WAT     H272282   3.225   1.673   9.671
24014WAT      O72283   4.954   9.324   1.693
24014WAT     H172284   4.886   9.376   1.641
24014WAT     H272285   4.926   9.228   1.700
24015WAT      O72286   9.639   1.786   6.423
24015WAT     H172287   9.542   1.804   6.437
24015WAT     H272288   9.692   1.837   6.491
24016WAT      O72289   6.582   6.990   1.470
24016WAT     H172290   6.547   6.924   1.403
24016WAT     H272291   6.550   6.965   1.561
24017WAT      O72292   2.795   8.015   4.069
24017WAT     H172293   2.834   8.102   4.038
24017WAT     H272294   2.837   7.988   4.155
24018WAT      O72295   2.664   0.122   9.524
24018WAT     H172296   2.673   0.059   9.601
24018WAT     H272297   2.631   0.211   9.557
24019WAT      O72298   1.253   0.762   8.523
24019WAT     H172299   1.227   0.666   8.508
24019WAT     H272300   1.350   0.766   8.546
24020WAT      O72301   8.830   5.393   6.243
24020WAT     H172302   8.929   5.379   6.246
24020WAT     H272303   8.811   5.489   6.219
24021WAT      O72304   7.230   5.198   1.216
24021WAT     H172305   7.202   5.121   1.159
24021WAT     H272306   7.248   5.277   1.157
24022WAT      O72307   6.057   5.800   8.210
24022WAT     H172308   6.007   5.845   8.284
24022WAT     H272309   6.145   5.766   8.246
24023WAT      O72310   7.312   4.330   6.753
24023WAT     H172311   7.334   4.247   6.701
24023WAT     H272312   7.315   4.409   6.692
24024WAT      O72313   0.818   9.525   7.557
24024WAT     H172314   0.726   9.502   7.590
24024WAT     H272315   0.812   9.558   7.463
24025WAT      O72316   4.737   2.275   1.044
24025WAT     H172317   4.811   2.222   1.086
24025WAT     H272318   4.773   2.325   0.965
24026WAT      O72319   3.865   8.014   2.833
24026WAT     H172320   3.805   7.990   2.909
24026WAT     H272321   3.940   7.947   2.828
24027WAT      O72322   9.189   6.663   2.592
24027WAT     H172323   9.178   6.684   2.495
24027WAT     H272324   9.287   6.664   2.615
24028WAT      O72325   6.215   7.817   6.854
24028WAT     H172326   6.179   7.726   6.876
24028WAT     H272327   6.263   7.814   6.766
24029WAT      O72328   4.169   5.150   7.978
24029WAT     H172329   4.172   5.249   7.984
24029WAT     H272330   4.160   5.123   7.882
24030WAT      O72331   1.870   4.813   2.759
24030WAT     H172332   1.791   4.806   2.699
24030WAT     H272333   1.921   4.897   2.739
24031WAT      O72334   7.996   4.210   5.641
24031WAT     H172335   8.091   4.185   5.657
24031WAT     H272336   7.991   4.299   5.597
24032WAT      O72337   4.448   0.315   1.269
24032WAT     H172338   4.377   0.355   1.211
24032WAT     H272339   4.427   0.218   1.285
24033WAT      O72340   6.704   2.499   1.832
24033WAT     H172341   6.713   2.403   1.805
24033WAT     H272342   6.756   2.515   1.916
24034WAT      O72343   3.865   0.700   9.351
24034WAT     H172344   3.842   0.794   9.327
24034WAT     H272345   3.830   0.639   9.280
24035WAT      O72346   8.855   8.501   2.975
24035WAT     H172347   8.880   8.597   2.988
24035WAT     H272348   8.847   8.456   3.064
24036WAT      O72349   1.861   4.686   7.328
24036WAT     H172350   1.773   4.648   7.356
24036WAT     H272351   1.865   4.690   7.228
24037WAT      O72352   0.239   8.028   9.741
24037WAT     H172353   0.330   8.069   9.742
24037WAT     H272354   0.173   8.094   9.777
24038WAT      O72355   5.434   2.404   5.944
24038WAT     H172356   5.369   2.397   5.868
24038WAT     H272357   5.448   2.314   5.984
24039WAT      O72358   0.842   3.142   4.345
24039WAT     H172359   0.870   3.202   4.420
24039WAT     H272360   0.884   3.053   4.356
24040WAT      O72361   6.790   4.536   5.119
24040WAT     H172362   6.731   4.575   5.190
24040WAT     H272363   6.835   4.454   5.153
24041WAT      O72364   7.876   4.771   7.389
24041WAT     H172365   7.886   4.855   7.336
24041WAT     H272366   7.927   4.780   7.475
24042WAT      O72367   6.224   9.705   3.566
24042WAT     H172368   6.272   9.628   3.523
24042WAT     H272369   6.262   9.791   3.532
24043WAT      O72370   8.577   3.858   8.670
24043WAT     H172371   8.603   3.790   8.738
24043WAT     H272372   8.654   3.875   8.608
24044WAT      O72373   4.374   6.407   2.664
24044WAT     H172374   4.281   6.379   2.642
24044WAT     H272375   4.405   6.475   2.597
24045WAT      O72376   1.963   3.524   9.731
24045WAT     H172377   1.914   3.437   9.723
24045WAT     H272378   1.977   3.545   9.827
24046WAT      O72379   3.467   8.703   7.234
24046WAT     H172380   3.414   8.709   7.150
24046WAT     H272381   3.453   8.786   7.288
24047WAT      O72382   1.401   2.775   7.413
24047WAT     H172383   1.337   2.813   7.346
24047WAT     H272384   1.493   2.772   7.373
24048WAT      O72385   8.182   7.092   7.858
24048WAT     H172386   8.240   7.173   7.853
24048WAT     H272387   8.095   7.110   7.812
24049WAT      O72388   6.201   8.017   2.679
24049WAT     H172389   6.198   8.071   2.595
24049WAT     H272390   6.294   7.981   2.692
24050WAT      O72391   8.609   1.613   5.821
24050WAT     H172392   8.611   1.572   5.729
24050WAT     H272393   8.666   1.558   5.882
24051WAT      O72394   4.275   4.379   4.867
24051WAT     H172395   4.180   4.388   4.838
24051WAT     H272396   4.309   4.289   4.841
24052WAT      O72397   0.412   9.802   1.982
24052WAT     H172398   0.441   9.876   1.921
24052WAT     H272399   0.321   9.771   1.956
24053WAT      O72400   3.256   3.383   8.987
24053WAT     H172401   3.316   3.316   8.943
24053WAT     H272402   3.176   3.399   8.930
24054WAT      O72403   6.607   8.642   2.828
24054WAT     H172404   6.698   8.652   2.869
24054WAT     H272405   6.601   8.553   2.783
24055WAT      O72406   4.184   0.319   4.489
24055WAT     H172407   4.152   0.411   4.513
24055WAT     H272408   4.229   0.322   4.400
24056WAT      O72409   5.291   2.424   0.855
24056WAT     H172410   5.347   2.390   0.931
24056WAT     H272411   5.194   2.421   0.881
24057WAT      O72412   0.600   1.756   7.580
24057WAT     H172413   0.502   1.755   7.599
24057WAT     H272414   0.630   1.849   7.562
24058WAT      O72415   6.770   5.712   9.225
24058WAT     H172416   6.692   5.774   9.236
24058WAT     H272417   6.828   5.744   9.150
24059WAT      O72418   8.605   8.473   5.766
24059WAT     H172419   8.646   8.394   5.812
24059WAT     H272420   8.509   8.454   5.746
24060WAT      O72421   4.743   1.400   9.189
24060WAT     H172422   4.708   1.376   9.098
24060WAT     H272423   4.711   1.492   9.213
24061WAT      O72424   1.987   1.036   5.201
24061WAT     H172425   2.085   1.019   5.205
24061WAT     H272426   1.964   1.083   5.116
24062WAT      O72427   2.261   6.928   5.211
24062WAT     H172428   2.297   7.018   5.188
24062WAT     H272429   2.211   6.933   5.298
24063WAT      O72430   9.592   6.427   2.320
24063WAT     H172431   9.552   6.484   2.392
24063WAT     H272432   9.575   6.331   2.339
24064WAT      O72433   8.200   3.411   3.347
24064WAT     H172434   8.128   3.385   3.283
24064WAT     H272435   8.270   3.340   3.349
24065WAT      O72436   0.500   2.177   7.151
24065WAT     H172437   0.492   2.172   7.051
24065WAT     H272438   0.496   2.273   7.179
24066WAT      O72439   9.672   8.581   0.009
24066WAT     H172440   9.639   8.596  -0.084
24066WAT     H272441   9.639   8.655   0.068
24067WAT      O72442   5.702   6.589   3.210
24067WAT     H172443   5.739   6.549   3.126
24067WAT     H272444   5.738   6.682   3.221
24068WAT      O72445   8.046   7.381   5.295
24068WAT     H172446   7.980   7.419   5.231
24068WAT     H272447   8.137   7.419   5.275
24069WAT      O72448   3.216   8.874   8.750
24069WAT     H172449   3.217   8.882   8.850
24069WAT     H272450   3.282   8.938   8.711
24070WAT      O72451   2.542   9.062   6.997
24070WAT     H172452   2.474   8.989   7.003
24070WAT     H272453   2.532   9.123   7.076
24071WAT      O72454   3.301   3.455   4.219
24071WAT     H172455   3.304   3.459   4.119
24071WAT     H272456   3.363   3.524   4.257
24072WAT      O72457   3.193   0.278   8.437
24072WAT     H172458   3.254   0.202   8.415
24072WAT     H272459   3.158   0.319   8.352
24073WAT      O72460   9.370   7.794   5.823
24073WAT     H172461   9.298   7.863   5.837
24073WAT     H272462   9.334   7.703   5.847
24074WAT      O72463   9.574   4.273   6.851
24074WAT     H172464   9.530   4.194   6.892
24074WAT     H272465   9.669   4.279   6.883
24075WAT      O72466   6.375   0.083   1.565
24075WAT     H172467   6.332   0.060   1.653
24075WAT     H272468   6.443   0.155   1.579
24076WAT      O72469   1.641   7.858   0.879
24076WAT     H172470   1.621   7.762   0.858
24076WAT     H272471   1.738   7.876   0.864
24077WAT      O72472   7.777   5.860   5.737
24077WAT     H172473   7.870   5.845   5.772
24077WAT     H272474   7.712   5.859   5.814
24078WAT      O72475   2.050   9.006   6.210
24078WAT     H172476   1.957   9.043   6.218
24078WAT     H272477   2.105   9.038   6.288
24079WAT      O72478   6.919   5.421   8.936
24079WAT     H172479   6.850   5.357   8.971
24079WAT     H272480   6.960   5.384   8.853
24080WAT      O72481   2.656   5.652   8.653
24080WAT     H172482   2.660   5.685   8.748
24080WAT     H272483   2.668   5.553   8.652
24081WAT      O72484   5.374   0.516   4.471
24081WAT     H172485   5.309   0.558   4.534
24081WAT     H272486   5.424   0.587   4.422
24082WAT      O72487   2.516   4.746   0.501
24082WAT     H172488   2.472   4.742   0.591
24082WAT     H272489   2.523   4.654   0.463
24083WAT      O72490   5.773   5.884   6.922
24083WAT     H172491   5.790   5.874   6.824
24083WAT     H272492   5.846   5.940   6.963
24084WAT      O72493   1.878   5.226   6.418
24084WAT     H172494   1.817   5.180   6.483
24084WAT     H272495   1.824   5.286   6.359
24085WAT      O72496   4.480   5.276   4.729
24085WAT     H172497   4.464   5.178   4.738
24085WAT     H272498   4.496   5.299   4.633
24086WAT      O72499   8.728   1.057   6.391
24086WAT     H172500   8.633   1.070   6.366
24086WAT     H272501   8.770   0.988   6.332
24087WAT      O72502   6.772   3.441   4.143
24087WAT     H172503   6.828   3.516   4.179
24087WAT     H272504   6.676   3.469   4.139
24088WAT      O72505   1.287   3.220   1.566
24088WAT     H172506   1.244   3.244   1.478
24088WAT     H272507   1.361   3.155   1.550
24089WAT      O72508   8.630   4.945   7.231
24089WAT     H172509   8.535   4.922   7.252
24089WAT     H272510   8.649   5.037   7.263
24090WAT      O72511   6.069   4.496   3.885
24090WAT     H172512   6.128   4.547   3.949
24090WAT     H272513   6.110   4.497   3.794
24091WAT      O72514   7.790   9.524   0.123
24091WAT     H172515   7.703   9.487   0.092
24091WAT     H272516   7.860   9.452   0.121
24092WAT      O72517   7.871   8.020   0.686
24092WAT     H172518   7.830   8.105   0.720
24092WAT     H272519   7.927   7.978   0.757
24093WAT      O72520   3.067   6.386   1.143
24093WAT     H172521   3.026   6.444   1.072
24093WAT     H272522   2.997   6.359   1.209
24094WAT      O72523   4.021   7.426   5.822
24094WAT     H172524   4.111   7.394   5.791
24094WAT     H272525   4.029   7.520   5.854
24095WAT      O72526   8.415   1.625   4.907
24095WAT     H172527   8.501   1.576   4.890
24095WAT     H272528   8.338   1.565   4.886
24096WAT      O72529   6.771   3.314   9.169
24096WAT     H172530   6.671   3.318   9.163
24096WAT     H272531   6.807   3.256   9.095
24097WAT      O72532   5.900   1.072   6.234
24097WAT     H172533   5.872   1.168   6.240
24097WAT     H272534   5.949   1.046   6.317
24098WAT      O72535   4.938   8.546   2.873
24098WAT     H172536   4.977   8.473   2.817
24098WAT     H272537   5.012   8.596   2.918
24099WAT      O72538   3.778   3.629   6.895
24099WAT     H172539   3.784   3.706   6.832
24099WAT     H272540   3.841   3.557   6.866
24100WAT      O72541   8.737   5.894   8.661
24100WAT     H172542   8.698   5.973   8.708
24100WAT     H272543   8.671   5.859   8.594
24101WAT      O72544   6.400   8.305   0.356
24101WAT     H172545   6.357   8.394   0.347
24101WAT     H272546   6.439   8.296   0.448
24102WAT      O72547   4.058   4.428   0.694
24102WAT     H172548   4.116   4.411   0.615
24102WAT     H272549   4.010   4.344   0.719
24103WAT      O72550   5.349   0.458   6.068
24103WAT     H172551   5.388   0.367   6.062
24103WAT     H272552   5.393   0.508   6.143
24104WAT      O72553   6.259   6.742   7.276
24104WAT     H172554   6.279   6.719   7.371
24104WAT     H272555   6.338   6.787   7.235
24105WAT      O72556   5.106   1.647   2.987
24105WAT     H172557   5.102   1.632   2.889
24105WAT     H272558   5.190   1.697   3.010
24106WAT      O72559   7.719   9.486   9.124
24106WAT     H172560   7.670   9.403   9.099
24106WAT     H272561   7.812   9.484   9.085
24107WAT      O72562   2.390   7.665   2.020
24107WAT     H172563   2.328   7.591   2.047
24107WAT     H272564   2.363   7.750   2.065
24108WAT      O72565   0.430   3.998   1.973
24108WAT     H172566   0.344   4.017   1.927
24108WAT     H272567   0.498   4.068   1.948
24109WAT      O72568   3.836   5.939   4.051
24109WAT     H172569   3.908   5.886   4.096
24109WAT     H272570   3.844   5.930   3.952
24110WAT      O72571   9.627   7.382   3.312
24110WAT     H172572   9.538   7.419   3.289
24110WAT     H272573   9.651   7.407   3.406
24111WAT      O72574   5.017   9.670   1.613
24111WAT     H172575   5.105   9.639   1.650
24111WAT     H272576   5.007   9.636   1.519
24112WAT      O72577   9.383   4.717   5.567
24112WAT     H172578   9.352   4.812   5.565
24112WAT     H272579   9.463   4.707   5.509
24113WAT      O72580   4.695   8.558   3.020
24113WAT     H172581   4.778   8.553   2.964
24113WAT     H272582   4.719   8.584   3.114
24114WAT      O72583   4.253   4.870   8.004
24114WAT     H172584   4.249   4.969   8.017
24114WAT     H272585   4.164   4.836   7.974
24115WAT      O72586   3.269   7.888   2.245
24115WAT     H172587   3.354   7.905   2.194
24115WAT     H272588   3.280   7.806   2.301
24116WAT      O72589   3.444   4.490   9.086
24116WAT     H172590   3.401   4.402   9.108
24116WAT     H272591   3.401   4.563   9.139
24117WAT      O72592   5.055   0.265   5.753
24117WAT     H172593   5.121   0.191   5.757
24117WAT     H272594   4.992   0.259   5.831
24118WAT      O72595   1.777   3.740   5.229
24118WAT     H172596   1.877   3.745   5.230
24118WAT     H272597   1.748   3.645   5.218
24119WAT      O72598   2.988   7.675   4.521
24119WAT     H172599   2.943   7.763   4.510
24119WAT     H272600   3.060   7.665   4.452
24120WAT      O72601   2.035   7.664   1.417
24120WAT     H172602   1.942   7.625   1.416
24120WAT     H272603   2.070   7.666   1.323
24121WAT      O72604   2.797   4.515   6.370
24121WAT     H172605   2.845   4.566   6.299
24121WAT     H272606   2.710   4.561   6.391
24122WAT      O72607   3.713   5.309   4.747
24122WAT     H172608   3.804   5.336   4.718
24122WAT     H272609   3.654   5.300   4.666
24123WAT      O72610   4.243   1.462   3.869
24123WAT     H172611   4.269   1.543   3.922
24123WAT     H272612   4.318   1.396   3.869
24124WAT      O72613   0.665   8.924   4.962
24124WAT     H172614   0.655   9.022   4.947
24124WAT     H272615   0.590   8.892   5.021
24125WAT      O72616   1.878   4.803   2.336
24125WAT     H172617   1.945   4.876   2.349
24125WAT     H272618   1.916   4.732   2.277
24126WAT      O72619   0.026   0.850   8.401
24126WAT     H172620  -0.045   0.920   8.396
24126WAT     H272621   0.100   0.881   8.461
24127WAT      O72622   2.462   5.574   4.435
24127WAT     H172623   2.372   5.609   4.461
24127WAT     H272624   2.452   5.484   4.393
24128WAT      O72625   5.401   9.065   1.764
24128WAT     H172626   5.501   9.063   1.756
24128WAT     H272627   5.363   8.978   1.733
24129WAT      O72628   8.357   8.755   3.286
24129WAT     H172629   8.312   8.840   3.259
24129WAT     H272630   8.385   8.704   3.205
24130WAT      O72631   0.121   6.758   0.186
24130WAT     H172632   0.174   6.727   0.108
24130WAT     H272633   0.170   6.738   0.271
24131WAT      O72634   7.258   0.651   9.699
24131WAT     H172635   7.330   0.683   9.760
24131WAT     H272636   7.183   0.612   9.752
24132WAT      O72637   6.422   8.726   0.379
24132WAT     H172638   6.437   8.749   0.283
24132WAT     H272639   6.349   8.658   0.386
24133WAT      O72640   1.631   8.986   1.966
24133WAT     H172641   1.581   8.906   1.999
24133WAT     H272642   1.583   9.069   1.992
24134WAT      O72643   7.629   9.663   9.768
24134WAT     H172644   7.710   9.627   9.722
24134WAT     H272645   7.600   9.600   9.840
24135WAT      O72646   0.667   2.553   1.471
24135WAT     H172647   0.647   2.515   1.561
24135WAT     H272648   0.753   2.605   1.476
24136WAT      O72649   0.951   6.000   2.644
24136WAT     H172650   1.040   5.986   2.600
24136WAT     H272651   0.899   5.914   2.642
24137WAT      O72652   7.962   7.977   6.668
24137WAT     H172653   8.043   7.961   6.612
24137WAT     H272654   7.904   8.046   6.623
24138WAT      O72655   7.067   6.707   3.382
24138WAT     H172656   7.051   6.695   3.284
24138WAT     H272657   7.149   6.764   3.395
24139WAT      O72658   1.661   4.082   6.370
24139WAT     H172659   1.641   4.109   6.464
24139WAT     H272660   1.601   4.133   6.307
24140WAT      O72661   6.017   6.471   1.338
24140WAT     H172662   5.974   6.492   1.426
24140WAT     H272663   6.114   6.450   1.353
24141WAT      O72664   9.884   6.263   3.415
24141WAT     H172665   9.845   6.194   3.354
24141WAT     H272666   9.964   6.226   3.461
24142WAT      O72667   1.650   4.621   5.566
24142WAT     H172668   1.662   4.719   5.546
24142WAT     H272669   1.559   4.593   5.538
24143WAT      O72670   8.670   4.711   4.943
24143WAT     H172671   8.612   4.748   5.015
24143WAT     H272672   8.663   4.768   4.861
24144WAT      O72673   9.474   7.708   4.955
24144WAT     H172674   9.410   7.632   4.971
24144WAT     H272675   9.492   7.715   4.856
24145WAT      O72676   5.603   7.921   3.102
24145WAT     H172677   5.664   7.860   3.052
24145WAT     H272678   5.509   7.888   3.093
24146WAT      O72679   3.318   1.529   4.163
24146WAT     H172680   3.354   1.501   4.074
24146WAT     H272681   3.389   1.515   4.233
24147WAT      O72682   2.873   7.120   0.415
24147WAT     H172683   2.794   7.073   0.375
24147WAT     H272684   2.877   7.101   0.513
24148WAT      O72685   7.664   8.928   2.315
24148WAT     H172686   7.727   8.898   2.387
24148WAT     H272687   7.698   9.012   2.274
24149WAT      O72688   1.837   1.011   1.375
24149WAT     H172689   1.803   1.080   1.311
24149WAT     H272690   1.783   1.012   1.458
24150WAT      O72691   2.640   1.724   1.459
24150WAT     H172692   2.631   1.658   1.534
24150WAT     H272693   2.732   1.718   1.421
24151WAT      O72694   1.657   8.154   6.138
24151WAT     H172695   1.732   8.088   6.141
24151WAT     H272696   1.678   8.230   6.200
24152WAT      O72697   8.687   3.255   4.434
24152WAT     H172698   8.618   3.191   4.466
24152WAT     H272699   8.681   3.340   4.486
24153WAT      O72700   1.627   4.205   9.478
24153WAT     H172701   1.611   4.271   9.405
24153WAT     H272702   1.540   4.183   9.522
24154WAT      O72703   5.664   8.317   5.954
24154WAT     H172704   5.631   8.386   6.018
24154WAT     H272705   5.676   8.230   6.001
24155WAT      O72706   7.608   6.886   0.289
24155WAT     H172707   7.563   6.975   0.279
24155WAT     H272708   7.694   6.886   0.237
24156WAT      O72709   6.673   8.509   9.534
24156WAT     H172710   6.683   8.426   9.480
24156WAT     H272711   6.661   8.485   9.630
24157WAT      O72712   7.045   8.459   6.365
24157WAT     H172713   7.139   8.489   6.346
24157WAT     H272714   7.002   8.523   6.428
24158WAT      O72715   8.340   6.477   3.558
24158WAT     H172716   8.333   6.548   3.628
24158WAT     H272717   8.251   6.434   3.545
24159WAT      O72718   3.521   2.040   3.888
24159WAT     H172719   3.511   2.139   3.894
24159WAT     H272720   3.434   1.996   3.913
24160WAT      O72721   7.187   9.732   6.679
24160WAT     H172722   7.205   9.670   6.755
24160WAT     H272723   7.264   9.795   6.669
24161WAT      O72724   0.608   3.383   5.821
24161WAT     H172725   0.671   3.397   5.897
24161WAT     H272726   0.659   3.368   5.736
24162WAT      O72727   1.731   4.564   3.673
24162WAT     H172728   1.718   4.603   3.764
24162WAT     H272729   1.737   4.638   3.606
24163WAT      O72730   5.067   2.803   5.395
24163WAT     H172731   4.971   2.787   5.417
24163WAT     H272732   5.101   2.730   5.336
24164WAT      O72733   6.862   6.953   2.752
24164WAT     H172734   6.925   6.891   2.706
24164WAT     H272735   6.901   6.979   2.841
24165WAT      O72736   1.527   2.212   9.607
24165WAT     H172737   1.530   2.113   9.599
24165WAT     H272738   1.586   2.253   9.538
24166WAT      O72739   5.574   2.583   2.526
24166WAT     H172740   5.492   2.527   2.512
24166WAT     H272741   5.616   2.603   2.438
24167WAT      O72742   4.287   1.237   8.701
24167WAT     H172743   4.286   1.181   8.618
24167WAT     H272744   4.255   1.183   8.778
24168WAT      O72745   2.002   2.645   2.392
24168WAT     H172746   2.052   2.726   2.359
24168WAT     H272747   2.068   2.576   2.421
24169WAT      O72748   1.333   7.866   6.570
24169WAT     H172749   1.302   7.959   6.593
24169WAT     H272750   1.265   7.800   6.601
24170WAT      O72751   3.293   7.737   5.577
24170WAT     H172752   3.240   7.753   5.493
24170WAT     H272753   3.234   7.750   5.656
24171WAT      O72754   6.807   4.699   3.867
24171WAT     H172755   6.732   4.726   3.927
24171WAT     H272756   6.887   4.675   3.923
24172WAT      O72757   2.374   0.893   6.180
24172WAT     H172758   2.344   0.925   6.090
24172WAT     H272759   2.302   0.838   6.222
24173WAT      O72760   2.019   3.461   8.492
24173WAT     H172761   1.964   3.379   8.479
24173WAT     H272762   1.988   3.509   8.574
24174WAT      O72763   7.377   8.309   6.543
24174WAT     H172764   7.454   8.251   6.517
24174WAT     H272765   7.349   8.289   6.637
24175WAT      O72766   5.349   3.231   2.493
24175WAT     H172767   5.309   3.185   2.572
24175WAT     H272768   5.364   3.327   2.515
24176WAT      O72769   6.813   5.703   3.379
24176WAT     H172770   6.756   5.751   3.445
24176WAT     H272771   6.760   5.685   3.296
24177WAT      O72772   6.731   3.857   4.312
24177WAT     H172773   6.736   3.893   4.219
24177WAT     H272774   6.780   3.769   4.317
24178WAT      O72775   5.881   8.985   8.797
24178WAT     H172776   5.849   8.925   8.724
24178WAT     H272777   5.918   9.069   8.758
24179WAT      O72778   1.253   1.918   1.720
24179WAT     H172779   1.326   1.986   1.716
24179WAT     H272780   1.166   1.964   1.737
24180WAT      O72781   6.304   0.750   5.565
24180WAT     H172782   6.210   0.731   5.538
24180WAT     H272783   6.309   0.759   5.664
24181WAT      O72784   7.422   1.348   5.706
24181WAT     H172785   7.467   1.391   5.785
24181WAT     H272786   7.469   1.262   5.684
24182WAT      O72787   7.781   9.088   4.617
24182WAT     H172788   7.814   9.004   4.660
24182WAT     H272789   7.761   9.156   4.688
24183WAT      O72790   9.737   8.069   0.268
24183WAT     H172791   9.777   7.999   0.209
24183WAT     H272792   9.736   8.157   0.220
24184WAT      O72793   5.307   1.661   6.696
24184WAT     H172794   5.220   1.617   6.715
24184WAT     H272795   5.294   1.733   6.627
24185WAT      O72796   0.309   4.302   1.648
24185WAT     H172797   0.243   4.375   1.665
24185WAT     H272798   0.302   4.273   1.552
24186WAT      O72799   7.306   9.479   1.219
24186WAT     H172800   7.356   9.441   1.141
24186WAT     H272801   7.295   9.409   1.289
24187WAT      O72802   4.989   7.819   5.592
24187WAT     H172803   4.914   7.814   5.526
24187WAT     H272804   5.026   7.912   5.595
24188WAT      O72805   1.497   6.737   1.863
24188WAT     H172806   1.592   6.737   1.895
24188WAT     H272807   1.493   6.772   1.770
24189WAT      O72808   2.004   7.245   1.428
24189WAT     H172809   2.063   7.323   1.448
24189WAT     H272810   1.954   7.262   1.343
24190WAT      O72811   3.704   4.822   7.616
24190WAT     H172812   3.711   4.816   7.716
24190WAT     H272813   3.758   4.749   7.574
24191WAT      O72814   6.004   6.711   9.597
24191WAT     H172815   5.957   6.642   9.653
24191WAT     H272816   5.941   6.787   9.579
24192WAT      O72817   0.671   8.411   1.118
24192WAT     H172818   0.672   8.505   1.085
24192WAT     H272819   0.577   8.376   1.118
24193WAT      O72820   5.009   9.827   5.586
24193WAT     H172821   5.083   9.822   5.519
24193WAT     H272822   4.989   9.923   5.606
24194WAT      O72823   3.394   8.099   5.813
24194WAT     H172824   3.397   7.999   5.819
24194WAT     H272825   3.442   8.129   5.731
24195WAT      O72826   6.231   3.855   3.047
24195WAT     H172827   6.173   3.914   2.990
24195WAT     H272828   6.304   3.910   3.088
24196WAT      O72829   7.771   8.098   3.867
24196WAT     H172830   7.798   8.181   3.818
24196WAT     H272831   7.767   8.021   3.803
24197WAT      O72832   8.611   5.241   6.340
24197WAT     H172833   8.567   5.297   6.411
24197WAT     H272834   8.674   5.298   6.287
24198WAT      O72835   7.122   2.466   8.130
24198WAT     H172836   7.165   2.555   8.145
24198WAT     H272837   7.181   2.394   8.167
24199WAT      O72838   1.694   3.788   9.477
24199WAT     H172839   1.752   3.800   9.557
24199WAT     H272840   1.674   3.877   9.437
24200WAT      O72841   2.880   2.066   4.756
24200WAT     H172842   2.925   1.979   4.735
24200WAT     H272843   2.813   2.086   4.685
24201WAT      O72844   5.753   4.979   8.961
24201WAT     H172845   5.680   4.918   8.992
24201WAT     H272846   5.841   4.932   8.969
24202WAT      O72847   5.294   5.744   3.753
24202WAT     H172848   5.259   5.756   3.660
24202WAT     H272849   5.217   5.741   3.817
24203WAT      O72850   9.810   4.031   9.023
24203WAT     H172851   9.728   4.015   9.078
24203WAT     H272852   9.796   4.110   8.964
24204WAT      O72853   0.319   0.439   0.059
24204WAT     H172854   0.398   0.391   0.097
24204WAT     H272855   0.312   0.418  -0.039
24205WAT      O72856   0.913   7.718   3.159
24205WAT     H172857   0.820   7.741   3.130
24205WAT     H272858   0.910   7.646   3.228
24206WAT      O72859   3.533   8.622   0.455
24206WAT     H172860   3.488   8.537   0.428
24206WAT     H272861   3.491   8.657   0.539
24207WAT      O72862   3.951   7.514   6.145
24207WAT     H172863   3.887   7.491   6.071
24207WAT     H272864   3.900   7.535   6.228
24208WAT      O72865   6.665   4.689   0.582
24208WAT     H172866   6.596   4.740   0.633
24208WAT     H272867   6.756   4.721   0.609
24209WAT      O72868   8.861   6.042   4.099
24209WAT     H172869   8.831   6.084   4.185
24209WAT     H272870   8.955   6.009   4.109
24210WAT      O72871   2.232   1.923   8.119
24210WAT     H172872   2.149   1.968   8.153
24210WAT     H272873   2.215   1.889   8.027
24211WAT      O72874   8.629   3.507   7.101
24211WAT     H172875   8.697   3.443   7.066
24211WAT     H272876   8.577   3.546   7.025
24212WAT      O72877   5.327   8.507   2.626
24212WAT     H172878   5.426   8.517   2.613
24212WAT     H272879   5.279   8.574   2.570
24213WAT      O72880   1.674   3.060   8.502
24213WAT     H172881   1.715   2.994   8.439
24213WAT     H272882   1.739   3.133   8.522
24214WAT      O72883   8.215   7.209   4.410
24214WAT     H172884   8.178   7.139   4.349
24214WAT     H272885   8.189   7.299   4.377
24215WAT      O72886   5.136   4.186   6.058
24215WAT     H172887   5.057   4.223   6.009
24215WAT     H272888   5.124   4.202   6.156
24216WAT      O72889   5.323   7.790   1.556
24216WAT     H172890   5.364   7.755   1.472
24216WAT     H272891   5.334   7.890   1.559
24217WAT      O72892   8.681   2.423   3.889
24217WAT     H172893   8.672   2.338   3.940
24217WAT     H272894   8.734   2.406   3.806
24218WAT      O72895   6.419   2.476   8.640
24218WAT     H172896   6.399   2.487   8.543
24218WAT     H272897   6.335   2.490   8.693
24219WAT      O72898   8.906   0.788   9.407
24219WAT     H172899   8.892   0.719   9.477
24219WAT     H272900   8.981   0.848   9.433
24220WAT      O72901   5.508   7.446   6.694
24220WAT     H172902   5.500   7.351   6.664
24220WAT     H272903   5.420   7.493   6.680
24221WAT      O72904   9.876   2.477   7.888
24221WAT     H172905   9.907   2.451   7.797
24221WAT     H272906   9.912   2.412   7.955
24222WAT      O72907   3.824   6.884   3.979
24222WAT     H172908   3.758   6.947   3.936
24222WAT     H272909   3.846   6.811   3.914
24223WAT      O72910   4.206   0.562   0.932
24223WAT     H172911   4.130   0.498   0.923
24223WAT     H272912   4.237   0.564   1.027
24224WAT      O72913   7.836   4.365   2.999
24224WAT     H172914   7.893   4.446   2.988
24224WAT     H272915   7.802   4.361   3.093
24225WAT      O72916   3.254   6.557   7.509
24225WAT     H172917   3.188   6.561   7.434
24225WAT     H272918   3.345   6.581   7.476
24226WAT      O72919   9.251   9.833   1.513
24226WAT     H172920   9.334   9.880   1.484
24226WAT     H272921   9.188   9.899   1.554
24227WAT      O72922   4.731   5.125   5.594
24227WAT     H172923   4.759   5.085   5.681
24227WAT     H272924   4.808   5.173   5.553
24228WAT      O72925   0.045   4.487   0.712
24228WAT     H172926   0.043   4.452   0.619
24228WAT     H272927   0.051   4.410   0.776
24229WAT      O72928   8.441   7.264   8.621
24229WAT     H172929   8.394   7.308   8.698
24229WAT     H272930   8.438   7.325   8.541
24230WAT      O72931   6.413   0.625   1.792
24230WAT     H172932   6.501   0.578   1.805
24230WAT     H272933   6.394   0.683   1.871
24231WAT      O72934   3.178   5.633   7.297
24231WAT     H172935   3.252   5.667   7.240
24231WAT     H272936   3.167   5.691   7.377
24232WAT      O72937   7.589   7.299   6.998
24232WAT     H172938   7.654   7.367   6.964
24232WAT     H272939   7.634   7.241   7.066
24233WAT      O72940   8.920   7.201   3.806
24233WAT     H172941   8.846   7.227   3.868
24233WAT     H272942   8.908   7.248   3.718
24234WAT      O72943   2.943   9.459   9.781
24234WAT     H172944   2.981   9.396   9.713
24234WAT     H272945   2.973   9.432   9.872
24235WAT      O72946   2.785   9.283   5.270
24235WAT     H172947   2.772   9.281   5.171
24235WAT     H272948   2.777   9.378   5.302
24236WAT      O72949   1.849   4.774   1.641
24236WAT     H172950   1.936   4.763   1.592
24236WAT     H272951   1.774   4.746   1.582
24237WAT      O72952   9.881   4.156   2.641
24237WAT     H172953   9.805   4.180   2.580
24237WAT     H272954   9.955   4.222   2.631
24238WAT      O72955   0.851   6.623   2.635
24238WAT     H172956   0.843   6.598   2.731
24238WAT     H272957   0.947   6.616   2.607
24239WAT      O72958   4.407   3.821   7.885
24239WAT     H172959   4.420   3.920   7.883
24239WAT     H272960   4.420   3.784   7.793
24240WAT      O72961   6.249   5.863   9.572
24240WAT     H172962   6.179   5.901   9.632
24240WAT     H272963   6.226   5.769   9.548
24241WAT      O72964   8.569   9.618   9.813
24241WAT     H172965   8.637   9.548   9.792
24241WAT     H272966   8.616   9.703   9.838
24242WAT      O72967   7.118   8.518   4.834
24242WAT     H172968   7.119   8.447   4.764
24242WAT     H272969   7.192   8.503   4.899
24243WAT      O72970   3.025   6.913   3.746
24243WAT     H172971   3.123   6.916   3.760
24243WAT     H272972   2.989   6.824   3.773
24244WAT      O72973   5.730   1.172   4.942
24244WAT     H172974   5.674   1.197   5.021
24244WAT     H272975   5.791   1.248   4.919
24245WAT      O72976   9.344   2.351   0.787
24245WAT     H172977   9.315   2.302   0.705
24245WAT     H272978   9.267   2.401   0.825
24246WAT      O72979   4.066   1.229   4.349
24246WAT     H172980   4.066   1.174   4.432
24246WAT     H272981   4.160   1.248   4.322
24247WAT      O72982   0.004   8.986   0.056
24247WAT     H172983   0.037   9.051   0.125
24247WAT     H272984   0.082   8.940   0.013
24248WAT      O72985   3.790   2.841   4.389
24248WAT     H172986   3.793   2.936   4.356
24248WAT     H272987   3.746   2.784   4.319
24249WAT      O72988   0.783   8.939   1.883
24249WAT     H172989   0.715   8.870   1.859
24249WAT     H272990   0.870   8.916   1.841
24250WAT      O72991   7.061   5.439   9.489
24250WAT     H172992   7.065   5.537   9.471
24250WAT     H272993   7.141   5.395   9.451
24251WAT      O72994   3.265   9.179   5.650
24251WAT     H172995   3.295   9.245   5.581
24251WAT     H272996   3.256   9.089   5.607
24252WAT      O72997   9.184   1.219   2.779
24252WAT     H172998   9.269   1.261   2.748
24252WAT     H272999   9.146   1.162   2.706
24253WAT      O73000   6.819   3.608   5.743
24253WAT     H173001   6.806   3.516   5.781
24253WAT     H273002   6.818   3.675   5.817
24254WAT      O73003   6.010   1.019   1.141
24254WAT     H173004   6.065   0.980   1.068
24254WAT     H273005   6.059   1.011   1.228
24255WAT      O73006   6.324   6.480   1.201
24255WAT     H173007   6.319   6.381   1.194
24255WAT     H273008   6.299   6.522   1.113
24256WAT      O73009   8.780   0.562   2.964
24256WAT     H173010   8.743   0.492   2.903
24256WAT     H273011   8.842   0.622   2.913
24257WAT      O73012   7.816   1.900   3.961
24257WAT     H173013   7.726   1.871   3.993
24257WAT     H273014   7.810   1.933   3.867
24258WAT      O73015   4.825   8.562   1.940
24258WAT     H173016   4.865   8.534   2.027
24258WAT     H273017   4.887   8.536   1.865
24259WAT      O73018   2.901   2.482   4.150
24259WAT     H173019   2.807   2.515   4.148
24259WAT     H273020   2.956   2.541   4.209
24260WAT      O73021   9.590   8.343   2.959
24260WAT     H173022   9.522   8.281   2.919
24260WAT     H273023   9.621   8.306   3.047
24261WAT      O73024   9.777   1.461   2.818
24261WAT     H173025   9.851   1.490   2.879
24261WAT     H273026   9.745   1.371   2.845
24262WAT      O73027   6.644   7.430   2.787
24262WAT     H173028   6.596   7.460   2.870
24262WAT     H273029   6.580   7.381   2.727
24263WAT      O73030   6.497   8.365   4.557
24263WAT     H173031   6.465   8.291   4.498
24263WAT     H273032   6.597   8.367   4.557
24264WAT      O73033   4.507   0.183   5.048
24264WAT     H173034   4.462   0.198   4.960
24264WAT     H273035   4.459   0.236   5.118
24265WAT      O73036   5.531   2.275   9.098
24265WAT     H173037   5.450   2.319   9.137
24265WAT     H273038   5.594   2.252   9.172
24266WAT      O73039   1.288   3.143   7.859
24266WAT     H173040   1.309   3.073   7.927
24266WAT     H273041   1.272   3.231   7.904
24267WAT      O73042   8.517   8.633   9.380
24267WAT     H173043   8.580   8.654   9.455
24267WAT     H273044   8.431   8.598   9.418
24268WAT      O73045   7.872   8.100   8.418
24268WAT     H173046   7.930   8.056   8.486
24268WAT     H273047   7.823   8.177   8.460
24269WAT      O73048   4.473   7.442   7.376
24269WAT     H173049   4.438   7.483   7.292
24269WAT     H273050   4.399   7.391   7.421
24270WAT      O73051   3.669   9.346   3.658
24270WAT     H173052   3.633   9.436   3.631
24270WAT     H273053   3.749   9.325   3.602
24271WAT      O73054   7.802   5.389   6.027
24271WAT     H173055   7.753   5.317   6.075
24271WAT     H273056   7.739   5.464   6.007
24272WAT      O73057   1.038   2.879   0.896
24272WAT     H173058   1.024   2.837   0.806
24272WAT     H273059   0.950   2.910   0.932
24273WAT      O73060   9.777   6.207   0.925
24273WAT     H173061   9.806   6.286   0.871
24273WAT     H273062   9.836   6.199   1.006
24274WAT      O73063   5.102   7.430   9.361
24274WAT     H173064   5.202   7.428   9.357
24274WAT     H273065   5.068   7.513   9.317
24275WAT      O73066   0.601   1.810   8.096
24275WAT     H173067   0.639   1.884   8.040
24275WAT     H273068   0.560   1.849   8.179
24276WAT      O73069   7.367   3.016   9.542
24276WAT     H173070   7.310   3.009   9.460
24276WAT     H273071   7.319   2.973   9.619
24277WAT      O73072   3.492   7.265   2.798
24277WAT     H173073   3.527   7.282   2.706
24277WAT     H273074   3.561   7.292   2.865
24278WAT      O73075   0.189   8.231   3.586
24278WAT     H173076   0.116   8.222   3.654
24278WAT     H273077   0.260   8.292   3.622
24279WAT      O73078   3.702   3.306   5.242
24279WAT     H173079   3.701   3.391   5.293
24279WAT     H273080   3.697   3.229   5.306
24280WAT      O73081   2.231   2.806   4.330
24280WAT     H173082   2.262   2.901   4.333
24280WAT     H273083   2.131   2.803   4.335
24281WAT      O73084   2.394   6.849   9.470
24281WAT     H173085   2.481   6.826   9.428
24281WAT     H273086   2.327   6.777   9.451
24282WAT      O73087   4.559   1.423   5.790
24282WAT     H173088   4.476   1.376   5.762
24282WAT     H273089   4.595   1.381   5.873
24283WAT      O73090   6.899   6.323   7.326
24283WAT     H173091   6.822   6.267   7.356
24283WAT     H273092   6.930   6.292   7.236
24284WAT      O73093   5.243   5.844   0.740
24284WAT     H173094   5.310   5.876   0.808
24284WAT     H273095   5.262   5.749   0.717
24285WAT      O73096   4.052   5.829   0.502
24285WAT     H173097   3.995   5.804   0.580
24285WAT     H273098   4.039   5.926   0.481
24286WAT      O73099   5.043   5.503   4.149
24286WAT     H173100   5.062   5.524   4.053
24286WAT     H273101   5.003   5.411   4.155
24287WAT      O73102   5.505   8.996   1.102
24287WAT     H173103   5.599   8.968   1.078
24287WAT     H273104   5.502   9.025   1.197
24288WAT      O73105   1.221   5.921   5.262
24288WAT     H173106   1.259   5.853   5.198
24288WAT     H273107   1.122   5.920   5.257
24289WAT      O73108   9.783   5.830   7.354
24289WAT     H173109   9.752   5.924   7.369
24289WAT     H273110   9.880   5.830   7.331
24290WAT      O73111   6.397   1.590   8.605
24290WAT     H173112   6.403   1.662   8.674
24290WAT     H273113   6.381   1.631   8.515
24291WAT      O73114   8.464   1.120   4.413
24291WAT     H173115   8.482   1.025   4.388
24291WAT     H273116   8.544   1.176   4.390
24292WAT      O73117   6.019   3.421   3.080
24292WAT     H173118   5.944   3.465   3.030
24292WAT     H273119   6.080   3.492   3.116
24293WAT      O73120   6.937   8.771   1.284
24293WAT     H173121   6.960   8.856   1.238
24293WAT     H273122   6.840   8.750   1.272
24294WAT      O73123   2.618   7.260   3.218
24294WAT     H173124   2.626   7.349   3.173
24294WAT     H273125   2.539   7.211   3.181
24295WAT      O73126   0.281   8.543   8.153
24295WAT     H173127   0.309   8.542   8.249
24295WAT     H273128   0.191   8.587   8.144
24296WAT      O73129   7.660   1.632   2.109
24296WAT     H173130   7.611   1.558   2.062
24296WAT     H273131   7.625   1.641   2.202
24297WAT      O73132   1.492   1.682   5.849
24297WAT     H173133   1.467   1.776   5.873
24297WAT     H273134   1.454   1.660   5.759
24298WAT      O73135   3.660   4.489   6.531
24298WAT     H173136   3.562   4.479   6.521
24298WAT     H273137   3.682   4.584   6.553
24299WAT      O73138   7.002   3.132   8.059
24299WAT     H173139   7.040   3.166   8.145
24299WAT     H273140   6.916   3.180   8.039
24300WAT      O73141   0.154   3.912   6.452
24300WAT     H173142   0.237   3.963   6.474
24300WAT     H273143   0.128   3.855   6.530
24301WAT      O73144   9.292   1.299   1.991
24301WAT     H173145   9.274   1.211   1.947
24301WAT     H273146   9.207   1.350   1.998
24302WAT      O73147   8.194   0.674   7.499
24302WAT     H173148   8.198   0.753   7.438
24302WAT     H273149   8.284   0.631   7.504
24303WAT      O73150   6.558   7.832   5.156
24303WAT     H173151   6.564   7.829   5.057
24303WAT     H273152   6.609   7.912   5.190
24304WAT      O73153   8.379   3.630   8.059
24304WAT     H173154   8.307   3.563   8.041
24304WAT     H273155   8.367   3.709   7.999
24305WAT      O73156   8.002   3.327   6.384
24305WAT     H173157   8.000   3.393   6.459
24305WAT     H273158   8.054   3.365   6.308
24306WAT      O73159   1.595   8.499   8.549
24306WAT     H173160   1.537   8.420   8.569
24306WAT     H273161   1.554   8.582   8.587
24307WAT      O73162   1.857   5.501   7.361
24307WAT     H173163   1.856   5.420   7.303
24307WAT     H273164   1.917   5.485   7.440
24308WAT      O73165   9.168   7.476   8.046
24308WAT     H173166   9.152   7.568   8.010
24308WAT     H273167   9.266   7.457   8.047
24309WAT      O73168   1.478   0.632   1.652
24309WAT     H173169   1.440   0.558   1.596
24309WAT     H273170   1.519   0.593   1.734
24310WAT      O73171   0.556   4.675   6.463
24310WAT     H173172   0.622   4.738   6.422
24310WAT     H273173   0.472   4.675   6.408
24311WAT      O73174   4.524   2.694   6.237
24311WAT     H173175   4.619   2.717   6.217
24311WAT     H273176   4.494   2.619   6.178
24312WAT      O73177   4.874   5.170   2.074
24312WAT     H173178   4.802   5.184   2.141
24312WAT     H273179   4.878   5.248   2.012
24313WAT      O73180   5.377   5.801   9.864
24313WAT     H173181   5.430   5.717   9.855
24313WAT     H273182   5.362   5.841   9.773
24314WAT      O73183   6.701   4.898   4.645
24314WAT     H173184   6.609   4.912   4.682
24314WAT     H273185   6.763   4.966   4.684
24315WAT      O73186   0.344   3.484   7.518
24315WAT     H173187   0.282   3.407   7.504
24315WAT     H273188   0.421   3.476   7.454
24316WAT      O73189   2.917   9.228   8.513
24316WAT     H173190   2.869   9.308   8.548
24316WAT     H273191   2.867   9.145   8.538
24317WAT      O73192   6.921   9.319   6.730
24317WAT     H173193   6.964   9.340   6.642
24317WAT     H273194   6.928   9.398   6.790
24318WAT      O73195   2.772   8.977   6.150
24318WAT     H173196   2.818   8.925   6.078
24318WAT     H273197   2.774   9.074   6.127
24319WAT      O73198   7.741   7.671   8.299
24319WAT     H173199   7.664   7.617   8.334
24319WAT     H273200   7.751   7.754   8.353
24320WAT      O73201   4.669   2.551   4.719
24320WAT     H173202   4.590   2.544   4.779
24320WAT     H273203   4.751   2.519   4.766
24321WAT      O73204   6.938   6.862   3.593
24321WAT     H173205   6.859   6.877   3.535
24321WAT     H273206   7.010   6.816   3.541
24322WAT      O73207   2.921   9.083   1.170
24322WAT     H173208   2.927   8.986   1.196
24322WAT     H273209   3.012   9.124   1.179
24323WAT      O73210   7.237   0.416   8.793
24323WAT     H173211   7.281   0.473   8.724
24323WAT     H273212   7.306   0.377   8.854
24324WAT      O73213   8.558   8.384   7.028
24324WAT     H173214   8.560   8.394   6.929
24324WAT     H273215   8.562   8.475   7.070
24325WAT      O73216   8.251   4.303   8.990
24325WAT     H173217   8.317   4.316   8.916
24325WAT     H273218   8.266   4.374   9.060
24326WAT      O73219   8.280   8.040   5.211
24326WAT     H173220   8.216   8.093   5.265
24326WAT     H273221   8.368   8.034   5.258
24327WAT      O73222   1.902   5.597   7.120
24327WAT     H173223   1.893   5.582   7.219
24327WAT     H273224   1.825   5.556   7.072
24328WAT      O73225   3.343   5.065   6.184
24328WAT     H173226   3.359   5.162   6.164
24328WAT     H273227   3.322   5.054   6.281
24329WAT      O73228   2.504   7.367   4.511
24329WAT     H173229   2.567   7.444   4.499
24329WAT     H273230   2.435   7.391   4.580
24330WAT      O73231   2.223   2.620   1.990
24330WAT     H173232   2.153   2.555   2.018
24330WAT     H273233   2.251   2.601   1.895
24331WAT      O73234   2.303   8.026   6.063
24331WAT     H173235   2.213   8.008   6.103
24331WAT     H273236   2.310   8.123   6.040
24332WAT      O73237   9.742   6.950   4.486
24332WAT     H173238   9.720   6.958   4.583
24332WAT     H273239   9.780   7.036   4.453
24333WAT      O73240   8.246   2.532   1.243
24333WAT     H173241   8.205   2.491   1.324
24333WAT     H273242   8.175   2.545   1.173
24334WAT      O73243   5.413   3.650   3.077
24334WAT     H173244   5.328   3.641   3.025
24334WAT     H273245   5.476   3.577   3.050
24335WAT      O73246   7.421   6.000   2.480
24335WAT     H173247   7.420   6.004   2.580
24335WAT     H273248   7.514   6.013   2.447
24336WAT      O73249   3.827   4.631   5.539
24336WAT     H173250   3.749   4.584   5.581
24336WAT     H273251   3.911   4.584   5.564
24337WAT      O73252   4.487   6.861   3.958
24337WAT     H173253   4.558   6.838   3.891
24337WAT     H273254   4.496   6.957   3.983
24338WAT      O73255   8.376   7.410   2.315
24338WAT     H173256   8.338   7.327   2.355
24338WAT     H273257   8.476   7.408   2.321
24339WAT      O73258   2.879   3.991   7.053
24339WAT     H173259   2.918   4.002   7.144
24339WAT     H273260   2.836   3.901   7.045
24340WAT      O73261   3.047   6.950   7.849
24340WAT     H173262   3.043   6.894   7.767
24340WAT     H273263   2.963   6.939   7.902
24341WAT      O73264   1.061   8.881   1.761
24341WAT     H173265   1.085   8.951   1.694
24341WAT     H273266   1.095   8.792   1.731
24342WAT      O73267   1.120   5.742   5.564
24342WAT     H173268   1.106   5.670   5.632
24342WAT     H273269   1.218   5.749   5.543
24343WAT      O73270   0.609   7.447   8.832
24343WAT     H173271   0.545   7.391   8.779
24343WAT     H273272   0.569   7.538   8.847
24344WAT      O73273   5.776   5.462   2.386
24344WAT     H173274   5.720   5.410   2.451
24344WAT     H273275   5.764   5.560   2.404
24345WAT      O73276   3.291   9.265   8.958
24345WAT     H173277   3.223   9.289   8.888
24345WAT     H273278   3.378   9.243   8.914
24346WAT      O73279   5.383   4.803   1.624
24346WAT     H173280   5.397   4.785   1.722
24346WAT     H273281   5.329   4.729   1.584
24347WAT      O73282   0.322   5.929   4.866
24347WAT     H173283   0.297   6.008   4.921
24347WAT     H273284   0.417   5.904   4.884
24348WAT      O73285   2.039   7.454   9.524
24348WAT     H173286   2.139   7.444   9.524
24348WAT     H273287   2.002   7.410   9.442
24349WAT      O73288   8.016   4.832   1.231
24349WAT     H173289   8.082   4.793   1.168
24349WAT     H273290   7.926   4.791   1.216
24350WAT      O73291   2.390   0.824   3.841
24350WAT     H173292   2.390   0.868   3.930
24350WAT     H273293   2.359   0.888   3.771
24351WAT      O73294   9.043   8.959   7.414
24351WAT     H173295   8.992   9.027   7.467
24351WAT     H273296   8.997   8.870   7.422
24352WAT      O73297   6.655   0.505   5.686
24352WAT     H173298   6.686   0.410   5.681
24352WAT     H273299   6.564   0.514   5.645
24353WAT      O73300   7.730   4.358   5.417
24353WAT     H173301   7.749   4.288   5.348
24353WAT     H273302   7.816   4.393   5.453
24354WAT      O73303   9.165   2.366   8.920
24354WAT     H173304   9.249   2.379   8.972
24354WAT     H273305   9.096   2.430   8.953
24355WAT      O73306   4.440   4.837   7.823
24355WAT     H173307   4.513   4.782   7.862
24355WAT     H273308   4.370   4.853   7.892
24356WAT      O73309   5.853   6.592   5.618
24356WAT     H173310   5.911   6.528   5.667
24356WAT     H273311   5.764   6.598   5.663
24357WAT      O73312   8.606   9.706   5.238
24357WAT     H173313   8.617   9.629   5.301
24357WAT     H273314   8.669   9.695   5.160
24358WAT      O73315   8.987   9.343   9.444
24358WAT     H173316   8.994   9.400   9.526
24358WAT     H273317   8.997   9.400   9.363
24359WAT      O73318   7.223   4.520   5.654
24359WAT     H173319   7.289   4.567   5.713
24359WAT     H273320   7.171   4.454   5.708
24360WAT      O73321   9.760   2.891   0.029
24360WAT     H173322   9.678   2.872   0.084
24360WAT     H273323   9.776   2.815  -0.034
24361WAT      O73324   3.954   1.886   7.585
24361WAT     H173325   3.993   1.946   7.515
24361WAT     H273326   4.024   1.821   7.615
24362WAT      O73327   3.110   9.344   4.444
24362WAT     H173328   3.189   9.376   4.393
24362WAT     H273329   3.095   9.403   4.523
24363WAT      O73330   0.775   4.957   1.609
24363WAT     H173331   0.838   4.899   1.661
24363WAT     H273332   0.823   4.994   1.530
24364WAT      O73333   5.347   7.552   7.166
24364WAT     H173334   5.341   7.484   7.239
24364WAT     H273335   5.442   7.578   7.151
24365WAT      O73336   0.915   4.717   2.176
24365WAT     H173337   0.940   4.764   2.260
24365WAT     H273338   0.857   4.638   2.197
24366WAT      O73339   0.685   9.169   1.785
24366WAT     H173340   0.598   9.163   1.736
24366WAT     H273341   0.703   9.083   1.832
24367WAT      O73342   6.127   6.704   0.684
24367WAT     H173343   6.029   6.707   0.663
24367WAT     H273344   6.161   6.611   0.669
24368WAT      O73345   5.427   3.283   3.529
24368WAT     H173346   5.480   3.219   3.474
24368WAT     H273347   5.487   3.326   3.597
24369WAT      O73348   1.847   8.502   2.680
24369WAT     H173349   1.836   8.450   2.764
24369WAT     H273350   1.802   8.453   2.605
24370WAT      O73351   7.838   0.218   3.008
24370WAT     H173352   7.758   0.209   3.068
24370WAT     H273353   7.850   0.315   2.984
24371WAT      O73354   0.062   4.274   8.477
24371WAT     H173355   0.017   4.326   8.550
24371WAT     H273356   0.157   4.255   8.502
24372WAT      O73357   3.390   0.593   6.506
24372WAT     H173358   3.396   0.584   6.605
24372WAT     H273359   3.446   0.522   6.463
24373WAT      O73360   0.708   5.174   1.090
24373WAT     H173361   0.616   5.137   1.079
24373WAT     H273362   0.706   5.251   1.153
24374WAT      O73363   2.333   1.628   1.455
24374WAT     H173364   2.414   1.681   1.428
24374WAT     H273365   2.331   1.620   1.555
24375WAT      O73366   7.561   8.821   1.512
24375WAT     H173367   7.551   8.914   1.548
24375WAT     H273368   7.521   8.756   1.577
24376WAT      O73369   4.574   5.722   7.627
24376WAT     H173370   4.643   5.664   7.670
24376WAT     H273371   4.494   5.728   7.687
24377WAT      O73372   3.002   5.750   5.603
24377WAT     H173373   3.085   5.730   5.655
24377WAT     H273374   3.013   5.718   5.509
24378WAT      O73375   5.629   0.331   0.660
24378WAT     H173376   5.614   0.232   0.667
24378WAT     H273377   5.648   0.369   0.750
24379WAT      O73378   3.760   8.715   2.242
24379WAT     H173379   3.837   8.754   2.292
24379WAT     H273380   3.794   8.672   2.158
24380WAT      O73381   5.605   8.321   9.064
24380WAT     H173382   5.511   8.288   9.072
24380WAT     H273383   5.605   8.421   9.053
24381WAT      O73384   7.146   4.202   4.004
24381WAT     H173385   7.083   4.277   4.021
24381WAT     H273386   7.123   4.125   4.064
24382WAT      O73387   6.405   1.420   4.756
24382WAT     H173388   6.497   1.460   4.760
24382WAT     H273389   6.337   1.491   4.772
24383WAT      O73390   2.337   8.838   5.555
24383WAT     H173391   2.289   8.814   5.639
24383WAT     H273392   2.271   8.851   5.481
24384WAT      O73393   8.019   1.935   7.544
24384WAT     H173394   7.972   1.886   7.471
24384WAT     H273395   8.107   1.968   7.511
24385WAT      O73396   2.439   2.777   0.712
24385WAT     H173397   2.367   2.801   0.647
24385WAT     H273398   2.527   2.808   0.676
24386WAT      O73399   9.768   5.761   4.332
24386WAT     H173400   9.781   5.858   4.312
24386WAT     H273401   9.750   5.750   4.430
24387WAT      O73402   7.306   2.627   9.078
24387WAT     H173403   7.349   2.546   9.118
24387WAT     H273404   7.366   2.706   9.091
24388WAT      O73405   3.271   6.221   4.594
24388WAT     H173406   3.367   6.240   4.612
24388WAT     H273407   3.252   6.124   4.609
24389WAT      O73408   4.318   3.362   1.209
24389WAT     H173409   4.318   3.339   1.111
24389WAT     H273410   4.301   3.460   1.220
24390WAT      O73411   7.565   7.054   0.744
24390WAT     H173412   7.570   7.099   0.833
24390WAT     H273413   7.472   7.063   0.708
24391WAT      O73414   3.651   7.621   5.743
24391WAT     H173415   3.562   7.587   5.773
24391WAT     H273416   3.674   7.704   5.793
24392WAT      O73417   8.833   2.771   2.830
24392WAT     H173418   8.858   2.865   2.809
24392WAT     H273419   8.736   2.757   2.812
24393WAT      O73420   2.826   6.080   8.460
24393WAT     H173421   2.728   6.088   8.478
24393WAT     H273422   2.850   5.983   8.451
24394WAT      O73423   3.993   4.390   8.974
24394WAT     H173424   3.969   4.466   9.033
24394WAT     H273425   3.962   4.409   8.880
24395WAT      O73426   5.393   6.044   4.120
24395WAT     H173427   5.409   6.136   4.083
24395WAT     H273428   5.321   6.048   4.188
24396WAT      O73429   4.549   8.861   0.684
24396WAT     H173430   4.538   8.957   0.706
24396WAT     H273431   4.459   8.818   0.675
24397WAT      O73432   0.208   9.721   2.901
24397WAT     H173433   0.182   9.635   2.858
24397WAT     H273434   0.293   9.754   2.862
24398WAT      O73435   1.630   4.093   7.898
24398WAT     H173436   1.671   4.098   7.807
24398WAT     H273437   1.701   4.071   7.965
24399WAT      O73438   3.326   6.911   3.376
24399WAT     H173439   3.242   6.965   3.381
24399WAT     H273440   3.366   6.917   3.285
24400WAT      O73441   3.606   6.653   1.383
24400WAT     H173442   3.699   6.685   1.365
24400WAT     H273443   3.588   6.571   1.329
24401WAT      O73444   7.827   8.133   3.427
24401WAT     H173445   7.827   8.224   3.385
24401WAT     H273446   7.918   8.111   3.461
24402WAT      O73447   5.094   4.347   0.698
24402WAT     H173448   5.111   4.445   0.704
24402WAT     H273449   5.176   4.301   0.663
24403WAT      O73450   3.783   4.230   6.942
24403WAT     H173451   3.752   4.193   7.030
24403WAT     H273452   3.764   4.164   6.869
24404WAT      O73453   2.634   3.492   5.127
24404WAT     H173454   2.661   3.529   5.216
24404WAT     H273455   2.600   3.399   5.139
24405WAT      O73456   7.592   0.940   9.272
24405WAT     H173457   7.549   0.913   9.358
24405WAT     H273458   7.529   0.995   9.218
24406WAT      O73459   3.563   1.700   2.273
24406WAT     H173460   3.481   1.707   2.215
24406WAT     H273461   3.618   1.783   2.262
24407WAT      O73462   4.664   3.885   3.191
24407WAT     H173463   4.683   3.975   3.231
24407WAT     H273464   4.662   3.817   3.264
24408WAT      O73465   1.243   3.299   3.955
24408WAT     H173466   1.197   3.275   3.869
24408WAT     H273467   1.229   3.227   4.022
24409WAT      O73468   6.859   7.111   1.923
24409WAT     H173469   6.948   7.072   1.900
24409WAT     H273470   6.822   7.158   1.843
24410WAT      O73471   4.078   8.781   3.547
24410WAT     H173472   4.080   8.844   3.470
24410WAT     H273473   4.020   8.702   3.526
24411WAT      O73474   9.027   9.279   7.923
24411WAT     H173475   9.024   9.208   7.853
24411WAT     H273476   9.085   9.250   7.999
24412WAT      O73477   0.333   9.795  -0.000
24412WAT     H173478   0.370   9.755   0.083
24412WAT     H273479   0.396   9.864  -0.036
24413WAT      O73480   1.505   5.090   7.129
24413WAT     H173481   1.554   5.021   7.181
24413WAT     H273482   1.482   5.055   7.038
24414WAT      O73483   6.538   6.341   4.198
24414WAT     H173484   6.546   6.440   4.195
24414WAT     H273485   6.471   6.315   4.267
24415WAT      O73486   3.073   9.754   1.603
24415WAT     H173487   3.108   9.697   1.677
24415WAT     H273488   3.002   9.815   1.638
24416WAT      O73489   3.609   2.254   4.769
24416WAT     H173490   3.639   2.305   4.688
24416WAT     H273491   3.522   2.291   4.802
24417WAT      O73492   8.677   2.637   6.630
24417WAT     H173493   8.703   2.725   6.588
24417WAT     H273494   8.592   2.604   6.588
24418WAT      O73495   5.136   6.498   3.572
24418WAT     H173496   5.044   6.498   3.533
24418WAT     H273497   5.149   6.579   3.629
24419WAT      O73498   7.023   7.414   8.211
24419WAT     H173499   6.959   7.491   8.201
24419WAT     H273500   7.062   7.392   8.122
24420WAT      O73501   0.308   4.578   9.224
24420WAT     H173502   0.265   4.623   9.302
24420WAT     H273503   0.396   4.540   9.252
24421WAT      O73504   7.225   8.223   3.760
24421WAT     H173505   7.225   8.123   3.756
24421WAT     H273506   7.244   8.260   3.669
24422WAT      O73507   2.371   8.753   0.318
24422WAT     H173508   2.439   8.824   0.332
24422WAT     H273509   2.380   8.682   0.388
24423WAT      O73510   3.806   1.191   5.766
24423WAT     H173511   3.837   1.174   5.860
24423WAT     H273512   3.818   1.288   5.744
24424WAT      O73513   8.955   3.174   8.938
24424WAT     H173514   8.945   3.244   8.868
24424WAT     H273515   8.898   3.198   9.017
24425WAT      O73516   8.493   5.135   7.852
24425WAT     H173517   8.538   5.046   7.860
24425WAT     H273518   8.523   5.194   7.926
24426WAT      O73519   9.365   4.089   1.326
24426WAT     H173520   9.348   4.060   1.421
24426WAT     H273521   9.311   4.171   1.307
24427WAT      O73522   7.588   0.588   5.362
24427WAT     H173523   7.600   0.679   5.402
24427WAT     H273524   7.617   0.589   5.267
24428WAT      O73525   7.564   5.801   5.145
24428WAT     H173526   7.513   5.882   5.116
24428WAT     H273527   7.583   5.806   5.243
24429WAT      O73528   0.584   9.553   8.691
24429WAT     H173529   0.591   9.463   8.734
24429WAT     H273530   0.570   9.542   8.592
24430WAT      O73531   7.034   1.467   8.698
24430WAT     H173532   7.013   1.427   8.788
24430WAT     H273533   7.119   1.520   8.705
24431WAT      O73534   8.395   4.795   4.208
24431WAT     H173535   8.447   4.869   4.252
24431WAT     H273536   8.417   4.708   4.252
24432WAT      O73537   3.223   5.773   6.672
24432WAT     H173538   3.193   5.837   6.743
24432WAT     H273539   3.302   5.721   6.705
24433WAT      O73540   8.284   4.113   6.512
24433WAT     H173541   8.339   4.034   6.487
24433WAT     H273542   8.327   4.196   6.477
24434WAT      O73543   1.471   0.425   8.349
24434WAT     H173544   1.380   0.398   8.316
24434WAT     H273545   1.502   0.360   8.418
24435WAT      O73546   5.726   3.889   2.226
24435WAT     H173547   5.802   3.928   2.173
24435WAT     H273548   5.702   3.952   2.300
24436WAT      O73549   9.748   7.537   5.586
24436WAT     H173550   9.684   7.461   5.574
24436WAT     H273551   9.784   7.564   5.497
24437WAT      O73552   2.527   0.348   4.776
24437WAT     H173553   2.595   0.279   4.753
24437WAT     H273554   2.530   0.422   4.708
24438WAT      O73555   5.811   5.139   0.356
24438WAT     H173556   5.808   5.231   0.317
24438WAT     H273557   5.845   5.075   0.288
24439WAT      O73558   5.916   1.349   2.843
24439WAT     H173559   6.001   1.323   2.797
24439WAT     H273560   5.870   1.421   2.790
24440WAT      O73561   9.506   2.199   4.166
24440WAT     H173562   9.503   2.099   4.165
24440WAT     H273563   9.601   2.229   4.177
24441WAT      O73564   7.749   2.610   4.449
24441WAT     H173565   7.714   2.674   4.518
24441WAT     H273566   7.699   2.524   4.454
24442WAT      O73567   0.472   1.416   1.139
24442WAT     H173568   0.457   1.510   1.108
24442WAT     H273569   0.385   1.373   1.161
24443WAT      O73570   9.070   4.135   9.130
24443WAT     H173571   8.989   4.105   9.080
24443WAT     H273572   9.092   4.229   9.105
24444WAT      O73573   4.954   6.265   0.107
24444WAT     H173574   4.871   6.279   0.161
24444WAT     H273575   4.990   6.173   0.125
24445WAT      O73576   6.136   6.005   3.442
24445WAT     H173577   6.123   6.084   3.501
24445WAT     H273578   6.180   5.931   3.493
24446WAT      O73579   7.349   4.708   8.523
24446WAT     H173580   7.372   4.713   8.425
24446WAT     H273581   7.251   4.721   8.535
24447WAT      O73582   9.172   8.628   1.346
24447WAT     H173583   9.218   8.547   1.310
24447WAT     H273584   9.092   8.600   1.398
24448WAT      O73585   3.290   8.263   2.547
24448WAT     H173586   3.279   8.166   2.569
24448WAT     H273587   3.245   8.282   2.460
24449WAT      O73588   1.162   0.547   3.292
24449WAT     H173589   1.135   0.639   3.263
24449WAT     H273590   1.130   0.480   3.224
24450WAT      O73591   0.299   9.565   9.750
24450WAT     H173592   0.310   9.634   9.821
24450WAT     H273593   0.278   9.477   9.792
24451WAT      O73594   6.085   7.938   1.998
24451WAT     H173595   6.046   7.876   2.067
24451WAT     H273596   6.031   8.022   1.996
24452WAT      O73597   5.279   4.013   8.305
24452WAT     H173598   5.361   4.064   8.332
24452WAT     H273599   5.198   4.069   8.320
24453WAT      O73600   5.316   7.156   8.063
24453WAT     H173601   5.283   7.062   8.074
24453WAT     H273602   5.291   7.210   8.143
24454WAT      O73603   5.671   5.720   8.317
24454WAT     H173604   5.747   5.782   8.300
24454WAT     H273605   5.702   5.625   8.306
24455WAT      O73606   1.687   6.717   7.312
24455WAT     H173607   1.680   6.618   7.300
24455WAT     H273608   1.734   6.757   7.234
24456WAT      O73609   3.075   8.299   3.419
24456WAT     H173610   3.072   8.280   3.517
24456WAT     H273611   3.169   8.297   3.387
24457WAT      O73612   1.413   3.233   0.946
24457WAT     H173613   1.503   3.259   0.980
24457WAT     H273614   1.407   3.133   0.940
24458WAT      O73615   8.207   8.331   4.636
24458WAT     H173616   8.171   8.258   4.694
24458WAT     H273617   8.139   8.357   4.568
24459WAT      O73618   4.653   2.382   4.490
24459WAT     H173619   4.629   2.299   4.540
24459WAT     H273620   4.686   2.452   4.554
24460WAT      O73621   0.857   7.369   2.970
24460WAT     H173622   0.920   7.332   2.902
24460WAT     H273623   0.895   7.355   3.062
24461WAT      O73624   7.657   4.297   1.739
24461WAT     H173625   7.578   4.296   1.800
24461WAT     H273626   7.651   4.220   1.675
24462WAT      O73627   1.463   2.203   7.876
24462WAT     H173628   1.413   2.190   7.791
24462WAT     H273629   1.481   2.114   7.918
24463WAT      O73630   0.387   2.906   1.510
24463WAT     H173631   0.365   3.000   1.482
24463WAT     H273632   0.429   2.858   1.434
24464WAT      O73633   6.384   3.341   2.136
24464WAT     H173634   6.397   3.420   2.076
24464WAT     H273635   6.461   3.334   2.199
24465WAT      O73636   1.867   5.320   0.516
24465WAT     H173637   1.945   5.266   0.546
24465WAT     H273638   1.897   5.413   0.493
24466WAT      O73639   1.991   2.000   3.754
24466WAT     H173640   2.006   2.095   3.726
24466WAT     H273641   1.944   1.998   3.842
24467WAT      O73642   9.704   0.461   2.354
24467WAT     H173643   9.742   0.371   2.335
24467WAT     H273644   9.778   0.527   2.366
24468WAT      O73645   7.861   0.669   1.814
24468WAT     H173646   7.860   0.626   1.904
24468WAT     H273647   7.777   0.722   1.802
24469WAT      O73648   3.505   9.687   2.774
24469WAT     H173649   3.487   9.604   2.827
24469WAT     H273650   3.576   9.741   2.819
24470WAT      O73651   9.282   3.832   0.470
24470WAT     H173652   9.301   3.915   0.418
24470WAT     H273653   9.366   3.802   0.516
24471WAT      O73654   1.122   7.249   4.240
24471WAT     H173655   1.150   7.344   4.256
24471WAT     H273656   1.028   7.247   4.207
24472WAT      O73657   5.125   9.570   2.823
24472WAT     H173658   5.060   9.522   2.882
24472WAT     H273659   5.147   9.513   2.744
24473WAT      O73660   3.744   2.749   0.263
24473WAT     H173661   3.748   2.838   0.309
24473WAT     H273662   3.672   2.694   0.304
24474WAT      O73663   1.383   5.603   7.975
24474WAT     H173664   1.367   5.669   7.901
24474WAT     H273665   1.358   5.644   8.062
24475WAT      O73666   8.619   1.933   1.524
24475WAT     H173667   8.578   1.987   1.598
24475WAT     H273668   8.588   1.969   1.436
24476WAT      O73669   9.849   8.611   4.059
24476WAT     H173670   9.870   8.698   4.014
24476WAT     H273671   9.758   8.616   4.099
24477WAT      O73672   5.039   8.226   4.812
24477WAT     H173673   5.047   8.258   4.717
24477WAT     H273674   5.068   8.299   4.874
24478WAT      O73675   9.714   8.801   3.473
24478WAT     H173676   9.812   8.807   3.456
24478WAT     H273677   9.698   8.775   3.569
24479WAT      O73678   6.054   9.041   0.813
24479WAT     H173679   6.131   8.993   0.770
24479WAT     H273680   6.008   9.098   0.744
24480WAT      O73681   6.478   7.535   9.475
24480WAT     H173682   6.553   7.595   9.445
24480WAT     H273683   6.395   7.559   9.426
24481WAT      O73684   6.288   2.565   6.973
24481WAT     H173685   6.327   2.571   7.065
24481WAT     H273686   6.188   2.571   6.978
24482WAT      O73687   2.499   4.617   9.462
24482WAT     H173688   2.495   4.710   9.499
24482WAT     H273689   2.499   4.551   9.536
24483WAT      O73690   8.691   7.763   9.442
24483WAT     H173691   8.606   7.759   9.495
24483WAT     H273692   8.740   7.847   9.464
24484WAT      O73693   7.456   7.111   6.547
24484WAT     H173694   7.371   7.063   6.570
24484WAT     H273695   7.454   7.203   6.587
24485WAT      O73696   7.852   2.225   9.695
24485WAT     H173697   7.859   2.234   9.794
24485WAT     H273698   7.891   2.137   9.667
24486WAT      O73699   4.106   8.738   7.569
24486WAT     H173700   4.021   8.769   7.609
24486WAT     H273701   4.094   8.646   7.531
24487WAT      O73702   9.756   9.128   9.779
24487WAT     H173703   9.789   9.067   9.851
24487WAT     H273704   9.793   9.220   9.793
24488WAT      O73705   2.214   4.035   3.162
24488WAT     H173706   2.266   4.107   3.116
24488WAT     H273707   2.122   4.068   3.182
24489WAT      O73708   4.526   5.820   1.422
24489WAT     H173709   4.526   5.913   1.386
24489WAT     H273710   4.480   5.759   1.358
24490WAT      O73711   0.434   3.876   0.241
24490WAT     H173712   0.364   3.946   0.230
24490WAT     H273713   0.465   3.875   0.336
24491WAT      O73714   7.146   8.521   0.684
24491WAT     H173715   7.083   8.597   0.665
24491WAT     H273716   7.127   8.446   0.622
24492WAT      O73717   3.116   7.457   6.158
24492WAT     H173718   3.203   7.423   6.194
24492WAT     H273719   3.074   7.518   6.225
24493WAT      O73720   0.063   4.509   7.513
24493WAT     H173721  -0.022   4.554   7.539
24493WAT     H273722   0.091   4.540   7.422
24494WAT      O73723   2.511   1.897   7.827
24494WAT     H173724   2.509   1.924   7.923
24494WAT     H273725   2.577   1.823   7.815
24495WAT      O73726   9.840   4.032   5.507
24495WAT     H173727   9.815   3.945   5.466
24495WAT     H273728   9.903   4.081   5.447
24496WAT      O73729   3.733   4.159   1.917
24496WAT     H173730   3.746   4.167   1.818
24496WAT     H273731   3.742   4.249   1.959
24497WAT      O73732   7.525   8.092   6.434
24497WAT     H173733   7.622   8.105   6.411
24497WAT     H273734   7.470   8.104   6.352
24498WAT      O73735   5.498   1.277   6.883
24498WAT     H173736   5.464   1.239   6.969
24498WAT     H273737   5.465   1.221   6.807
24499WAT      O73738   9.167   3.784   1.524
24499WAT     H173739   9.256   3.794   1.480
24499WAT     H273740   9.140   3.871   1.566
24500WAT      O73741   7.099   5.295   4.903
24500WAT     H173742   7.091   5.231   4.826
24500WAT     H273743   7.052   5.380   4.880
24501WAT      O73744   2.712   0.883   3.851
24501WAT     H173745   2.731   0.813   3.782
24501WAT     H273746   2.613   0.898   3.858
24502WAT      O73747   0.955   3.919   0.484
24502WAT     H173748   0.931   3.835   0.434
24502WAT     H273749   0.884   3.988   0.469
24503WAT      O73750   6.371   5.595   5.670
24503WAT     H173751   6.374   5.636   5.579
24503WAT     H273752   6.277   5.594   5.703
24504WAT      O73753   5.351   3.292   1.442
24504WAT     H173754   5.304   3.381   1.451
24504WAT     H273755   5.425   3.301   1.376
24505WAT      O73756   8.911   7.931   1.142
24505WAT     H173757   8.916   7.927   1.242
24505WAT     H273758   8.830   7.883   1.111
24506WAT      O73759   5.544   0.572   3.139
24506WAT     H173760   5.552   0.602   3.234
24506WAT     H273761   5.634   0.572   3.096
24507WAT      O73762   1.849   3.757   8.995
24507WAT     H173763   1.795   3.675   8.976
24507WAT     H273764   1.946   3.737   8.981
24508WAT      O73765   0.901   7.642   4.559
24508WAT     H173766   0.868   7.600   4.644
24508WAT     H273767   0.971   7.710   4.581
24509WAT      O73768   1.630   8.483   2.522
24509WAT     H173769   1.683   8.452   2.443
24509WAT     H273770   1.636   8.583   2.529
24510WAT      O73771   3.808   4.303   7.595
24510WAT     H173772   3.803   4.235   7.522
24510WAT     H273773   3.803   4.256   7.684
24511WAT      O73774   3.642   2.757   2.733
24511WAT     H173775   3.625   2.682   2.797
24511WAT     H273776   3.738   2.757   2.706
24512WAT      O73777   6.907   4.601   5.438
24512WAT     H173778   6.985   4.618   5.377
24512WAT     H273779   6.937   4.609   5.533
24513WAT      O73780   8.258   6.775   1.736
24513WAT     H173781   8.302   6.837   1.671
24513WAT     H273782   8.212   6.701   1.685
24514WAT      O73783   2.852   6.649   3.170
24514WAT     H173784   2.949   6.671   3.182
24514WAT     H273785   2.811   6.631   3.259
24515WAT      O73786   6.678   6.297   4.864
24515WAT     H173787   6.764   6.336   4.895
24515WAT     H273788   6.654   6.218   4.921
24516WAT      O73789   0.834   4.749   7.258
24516WAT     H173790   0.906   4.742   7.189
24516WAT     H273791   0.774   4.826   7.235
24517WAT      O73792   5.463   8.005   1.306
24517WAT     H173793   5.443   7.952   1.223
24517WAT     H273794   5.549   7.972   1.346
24518WAT      O73795   1.999   8.105   1.526
24518WAT     H173796   2.097   8.100   1.505
24518WAT     H273797   1.960   8.013   1.526
24519WAT      O73798   2.005   3.236   2.052
24519WAT     H173799   1.931   3.173   2.027
24519WAT     H273800   2.048   3.205   2.137
24520WAT      O73801   3.919   9.535   4.325
24520WAT     H173802   3.928   9.610   4.390
24520WAT     H273803   3.999   9.475   4.331
24521WAT      O73804   2.489   6.951   1.950
24521WAT     H173805   2.480   7.035   2.003
24521WAT     H273806   2.496   6.873   2.012
24522WAT      O73807   4.461   0.573   3.759
24522WAT     H173808   4.463   0.636   3.682
24522WAT     H273809   4.370   0.575   3.802
24523WAT      O73810   0.828   3.275   4.088
24523WAT     H173811   0.842   3.215   4.166
24523WAT     H273812   0.911   3.328   4.071
24524WAT      O73813   1.511   9.568   3.210
24524WAT     H173814   1.434   9.632   3.207
24524WAT     H273815   1.574   9.596   3.283
24525WAT      O73816   6.957   3.853   7.985
24525WAT     H173817   6.863   3.828   7.965
24525WAT     H273818   7.012   3.846   7.902
24526WAT      O73819   5.382   5.515   8.561
24526WAT     H173820   5.435   5.598   8.542
24526WAT     H273821   5.292   5.523   8.520
24527WAT      O73822   3.141   5.026   3.447
24527WAT     H173823   3.220   5.024   3.386
24527WAT     H273824   3.150   4.954   3.516
24528WAT      O73825   0.130   8.509   1.541
24528WAT     H173826   0.172   8.488   1.630
24528WAT     H273827   0.193   8.566   1.488
24529WAT      O73828   3.601   5.961   6.686
24529WAT     H173829   3.608   5.950   6.587
24529WAT     H273830   3.505   5.971   6.712
24530WAT      O73831   6.027   3.818   3.962
24530WAT     H173832   6.118   3.788   3.990
24530WAT     H273833   5.981   3.744   3.912
24531WAT      O73834   6.149   3.917   6.428
24531WAT     H173835   6.152   3.817   6.431
24531WAT     H273836   6.158   3.954   6.520
24532WAT      O73837   6.349   4.298   0.893
24532WAT     H173838   6.256   4.321   0.924
24532WAT     H273839   6.347   4.273   0.796
24533WAT      O73840   7.838   5.733   1.828
24533WAT     H173841   7.899   5.790   1.884
24533WAT     H273842   7.755   5.783   1.807
24534WAT      O73843   8.229   8.747   4.560
24534WAT     H173844   8.201   8.843   4.569
24534WAT     H273845   8.151   8.688   4.580
24535WAT      O73846   0.586   0.543   7.935
24535WAT     H173847   0.607   0.562   8.031
24535WAT     H273848   0.644   0.600   7.877
24536WAT      O73849   1.789   8.915   1.753
24536WAT     H173850   1.796   8.817   1.772
24536WAT     H273851   1.726   8.957   1.819
24537WAT      O73852   5.186   1.667   3.447
24537WAT     H173853   5.203   1.752   3.498
24537WAT     H273854   5.170   1.592   3.512
24538WAT      O73855   0.376   4.239   1.080
24538WAT     H173856   0.342   4.149   1.105
24538WAT     H273857   0.337   4.308   1.141
24539WAT      O73858   7.593   1.339   3.672
24539WAT     H173859   7.650   1.295   3.602
24539WAT     H273860   7.510   1.376   3.629
24540WAT      O73861   1.134   7.365   6.569
24540WAT     H173862   1.048   7.413   6.582
24540WAT     H273863   1.118   7.279   6.520
24541WAT      O73864   5.405   0.866   8.676
24541WAT     H173865   5.480   0.817   8.630
24541WAT     H273866   5.443   0.927   8.746
24542WAT      O73867   0.092   5.754   4.122
24542WAT     H173868   0.030   5.769   4.199
24542WAT     H273869   0.039   5.716   4.045
24543WAT      O73870   4.460   8.495   2.646
24543WAT     H173871   4.519   8.556   2.594
24543WAT     H273872   4.443   8.411   2.593
24544WAT      O73873   7.748   9.333   0.946
24544WAT     H173874   7.818   9.262   0.953
24544WAT     H273875   7.714   9.336   0.852
24545WAT      O73876   0.254   5.052   6.175
24545WAT     H173877   0.171   5.067   6.228
24545WAT     H273878   0.241   5.087   6.082
24546WAT      O73879   4.569   2.924   5.830
24546WAT     H173880   4.590   2.947   5.925
24546WAT     H273881   4.542   2.827   5.825
24547WAT      O73882   7.327   9.126   8.539
24547WAT     H173883   7.342   9.193   8.612
24547WAT     H273884   7.415   9.092   8.507
24548WAT      O73885   0.136   1.161   0.224
24548WAT     H173886   0.232   1.134   0.231
24548WAT     H273887   0.101   1.181   0.316
24549WAT      O73888   8.516   3.177   6.059
24549WAT     H173889   8.559   3.252   6.010
24549WAT     H273890   8.420   3.200   6.078
24550WAT      O73891   7.976   7.512   7.163
24550WAT     H173892   7.911   7.489   7.090
24550WAT     H273893   7.930   7.568   7.232
24551WAT      O73894   3.581   3.245   2.537
24551WAT     H173895   3.585   3.230   2.635
24551WAT     H273896   3.660   3.299   2.508
24552WAT      O73897   9.498   9.766   9.049
24552WAT     H173898   9.411   9.788   9.093
24552WAT     H273899   9.514   9.831   8.974
24553WAT      O73900   3.817   2.963   6.099
24553WAT     H173901   3.768   3.014   6.028
24553WAT     H273902   3.759   2.888   6.132
24554WAT      O73903   4.804   8.171   2.210
24554WAT     H173904   4.848   8.254   2.245
24554WAT     H273905   4.705   8.186   2.205
24555WAT      O73906   5.531   0.118   3.881
24555WAT     H173907   5.521   0.066   3.965
24555WAT     H273908   5.615   0.091   3.834
24556WAT      O73909   2.492   6.683   2.427
24556WAT     H173910   2.587   6.666   2.401
24556WAT     H273911   2.438   6.600   2.411
24557WAT      O73912   4.608   0.488   8.860
24557WAT     H173913   4.689   0.432   8.868
24557WAT     H273914   4.530   0.431   8.833
24558WAT      O73915   2.856   8.295   1.601
24558WAT     H173916   2.927   8.365   1.588
24558WAT     H273917   2.873   8.246   1.686
24559WAT      O73918   0.410   2.978   6.142
24559WAT     H173919   0.318   2.974   6.182
24559WAT     H273920   0.436   3.074   6.128
24560WAT      O73921   2.915   5.926   4.526
24560WAT     H173922   2.824   5.963   4.544
24560WAT     H273923   2.927   5.841   4.578
24561WAT      O73924   8.212   5.312   5.142
24561WAT     H173925   8.143   5.310   5.214
24561WAT     H273926   8.193   5.241   5.075
24562WAT      O73927   9.125   8.918   6.113
24562WAT     H173928   9.082   9.004   6.140
24562WAT     H273929   9.095   8.893   6.021
24563WAT      O73930   4.120   7.184   1.792
24563WAT     H173931   4.215   7.182   1.762
24563WAT     H273932   4.111   7.139   1.880
24564WAT      O73933   1.953   5.278   3.751
24564WAT     H173934   1.989   5.189   3.779
24564WAT     H273935   1.926   5.274   3.655
24565WAT      O73936   1.110   2.431   4.090
24565WAT     H173937   1.108   2.331   4.095
24565WAT     H273938   1.064   2.461   4.006
24566WAT      O73939   4.329   6.992   2.376
24566WAT     H173940   4.271   7.039   2.309
24566WAT     H273941   4.290   7.002   2.467
24567WAT      O73942   5.332   4.557   9.082
24567WAT     H173943   5.283   4.567   8.996
24567WAT     H273944   5.352   4.460   9.098
24568WAT      O73945   3.141   6.037   4.899
24568WAT     H173946   3.115   5.958   4.954
24568WAT     H273947   3.190   6.007   4.817
24569WAT      O73948   8.924   2.128   7.906
24569WAT     H173949   8.868   2.084   7.976
24569WAT     H273950   8.968   2.058   7.849
24570WAT      O73951   8.468   2.740   8.034
24570WAT     H173952   8.394   2.709   8.094
24570WAT     H273953   8.431   2.799   7.962
24571WAT      O73954   0.361   8.831   1.930
24571WAT     H173955   0.413   8.785   2.003
24571WAT     H273956   0.417   8.833   1.847
24572WAT      O73957   0.170   5.420   3.371
24572WAT     H173958   0.098   5.486   3.347
24572WAT     H273959   0.257   5.469   3.381
24573WAT      O73960   2.946   8.575   0.583
24573WAT     H173961   3.037   8.545   0.555
24573WAT     H273962   2.879   8.504   0.561
24574WAT      O73963   0.309   8.680   1.409
24574WAT     H173964   0.409   8.685   1.406
24574WAT     H273965   0.271   8.744   1.342
24575WAT      O73966   8.849   3.570   6.162
24575WAT     H173967   8.813   3.490   6.210
24575WAT     H273968   8.869   3.545   6.067
24576WAT      O73969   7.412   2.995   0.604
24576WAT     H173970   7.353   3.069   0.572
24576WAT     H273971   7.501   3.031   0.629
24577WAT      O73972   0.736   1.598   0.423
24577WAT     H173973   0.812   1.652   0.459
24577WAT     H273974   0.663   1.658   0.392
24578WAT      O73975   8.723   8.730   5.767
24578WAT     H173976   8.663   8.797   5.812
24578WAT     H273977   8.671   8.647   5.747
24579WAT      O73978   9.883   5.480   1.261
24579WAT     H173979   9.883   5.559   1.323
24579WAT     H273980   9.944   5.498   1.184
24580WAT      O73981   6.507   5.389   5.089
24580WAT     H173982   6.425   5.431   5.127
24580WAT     H273983   6.511   5.293   5.117
24581WAT      O73984   4.039   4.468   3.119
24581WAT     H173985   3.967   4.477   3.050
24581WAT     H273986   3.999   4.441   3.206
24582WAT      O73987   8.735   0.302   7.132
24582WAT     H173988   8.795   0.289   7.210
24582WAT     H273989   8.768   0.378   7.077
24583WAT      O73990   4.023   4.431   2.212
24583WAT     H173991   4.119   4.432   2.242
24583WAT     H273992   3.995   4.525   2.191
24584WAT      O73993   9.458   0.930   2.707
24584WAT     H173994   9.376   0.917   2.652
24584WAT     H273995   9.509   0.844   2.711
24585WAT      O73996   1.728   3.095   3.080
24585WAT     H173997   1.752   3.000   3.059
24585WAT     H273998   1.805   3.155   3.056
24586WAT      O73999   1.001   6.810   5.468
24586WAT     H174000   1.083   6.756   5.483
24586WAT     H274001   1.003   6.849   5.376
24587WAT      O74002   9.076   4.274   6.149
24587WAT     H174003   8.994   4.282   6.207
24587WAT     H274004   9.052   4.296   6.055
24588WAT      O74005   3.032   1.657   2.635
24588WAT     H174006   2.969   1.616   2.570
24588WAT     H274007   3.053   1.751   2.606
24589WAT      O74008   4.930   6.298   0.504
24589WAT     H174009   4.906   6.372   0.566
24589WAT     H274010   4.986   6.333   0.429
24590WAT      O74011   3.525   9.593   3.202
24590WAT     H174012   3.460   9.669   3.196
24590WAT     H274013   3.617   9.629   3.216
24591WAT      O74014   3.799   5.741   4.400
24591WAT     H174015   3.850   5.826   4.410
24591WAT     H274016   3.711   5.760   4.355
24592WAT      O74017   1.476   7.933   1.149
24592WAT     H174018   1.388   7.961   1.187
24592WAT     H274019   1.462   7.893   1.058
24593WAT      O74020   7.245   0.954   0.078
24593WAT     H174021   7.172   0.989   0.020
24593WAT     H274022   7.207   0.926   0.166
24594WAT      O74023   2.070   2.531   5.091
24594WAT     H174024   2.070   2.610   5.153
24594WAT     H274025   1.977   2.496   5.083
24595WAT      O74026   2.972   6.527   0.926
24595WAT     H174027   3.067   6.523   0.894
24595WAT     H274028   2.938   6.621   0.914
24596WAT      O74029   2.420   2.262   3.260
24596WAT     H174030   2.434   2.249   3.162
24596WAT     H274031   2.507   2.286   3.303
24597WAT      O74032   5.788   4.247   3.704
24597WAT     H174033   5.886   4.265   3.715
24597WAT     H274034   5.773   4.151   3.683
24598WAT      O74035   3.928   9.719   6.531
24598WAT     H174036   3.940   9.758   6.622
24598WAT     H274037   4.015   9.681   6.499
24599WAT      O74038   4.330   0.570   8.986
24599WAT     H174039   4.296   0.655   9.027
24599WAT     H274040   4.414   0.589   8.936
24600WAT      O74041   9.488   5.978   0.732
24600WAT     H174042   9.582   6.014   0.738
24600WAT     H274043   9.486   5.902   0.668
24601WAT      O74044   8.654   2.833   9.191
24601WAT     H174045   8.588   2.777   9.241
24601WAT     H274046   8.711   2.884   9.257
24602WAT      O74047   0.009   5.100   2.411
24602WAT     H174048  -0.013   5.028   2.477
24602WAT     H274049  -0.005   5.065   2.318
24603WAT      O74050   3.425   9.267   2.442
24603WAT     H174051   3.369   9.224   2.513
24603WAT     H274052   3.407   9.223   2.354
24604WAT      O74053   5.102   8.599   5.253
24604WAT     H174054   5.093   8.521   5.316
24604WAT     H274055   5.198   8.611   5.228
24605WAT      O74056   7.101   2.828   6.078
24605WAT     H174057   7.171   2.773   6.032
24605WAT     H274058   7.014   2.781   6.074
24606WAT      O74059   0.236   9.715   6.891
24606WAT     H174060   0.194   9.661   6.964
24606WAT     H274061   0.214   9.812   6.904
24607WAT      O74062   2.795   1.094   5.987
24607WAT     H174063   2.808   0.995   5.976
24607WAT     H274064   2.698   1.114   5.996
24608WAT      O74065   6.050   7.496   2.718
24608WAT     H174066   6.032   7.595   2.718
24608WAT     H274067   6.148   7.480   2.711
24609WAT      O74068   1.511   4.163   0.992
24609WAT     H174069   1.502   4.227   1.069
24609WAT     H274070   1.501   4.213   0.906
24610WAT      O74071   9.287   4.767   3.471
24610WAT     H174072   9.281   4.751   3.569
24610WAT     H274073   9.382   4.760   3.441
24611WAT      O74074   9.689   8.629   4.617
24611WAT     H174075   9.758   8.557   4.629
24611WAT     H274076   9.732   8.709   4.575
24612WAT      O74077   3.509   4.092   4.240
24612WAT     H174078   3.595   4.069   4.286
24612WAT     H274079   3.499   4.036   4.157
24613WAT      O74080   0.835   1.998   2.362
24613WAT     H174081   0.809   2.092   2.341
24613WAT     H274082   0.866   1.991   2.457
24614WAT      O74083   3.490   5.334   0.959
24614WAT     H174084   3.560   5.388   0.913
24614WAT     H274085   3.454   5.265   0.896
24615WAT      O74086   3.282   1.811   4.190
24615WAT     H174087   3.192   1.831   4.228
24615WAT     H274088   3.299   1.713   4.194
24616WAT      O74089   2.336   5.485   7.773
24616WAT     H174090   2.414   5.485   7.835
24616WAT     H274091   2.254   5.455   7.823
24617WAT      O74092   0.354   5.460   8.123
24617WAT     H174093   0.294   5.480   8.045
24617WAT     H274094   0.309   5.491   8.207
24618WAT      O74095   4.726   1.636   3.387
24618WAT     H174096   4.666   1.583   3.446
24618WAT     H274097   4.677   1.660   3.303
24619WAT      O74098   5.726   3.527   4.041
24619WAT     H174099   5.760   3.437   4.013
24619WAT     H274100   5.629   3.534   4.019
24620WAT      O74101   0.868   1.805   3.149
24620WAT     H174102   0.915   1.726   3.108
24620WAT     H274103   0.935   1.864   3.194
24621WAT      O74104   7.536   6.901   5.641
24621WAT     H174105   7.609   6.969   5.639
24621WAT     H274106   7.575   6.810   5.652
24622WAT      O74107   0.086   3.300   8.637
24622WAT     H174108   0.034   3.377   8.601
24622WAT     H274109   0.030   3.251   8.704
24623WAT      O74110   9.202   7.297   4.235
24623WAT     H174111   9.155   7.330   4.154
24623WAT     H274112   9.136   7.257   4.299
24624WAT      O74113   2.570   5.695   8.105
24624WAT     H174114   2.645   5.730   8.160
24624WAT     H274115   2.485   5.740   8.133
24625WAT      O74116   9.485   6.595   6.111
24625WAT     H174117   9.422   6.522   6.087
24625WAT     H274118   9.579   6.564   6.097
24626WAT      O74119   5.649   0.361   4.443
24626WAT     H174120   5.666   0.315   4.356
24626WAT     H274121   5.550   0.372   4.456
24627WAT      O74122   3.660   6.560   1.924
24627WAT     H174123   3.688   6.585   2.017
24627WAT     H274124   3.562   6.537   1.924
24628WAT      O74125   7.954   7.642   0.648
24628WAT     H174126   7.976   7.681   0.737
24628WAT     H274127   8.037   7.637   0.592
24629WAT      O74128   6.028   9.255   4.926
24629WAT     H174129   6.004   9.328   4.862
24629WAT     H274130   6.074   9.181   4.876
24630WAT      O74131   5.827   3.683   8.194
24630WAT     H174132   5.750   3.628   8.160
24630WAT     H274133   5.890   3.625   8.245
24631WAT      O74134   6.994   7.550   5.796
24631WAT     H174135   7.031   7.463   5.764
24631WAT     H274136   7.010   7.620   5.726
24632WAT      O74137   9.834   2.837   5.570
24632WAT     H174138   9.926   2.817   5.605
24632WAT     H274139   9.840   2.862   5.473
24633WAT      O74140   6.007   2.113   3.601
24633WAT     H174141   6.104   2.124   3.579
24633WAT     H274142   5.955   2.186   3.557
24634WAT      O74143   4.091   9.215   5.790
24634WAT     H174144   4.082   9.312   5.766
24634WAT     H274145   4.011   9.186   5.843
24635WAT      O74146   5.909   7.019   5.498
24635WAT     H174147   5.898   7.112   5.463
24635WAT     H274148   5.829   6.994   5.552
24636WAT      O74149   5.804   4.577   6.386
24636WAT     H174150   5.759   4.593   6.474
24636WAT     H274151   5.833   4.481   6.380
24637WAT      O74152   3.769   7.350   7.324
24637WAT     H174153   3.776   7.375   7.421
24637WAT     H274154   3.677   7.317   7.304
24638WAT      O74155   5.607   0.764   8.188
24638WAT     H174156   5.578   0.699   8.258
24638WAT     H274157   5.707   0.772   8.190
24639WAT      O74158   0.381   8.375   2.921
24639WAT     H174159   0.332   8.351   2.837
24639WAT     H274160   0.319   8.422   2.984
24640WAT      O74161   4.040   9.347   0.343
24640WAT     H174162   4.045   9.248   0.353
24640WAT     H274163   4.061   9.391   0.430
24641WAT      O74164   5.513   1.375   5.944
24641WAT     H174165   5.539   1.400   6.038
24641WAT     H274166   5.417   1.398   5.930
24642WAT      O74167   5.118   5.421   1.334
24642WAT     H174168   5.119   5.329   1.373
24642WAT     H274169   5.057   5.423   1.255
24643WAT      O74170   3.319   3.863   3.851
24643WAT     H174171   3.326   3.894   3.756
24643WAT     H274172   3.407   3.827   3.881
24644WAT      O74173   3.540   2.922   7.647
24644WAT     H174174   3.580   2.977   7.721
24644WAT     H274175   3.516   2.831   7.683
24645WAT      O74176   6.522   6.813   1.249
24645WAT     H174177   6.540   6.781   1.156
24645WAT     H274178   6.461   6.749   1.295
24646WAT      O74179   7.666   5.170   9.872
24646WAT     H174180   7.599   5.204   9.806
24646WAT     H274181   7.619   5.132   9.952
24647WAT      O74182   5.266   1.124  -0.000
24647WAT     H174183   5.288   1.159   0.091
24647WAT     H274184   5.284   1.195  -0.068
24648WAT      O74185   2.963   2.994   9.644
24648WAT     H174186   2.887   2.932   9.665
24648WAT     H274187   2.985   3.048   9.726
24649WAT      O74188   7.633   2.406   1.064
24649WAT     H174189   7.593   2.419   1.154
24649WAT     H274190   7.587   2.330   1.018
24650WAT      O74191   9.391   3.301   5.248
24650WAT     H174192   9.349   3.212   5.266
24650WAT     H274193   9.321   3.371   5.244
24651WAT      O74194   3.170   1.883   5.320
24651WAT     H174195   3.200   1.973   5.287
24651WAT     H274196   3.122   1.835   5.246
24652WAT      O74197   5.473   5.998   2.486
24652WAT     H174198   5.453   5.991   2.389
24652WAT     H274199   5.413   6.066   2.528
24653WAT      O74200   1.043   6.880   0.444
24653WAT     H174201   0.973   6.875   0.373
24653WAT     H274202   1.124   6.926   0.408
24654WAT      O74203   8.947   3.754   3.281
24654WAT     H174204   8.963   3.815   3.204
24654WAT     H274205   9.030   3.750   3.338
24655WAT      O74206   2.140   5.307   6.393
24655WAT     H174207   2.154   5.329   6.296
24655WAT     H274208   2.051   5.262   6.404
24656WAT      O74209   6.583   0.253   5.358
24656WAT     H174210   6.647   0.307   5.304
24656WAT     H274211   6.585   0.158   5.327
24657WAT      O74212   0.302   1.116   2.762
24657WAT     H174213   0.272   1.157   2.676
24657WAT     H274214   0.222   1.088   2.815
24658WAT      O74215   1.392   4.130   2.263
24658WAT     H174216   1.342   4.080   2.333
24658WAT     H274217   1.378   4.228   2.276
24659WAT      O74218   9.041   9.193   4.064
24659WAT     H174219   8.950   9.198   4.022
24659WAT     H274220   9.082   9.285   4.064
24660WAT      O74221   8.140   0.791   2.995
24660WAT     H174222   8.151   0.714   2.932
24660WAT     H274223   8.179   0.873   2.954
24661WAT      O74224   4.939   1.501   7.958
24661WAT     H174225   4.849   1.534   7.989
24661WAT     H274226   4.940   1.401   7.959
24662WAT      O74227   6.860   9.811   3.168
24662WAT     H174228   6.842   9.862   3.084
24662WAT     H274229   6.854   9.872   3.247
24663WAT      O74230   7.290   3.158   0.032
24663WAT     H174231   7.342   3.090   0.084
24663WAT     H274232   7.277   3.241   0.087
24664WAT      O74233   0.540   6.736   1.831
24664WAT     H174234   0.584   6.810   1.780
24664WAT     H274235   0.469   6.694   1.774
24665WAT      O74236   6.753   4.518   9.629
24665WAT     H174237   6.771   4.616   9.643
24665WAT     H274238   6.749   4.472   9.718
24666WAT      O74239   4.387   2.842   0.189
24666WAT     H174240   4.468   2.786   0.206
24666WAT     H274241   4.312   2.810   0.248
24667WAT      O74242   8.023   1.781   6.918
24667WAT     H174243   8.066   1.862   6.878
24667WAT     H274244   7.960   1.740   6.851
24668WAT      O74245   2.178   4.294   6.543
24668WAT     H174246   2.083   4.326   6.541
24668WAT     H274247   2.228   4.333   6.465
24669WAT      O74248   6.743   0.041   7.590
24669WAT     H174249   6.777  -0.035   7.535
24669WAT     H274250   6.795   0.124   7.568
24670WAT      O74251   6.776   6.829   4.716
24670WAT     H174252   6.712   6.761   4.683
24670WAT     H274253   6.727   6.899   4.768
24671WAT      O74254   5.747   1.060   3.699
24671WAT     H174255   5.651   1.070   3.723
24671WAT     H274256   5.760   1.083   3.602
24672WAT      O74257   5.652   4.426   9.255
24672WAT     H174258   5.573   4.368   9.234
24672WAT     H274259   5.672   4.421   9.353
24673WAT      O74260   8.752   3.408   4.700
24673WAT     H174261   8.666   3.385   4.747
24673WAT     H274262   8.774   3.504   4.715
24674WAT      O74263   7.686   3.210   1.479
24674WAT     H174264   7.619   3.281   1.501
24674WAT     H274265   7.675   3.133   1.542
24675WAT      O74266   3.470   8.426   4.653
24675WAT     H174267   3.495   8.470   4.567
24675WAT     H274268   3.553   8.400   4.702
24676WAT      O74269   9.791   4.295   1.008
24676WAT     H174270   9.885   4.276   0.977
24676WAT     H274271   9.733   4.217   0.989
24677WAT      O74272   6.103   4.259   3.078
24677WAT     H174273   6.187   4.219   3.040
24677WAT     H274274   6.061   4.319   3.010
24678WAT      O74275   4.592   4.996   3.660
24678WAT     H174276   4.537   4.964   3.583
24678WAT     H274277   4.647   4.920   3.696
24679WAT      O74278   5.772   7.920   6.589
24679WAT     H174279   5.713   7.840   6.582
24679WAT     H274280   5.850   7.899   6.648
24680WAT      O74281   7.460   8.839   9.430
24680WAT     H174282   7.540   8.822   9.372
24680WAT     H274283   7.427   8.931   9.413
24681WAT      O74284   7.148   4.064   2.933
24681WAT     H174285   7.165   4.030   2.840
24681WAT     H274286   7.208   4.142   2.951
24682WAT      O74287   3.842   5.201   0.976
24682WAT     H174288   3.880   5.109   0.976
24682WAT     H274289   3.789   5.215   0.892
24683WAT      O74290   9.321   8.423   7.468
24683WAT     H174291   9.303   8.334   7.427
24683WAT     H274292   9.236   8.476   7.472
24684WAT      O74293   8.200   2.904   2.453
24684WAT     H174294   8.283   2.949   2.419
24684WAT     H274295   8.174   2.830   2.391
24685WAT      O74296   8.065   0.806   7.133
24685WAT     H174297   8.012   0.890   7.136
24685WAT     H274298   8.153   0.823   7.088
24686WAT      O74299   2.667   8.663   2.540
24686WAT     H174300   2.576   8.648   2.503
24686WAT     H274301   2.683   8.599   2.616
24687WAT      O74302   2.568   3.661   7.627
24687WAT     H174303   2.515   3.596   7.681
24687WAT     H274304   2.606   3.731   7.687
24688WAT      O74305   5.611   3.283   7.020
24688WAT     H174306   5.612   3.379   6.990
24688WAT     H274307   5.530   3.238   6.983
24689WAT      O74308   1.332   6.630   9.815
24689WAT     H174309   1.340   6.675   9.727
24689WAT     H274310   1.393   6.550   9.817
24690WAT      O74311   8.080   8.594   1.876
24690WAT     H174312   7.997   8.538   1.877
24690WAT     H274313   8.133   8.573   1.794
24691WAT      O74314   5.276   4.796   9.679
24691WAT     H174315   5.288   4.806   9.778
24691WAT     H274316   5.338   4.726   9.644
24692WAT      O74317   8.643   5.731   3.163
24692WAT     H174318   8.656   5.791   3.242
24692WAT     H274319   8.715   5.748   3.096
24693WAT      O74320   0.769   4.511   2.252
24693WAT     H174321   0.686   4.512   2.197
24693WAT     H274322   0.744   4.502   2.349
24694WAT      O74323   4.460   0.457   1.501
24694WAT     H174324   4.468   0.418   1.409
24694WAT     H274325   4.529   0.417   1.561
24695WAT      O74326   3.147   2.869   9.503
24695WAT     H174327   3.218   2.936   9.478
24695WAT     H274328   3.075   2.915   9.556
24696WAT      O74329   3.128   7.045   0.347
24696WAT     H174330   3.033   7.052   0.376
24696WAT     H274331   3.156   7.129   0.301
24697WAT      O74332   5.620   0.633   2.151
24697WAT     H174333   5.703   0.621   2.097
24697WAT     H274334   5.546   0.663   2.091
24698WAT      O74335   3.575   0.462   3.999
24698WAT     H174336   3.566   0.479   4.098
24698WAT     H274337   3.610   0.369   3.984
24699WAT      O74338   2.681   8.201   5.949
24699WAT     H174339   2.778   8.206   5.971
24699WAT     H274340   2.647   8.292   5.925
24700WAT      O74341   3.290   7.823   4.914
24700WAT     H174342   3.333   7.799   4.827
24700WAT     H274343   3.266   7.920   4.914
24701WAT      O74344   0.807   9.606   1.010
24701WAT     H174345   0.850   9.653   0.932
24701WAT     H274346   0.708   9.618   1.006
24702WAT      O74347   0.251   6.697   0.852
24702WAT     H174348   0.317   6.772   0.861
24702WAT     H274349   0.271   6.627   0.920
24703WAT      O74350   3.540   3.588   5.635
24703WAT     H174351   3.582   3.634   5.714
24703WAT     H274352   3.480   3.516   5.668
24704WAT      O74353   3.787   0.970   9.278
24704WAT     H174354   3.748   1.015   9.358
24704WAT     H274355   3.804   1.038   9.207
24705WAT      O74356   0.218   0.163   5.400
24705WAT     H174357   0.300   0.165   5.457
24705WAT     H274358   0.139   0.196   5.454
24706WAT      O74359   6.165   9.207   8.493
24706WAT     H174360   6.121   9.119   8.471
24706WAT     H274361   6.095   9.278   8.497
24707WAT      O74362   6.353   7.325   0.878
24707WAT     H174363   6.403   7.403   0.842
24707WAT     H274364   6.270   7.310   0.824
24708WAT      O74365   6.372   8.239   0.650
24708WAT     H174366   6.417   8.193   0.726
24708WAT     H274367   6.335   8.171   0.587
24709WAT      O74368   7.691   4.057   1.552
24709WAT     H174369   7.709   3.962   1.577
24709WAT     H274370   7.672   4.062   1.454
24710WAT      O74371   6.290   0.723   5.012
24710WAT     H174372   6.236   0.806   5.025
24710WAT     H274373   6.333   0.698   5.099
24711WAT      O74374   1.780   7.736   8.932
24711WAT     H174375   1.747   7.774   8.846
24711WAT     H274376   1.716   7.666   8.965
24712WAT      O74377   1.820   2.241   8.040
24712WAT     H174378   1.743   2.217   8.099
24712WAT     H274379   1.816   2.338   8.017
24713WAT      O74380   1.252   1.182   3.333
24713WAT     H174381   1.291   1.167   3.424
24713WAT     H274382   1.154   1.162   3.334
24714WAT      O74383   0.882   2.768   0.184
24714WAT     H174384   0.870   2.846   0.246
24714WAT     H274385   0.793   2.725   0.168
24715WAT      O74386   7.367   1.817   6.542
24715WAT     H174387   7.441   1.749   6.546
24715WAT     H274388   7.348   1.840   6.447
24716WAT      O74389   4.959   3.777   3.421
24716WAT     H174390   4.992   3.754   3.513
24716WAT     H274391   4.877   3.724   3.401
24717WAT      O74392   1.738   6.449   5.259
24717WAT     H174393   1.837   6.465   5.261
24717WAT     H274394   1.694   6.524   5.209
24718WAT      O74395   2.915   2.351   5.993
24718WAT     H174396   2.907   2.309   5.903
24718WAT     H274397   2.949   2.445   5.984
24719WAT      O74398   9.812   6.522   9.837
24719WAT     H174399   9.880   6.459   9.875
24719WAT     H274400   9.824   6.527   9.738
24720WAT      O74401   1.502   2.687   2.845
24720WAT     H174402   1.468   2.639   2.764
24720WAT     H274403   1.580   2.743   2.820
24721WAT      O74404   3.633   5.549   0.795
24721WAT     H174405   3.538   5.557   0.767
24721WAT     H274406   3.672   5.641   0.809
24722WAT      O74407   9.849   3.862   2.304
24722WAT     H174408   9.757   3.897   2.292
24722WAT     H274409   9.872   3.862   2.401
24723WAT      O74410   5.048   2.802   1.067
24723WAT     H174411   4.960   2.842   1.043
24723WAT     H274412   5.103   2.871   1.115
24724WAT      O74413   6.515   6.213   7.612
24724WAT     H174414   6.416   6.198   7.600
24724WAT     H274415   6.561   6.125   7.621
24725WAT      O74416   4.727   9.071   6.129
24725WAT     H174417   4.656   9.141   6.130
24725WAT     H274418   4.687   8.983   6.107
24726WAT      O74419   7.941   8.640   4.302
24726WAT     H174420   7.889   8.643   4.387
24726WAT     H274421   7.952   8.732   4.266
24727WAT      O74422   1.781   0.746   0.978
24727WAT     H174423   1.758   0.769   1.072
24727WAT     H274424   1.836   0.819   0.938
24728WAT      O74425   6.959   8.833   5.878
24728WAT     H174426   6.912   8.905   5.930
24728WAT     H274427   6.926   8.743   5.909
24729WAT      O74428   2.079   4.442   4.723
24729WAT     H174429   2.077   4.430   4.822
24729WAT     H274430   2.114   4.359   4.680
24730WAT      O74431   9.719   1.647   0.042
24730WAT     H174432   9.795   1.610  -0.013
24730WAT     H274433   9.645   1.675  -0.019
24731WAT      O74434   3.196   5.456   6.918
24731WAT     H174435   3.179   5.548   6.953
24731WAT     H274436   3.294   5.436   6.922
24732WAT      O74437   6.228   9.790   6.712
24732WAT     H174438   6.150   9.851   6.707
24732WAT     H274439   6.303   9.834   6.761
24733WAT      O74440   0.779   7.187   5.014
24733WAT     H174441   0.740   7.277   4.993
24733WAT     H274442   0.868   7.200   5.058
24734WAT      O74443   6.241   3.173   7.498
24734WAT     H174444   6.172   3.241   7.474
24734WAT     H274445   6.278   3.195   7.589
24735WAT      O74446   6.037   5.254   1.250
24735WAT     H174447   6.005   5.339   1.293
24735WAT     H274448   6.137   5.257   1.243
24736WAT      O74449   7.024   4.506   4.306
24736WAT     H174450   7.017   4.517   4.405
24736WAT     H274451   7.025   4.409   4.283
24737WAT      O74452   0.590   2.528   2.361
24737WAT     H174453   0.492   2.534   2.342
24737WAT     H274454   0.641   2.578   2.291
24738WAT      O74455   3.986   4.356   8.515
24738WAT     H174456   4.067   4.321   8.469
24738WAT     H274457   3.905   4.308   8.480
24739WAT      O74458   8.624   8.302   3.597
24739WAT     H174459   8.645   8.231   3.530
24739WAT     H274460   8.561   8.265   3.666
24740WAT      O74461   2.021   4.437   1.579
24740WAT     H174462   1.933   4.432   1.626
24740WAT     H274463   2.068   4.349   1.587
24741WAT      O74464   6.459   1.536   5.953
24741WAT     H174465   6.453   1.479   6.035
24741WAT     H274466   6.461   1.632   5.979
24742WAT      O74467   9.433   7.950   0.574
24742WAT     H174468   9.447   8.020   0.505
24742WAT     H274469   9.371   7.984   0.645
24743WAT      O74470   6.460   0.243   0.321
24743WAT     H174471   6.536   0.216   0.261
24743WAT     H274472   6.455   0.342   0.326
24744WAT      O74473   6.314   9.186   3.132
24744WAT     H174474   6.410   9.191   3.160
24744WAT     H274475   6.295   9.095   3.094
24745WAT      O74476   3.376   6.189   2.806
24745WAT     H174477   3.286   6.172   2.845
24745WAT     H274478   3.367   6.240   2.721
24746WAT      O74479   8.553   6.059   4.824
24746WAT     H174480   8.460   6.093   4.811
24746WAT     H274481   8.593   6.103   4.904
24747WAT      O74482   7.133   1.204   5.341
24747WAT     H174483   7.117   1.120   5.291
24747WAT     H274484   7.064   1.216   5.411
24748WAT      O74485   6.373   9.188   7.411
24748WAT     H174486   6.429   9.268   7.433
24748WAT     H274487   6.424   9.105   7.431
24749WAT      O74488   3.264   1.813   1.274
24749WAT     H174489   3.237   1.898   1.320
24749WAT     H274490   3.331   1.765   1.331
24750WAT      O74491   2.684   5.300   6.230
24750WAT     H174492   2.659   5.357   6.152
24750WAT     H274493   2.781   5.276   6.224
24751WAT      O74494   1.870   5.692   5.861
24751WAT     H174495   1.921   5.776   5.839
24751WAT     H274496   1.813   5.666   5.783
24752WAT      O74497   0.876   5.157   9.150
24752WAT     H174498   0.899   5.214   9.071
24752WAT     H274499   0.816   5.208   9.212
24753WAT      O74500   9.120   5.413   3.460
24753WAT     H174501   9.219   5.429   3.460
24753WAT     H274502   9.083   5.433   3.369
24754WAT      O74503   8.418   4.006   1.594
24754WAT     H174504   8.441   3.914   1.624
24754WAT     H274505   8.496   4.067   1.608
24755WAT      O74506   1.181   0.810   9.323
24755WAT     H174507   1.248   0.852   9.384
24755WAT     H274508   1.134   0.881   9.271
24756WAT      O74509   2.328   1.565   0.699
24756WAT     H174510   2.291   1.538   0.788
24756WAT     H274511   2.424   1.539   0.694
24757WAT      O74512   0.404   0.748   9.634
24757WAT     H174513   0.396   0.719   9.729
24757WAT     H274514   0.313   0.750   9.591
24758WAT      O74515   9.456   5.578   0.345
24758WAT     H174516   9.357   5.590   0.353
24758WAT     H274517   9.482   5.584   0.248
24759WAT      O74518   3.394   1.296   5.343
24759WAT     H174519   3.395   1.381   5.396
24759WAT     H274520   3.300   1.260   5.339
24760WAT      O74521   8.166   9.278   6.050
24760WAT     H174522   8.146   9.279   6.148
24760WAT     H274523   8.255   9.321   6.034
24761WAT      O74524   8.536   7.129   9.346
24761WAT     H174525   8.442   7.163   9.354
24761WAT     H274526   8.541   7.034   9.376
24762WAT      O74527   8.380   5.020   4.414
24762WAT     H174528   8.298   4.993   4.464
24762WAT     H274529   8.446   5.061   4.477
24763WAT      O74530   6.857   1.446   5.453
24763WAT     H174531   6.786   1.394   5.407
24763WAT     H274532   6.818   1.529   5.493
24764WAT      O74533   1.536   3.688   2.259
24764WAT     H174534   1.545   3.591   2.280
24764WAT     H274535   1.440   3.715   2.265
24765WAT      O74536   8.179   5.850   3.931
24765WAT     H174537   8.085   5.831   3.960
24765WAT     H274538   8.224   5.764   3.907
24766WAT      O74539   2.452   7.806   1.790
24766WAT     H174540   2.415   7.775   1.703
24766WAT     H274541   2.415   7.749   1.864
24767WAT      O74542   3.190   4.801   4.623
24767WAT     H174543   3.105   4.748   4.617
24767WAT     H274544   3.199   4.860   4.543
24768WAT      O74545   6.055   0.651   7.859
24768WAT     H174546   6.044   0.552   7.872
24768WAT     H274547   6.152   0.675   7.858
24769WAT      O74548   0.039   4.798   9.767
24769WAT     H174549   0.012   4.860   9.694
24769WAT     H274550  -0.004   4.827   9.853
24770WAT      O74551   7.092   3.423   2.335
24770WAT     H174552   7.190   3.402   2.332
24770WAT     H274553   7.080   3.516   2.370
24771WAT      O74554   6.499   8.470   2.636
24771WAT     H174555   6.415   8.425   2.667
24771WAT     H274556   6.490   8.496   2.540
24772WAT      O74557   8.124   7.321   8.898
24772WAT     H174558   8.145   7.401   8.842
24772WAT     H274559   8.200   7.256   8.894
24773WAT      O74560   7.814   9.527   7.727
24773WAT     H174561   7.774   9.618   7.738
24773WAT     H274562   7.808   9.477   7.813
24774WAT      O74563   6.292   1.888   3.598
24774WAT     H174564   6.263   1.839   3.680
24774WAT     H274565   6.372   1.843   3.558
24775WAT      O74566   5.665   4.411   2.026
24775WAT     H174567   5.691   4.317   2.006
24775WAT     H274568   5.726   4.449   2.095
24776WAT      O74569   8.194   6.539   6.357
24776WAT     H174570   8.249   6.617   6.327
24776WAT     H274571   8.123   6.571   6.419
24777WAT      O74572   4.184   8.563   9.137
24777WAT     H174573   4.187   8.598   9.044
24777WAT     H274574   4.093   8.525   9.155
24778WAT      O74575   2.017   2.558   8.862
24778WAT     H174576   1.988   2.653   8.847
24778WAT     H274577   2.110   2.557   8.899
24779WAT      O74578   3.264   8.223   9.568
24779WAT     H174579   3.208   8.306   9.575
24779WAT     H274580   3.227   8.152   9.629
24780WAT      O74581   1.114   5.135   1.119
24780WAT     H174582   1.036   5.083   1.084
24780WAT     H274583   1.126   5.218   1.064
24781WAT      O74584   7.776   6.671   3.707
24781WAT     H174585   7.702   6.657   3.773
24781WAT     H274586   7.769   6.605   3.633
24782WAT      O74587   1.562   9.363   0.467
24782WAT     H174588   1.582   9.410   0.380
24782WAT     H274589   1.464   9.367   0.484
24783WAT      O74590   5.333   3.718   6.085
24783WAT     H174591   5.294   3.650   6.023
24783WAT     H274592   5.306   3.809   6.056
24784WAT      O74593   7.341   8.408   2.309
24784WAT     H174594   7.356   8.506   2.302
24784WAT     H274595   7.429   8.360   2.311
24785WAT      O74596   5.446   7.609   8.486
24785WAT     H174597   5.526   7.621   8.427
24785WAT     H274598   5.365   7.594   8.429
24786WAT      O74599   9.135   5.973   0.237
24786WAT     H174600   9.224   5.965   0.280
24786WAT     H274601   9.120   6.068   0.209
24787WAT      O74602   2.614   8.719   5.536
24787WAT     H174603   2.521   8.756   5.537
24787WAT     H274604   2.671   8.770   5.600
24788WAT      O74605   8.530   0.342   6.829
24788WAT     H174606   8.575   0.294   6.905
24788WAT     H274607   8.572   0.432   6.817
24789WAT      O74608   4.637   8.083   8.743
24789WAT     H174609   4.712   8.056   8.682
24789WAT     H274610   4.595   8.167   8.708
24790WAT      O74611   6.403   7.017   9.650
24790WAT     H174612   6.344   7.021   9.730
24790WAT     H274613   6.393   7.100   9.596
24791WAT      O74614   5.721   2.710   4.903
24791WAT     H174615   5.622   2.698   4.898
24791WAT     H274616   5.763   2.677   4.819
24792WAT      O74617   9.310   0.562   5.501
24792WAT     H174618   9.343   0.571   5.407
24792WAT     H274619   9.335   0.473   5.537
24793WAT      O74620   1.221   7.019   8.859
24793WAT     H174621   1.247   7.114   8.875
24793WAT     H274622   1.148   7.015   8.790
24794WAT      O74623   4.151   6.003   3.051
24794WAT     H174624   4.066   5.951   3.053
24794WAT     H274625   4.181   6.014   2.956
24795WAT      O74626   3.083   2.176   9.675
24795WAT     H174627   2.996   2.227   9.674
24795WAT     H274628   3.065   2.079   9.663
24796WAT      O74629   7.988   5.390   6.997
24796WAT     H174630   8.044   5.471   7.019
24796WAT     H274631   7.958   5.396   6.902
24797WAT      O74632   5.759   7.936   7.542
24797WAT     H174633   5.773   8.007   7.473
24797WAT     H274634   5.702   7.863   7.504
24798WAT      O74635   6.746   5.200   8.975
24798WAT     H174636   6.650   5.228   8.982
24798WAT     H274637   6.755   5.128   8.907
24799WAT      O74638   5.430   6.072   6.666
24799WAT     H174639   5.428   6.133   6.587
24799WAT     H274640   5.392   6.119   6.745
24800WAT      O74641   8.591   6.585   5.412
24800WAT     H174642   8.505   6.596   5.461
24800WAT     H274643   8.583   6.510   5.347
24801WAT      O74644   0.136   3.561   5.539
24801WAT     H174645   0.082   3.579   5.621
24801WAT     H274646   0.231   3.587   5.555
24802WAT      O74647   4.881   6.293   2.749
24802WAT     H174648   4.974   6.307   2.784
24802WAT     H274649   4.884   6.290   2.649
24803WAT      O74650   9.791   6.532   0.494
24803WAT     H174651   9.801   6.607   0.559
24803WAT     H274652   9.776   6.447   0.544
24804WAT      O74653   6.402   2.036   2.191
24804WAT     H174654   6.442   2.102   2.253
24804WAT     H274655   6.338   2.083   2.129
24805WAT      O74656   8.632   5.754   1.329
24805WAT     H174657   8.627   5.681   1.261
24805WAT     H274658   8.701   5.821   1.302
24806WAT      O74659   9.237   0.459   3.506
24806WAT     H174660   9.331   0.456   3.473
24806WAT     H274661   9.233   0.505   3.595
24807WAT      O74662   8.619   7.935   1.123
24807WAT     H174663   8.642   8.017   1.071
24807WAT     H274664   8.587   7.961   1.214
24808WAT      O74665   4.409   7.904   9.832
24808WAT     H174666   4.417   7.877   9.736
24808WAT     H274667   4.466   7.845   9.889
24809WAT      O74668   5.775   1.112   5.324
24809WAT     H174669   5.826   1.028   5.341
24809WAT     H274670   5.753   1.157   5.411
24810WAT      O74671   6.286   6.598   0.961
24810WAT     H174672   6.202   6.649   0.980
24810WAT     H274673   6.285   6.567   0.866
24811WAT      O74674   2.295   2.936   5.232
24811WAT     H174675   2.225   2.866   5.249
24811WAT     H274676   2.258   3.026   5.252
24812WAT      O74677   6.999   3.697   0.777
24812WAT     H174678   7.085   3.715   0.730
24812WAT     H274679   6.927   3.676   0.710
24813WAT      O74680   5.143   3.271   4.438
24813WAT     H174681   5.160   3.366   4.412
24813WAT     H274682   5.224   3.216   4.420
24814WAT      O74683   5.188   8.011   6.193
24814WAT     H174684   5.224   8.023   6.285
24814WAT     H274685   5.243   8.063   6.128
24815WAT      O74686   9.722   8.683   1.219
24815WAT     H174687   9.813   8.678   1.178
24815WAT     H274688   9.719   8.759   1.283
24816WAT      O74689   6.892   4.245   4.505
24816WAT     H174690   6.890   4.214   4.410
24816WAT     H274691   6.799   4.248   4.542
24817WAT      O74692   6.467   4.946   0.635
24817WAT     H174693   6.485   4.953   0.733
24817WAT     H274694   6.374   4.978   0.615
24818WAT      O74695   9.347   2.744   5.083
24818WAT     H174696   9.442   2.726   5.110
24818WAT     H274697   9.291   2.663   5.100
24819WAT      O74698   5.815   2.659   9.676
24819WAT     H174699   5.812   2.748   9.722
24819WAT     H274700   5.786   2.587   9.740
24820WAT      O74701   7.947   4.358   3.493
24820WAT     H174702   8.018   4.291   3.471
24820WAT     H274703   7.877   4.314   3.549
24821WAT      O74704   8.884   8.331   4.817
24821WAT     H174705   8.938   8.331   4.901
24821WAT     H274706   8.797   8.378   4.832
24822WAT      O74707   1.751   7.084   2.883
24822WAT     H174708   1.819   7.088   2.810
24822WAT     H274709   1.777   7.147   2.956
24823WAT      O74710   9.321   5.620   7.343
24823WAT     H174711   9.342   5.703   7.292
24823WAT     H274712   9.378   5.616   7.425
24824WAT      O74713   2.638   6.247   4.600
24824WAT     H174714   2.735   6.241   4.577
24824WAT     H274715   2.628   6.268   4.697
24825WAT      O74716   3.658   0.200   1.282
24825WAT     H174717   3.610   0.128   1.333
24825WAT     H274718   3.612   0.288   1.296
24826WAT      O74719   2.062   2.379   1.546
24826WAT     H174720   1.991   2.425   1.600
24826WAT     H274721   2.076   2.430   1.461
24827WAT      O74722   7.314   5.919   3.001
24827WAT     H174723   7.326   5.946   3.097
24827WAT     H274724   7.227   5.954   2.967
24828WAT      O74725   7.833   8.379   3.310
24828WAT     H174726   7.783   8.456   3.348
24828WAT     H274727   7.782   8.341   3.233
24829WAT      O74728   7.589   5.077   3.029
24829WAT     H174729   7.533   5.149   2.988
24829WAT     H274730   7.588   4.997   2.969
24830WAT      O74731   1.724   4.737   5.995
24830WAT     H174732   1.732   4.756   6.092
24830WAT     H274733   1.812   4.752   5.950
24831WAT      O74734   5.893   3.416   3.440
24831WAT     H174735   5.971   3.383   3.386
24831WAT     H274736   5.840   3.482   3.386
24832WAT      O74737   1.523   5.967   3.329
24832WAT     H174738   1.562   5.898   3.269
24832WAT     H274739   1.583   5.980   3.408
24833WAT      O74740   3.991   3.390   5.409
24833WAT     H174741   3.985   3.423   5.315
24833WAT     H274742   3.924   3.438   5.465
24834WAT      O74743   8.813   2.907   0.156
24834WAT     H174744   8.864   2.864   0.081
24834WAT     H274745   8.843   3.002   0.166
24835WAT      O74746   3.391   4.623   3.923
24835WAT     H174747   3.344   4.553   3.977
24835WAT     H274748   3.361   4.714   3.953
24836WAT      O74749   7.547   4.046   5.522
24836WAT     H174750   7.543   4.115   5.450
24836WAT     H274751   7.584   4.087   5.605
24837WAT      O74752   2.464   7.657   5.595
24837WAT     H174753   2.421   7.718   5.662
24837WAT     H274754   2.395   7.593   5.560
24838WAT      O74755   2.408   8.258   8.212
24838WAT     H174756   2.504   8.252   8.238
24838WAT     H274757   2.400   8.269   8.113
24839WAT      O74758   7.907   2.378   0.992
24839WAT     H174759   7.818   2.419   1.013
24839WAT     H274760   7.898   2.320   0.911
24840WAT      O74761   5.062   0.060   1.758
24840WAT     H174762   5.025   0.027   1.845
24840WAT     H274763   5.057  -0.013   1.690
24841WAT      O74764   4.561   9.005   8.275
24841WAT     H174765   4.617   9.071   8.226
24841WAT     H274766   4.586   9.006   8.372
24842WAT      O74767   7.691   3.462   2.730
24842WAT     H174768   7.601   3.470   2.686
24842WAT     H274769   7.687   3.393   2.802
24843WAT      O74770   6.779   3.429   6.078
24843WAT     H174771   6.802   3.488   6.155
24843WAT     H274772   6.863   3.389   6.041
24844WAT      O74773   1.602   6.148   1.934
24844WAT     H174774   1.659   6.066   1.941
24844WAT     H274775   1.507   6.124   1.954
24845WAT      O74776   8.219   6.364   9.057
24845WAT     H174777   8.190   6.366   8.962
24845WAT     H274778   8.289   6.294   9.069
24846WAT      O74779   0.197   4.245   3.411
24846WAT     H174780   0.109   4.246   3.364
24846WAT     H274781   0.184   4.215   3.505
24847WAT      O74782   4.352   7.925   1.262
24847WAT     H174783   4.282   7.977   1.312
24847WAT     H274784   4.346   7.829   1.287
24848WAT      O74785   3.925   8.358   8.700
24848WAT     H174786   4.002   8.295   8.699
24848WAT     H274787   3.923   8.406   8.787
24849WAT      O74788   1.981   6.306   5.677
24849WAT     H174789   1.930   6.306   5.763
24849WAT     H274790   1.953   6.385   5.622
24850WAT      O74791   1.446   6.315   3.017
24850WAT     H174792   1.392   6.231   3.009
24850WAT     H274793   1.542   6.294   2.999
24851WAT      O74794   6.149   6.711   2.615
24851WAT     H174795   6.176   6.619   2.644
24851WAT     H274796   6.172   6.777   2.686
24852WAT      O74797   5.936   1.815   2.052
24852WAT     H174798   5.943   1.751   2.128
24852WAT     H274799   6.027   1.842   2.022
24853WAT      O74800   0.542   6.058   9.708
24853WAT     H174801   0.466   6.095   9.655
24853WAT     H274802   0.515   5.970   9.748
24854WAT      O74803   7.356   6.299   1.301
24854WAT     H174804   7.291   6.290   1.226
24854WAT     H274805   7.324   6.246   1.379
24855WAT      O74806   3.405   5.459   7.887
24855WAT     H174807   3.438   5.539   7.938
24855WAT     H274808   3.390   5.484   7.792
24856WAT      O74809   7.252   4.361   7.483
24856WAT     H174810   7.166   4.388   7.439
24856WAT     H274811   7.314   4.439   7.486
24857WAT      O74812   2.429   4.649   8.787
24857WAT     H174813   2.416   4.665   8.885
24857WAT     H274814   2.341   4.660   8.740
24858WAT      O74815   1.238   7.304   2.086
24858WAT     H174816   1.305   7.297   2.159
24858WAT     H274817   1.148   7.326   2.125
24859WAT      O74818   8.633   1.115   2.731
24859WAT     H174819   8.709   1.176   2.709
24859WAT     H274820   8.596   1.139   2.820
24860WAT      O74821   6.777   7.817   2.667
24860WAT     H174822   6.768   7.914   2.646
24860WAT     H274823   6.873   7.789   2.657
24861WAT      O74824   2.009   3.563   0.370
24861WAT     H174825   1.915   3.562   0.404
24861WAT     H274826   2.048   3.471   0.379
24862WAT      O74827   5.257   0.469   9.317
24862WAT     H174828   5.323   0.538   9.288
24862WAT     H274829   5.175   0.515   9.353
24863WAT      O74830   6.205   5.393   4.606
24863WAT     H174831   6.183   5.404   4.703
24863WAT     H274832   6.122   5.372   4.555
24864WAT      O74833   8.774   5.205   6.010
24864WAT     H174834   8.842   5.142   5.972
24864WAT     H274835   8.821   5.280   6.056
24865WAT      O74836   6.445   3.909   1.082
24865WAT     H174837   6.481   3.996   1.050
24865WAT     H274838   6.389   3.868   1.010
24866WAT      O74839   5.190   1.034   2.717
24866WAT     H174840   5.252   1.081   2.654
24866WAT     H274841   5.196   1.077   2.807
24867WAT      O74842   7.402   5.538   7.765
24867WAT     H174843   7.442   5.570   7.850
24867WAT     H274844   7.310   5.578   7.754
24868WAT      O74845   8.871   9.137   1.124
24868WAT     H174846   8.937   9.182   1.064
24868WAT     H274847   8.872   9.180   1.214
24869WAT      O74848   5.854   9.839   0.436
24869WAT     H174849   5.837   9.845   0.338
24869WAT     H274850   5.948   9.867   0.456
24870WAT      O74851   0.815   7.532   3.330
24870WAT     H174852   0.767   7.455   3.287
24870WAT     H274853   0.749   7.594   3.371
24871WAT      O74854   7.154   7.843   0.858
24871WAT     H174855   7.124   7.748   0.875
24871WAT     H274856   7.161   7.891   0.945
24872WAT      O74857   5.229   3.524   1.489
24872WAT     H174858   5.297   3.579   1.441
24872WAT     H274859   5.138   3.553   1.462
24873WAT      O74860   7.503   6.995   2.936
24873WAT     H174861   7.485   7.092   2.922
24873WAT     H274862   7.601   6.979   2.938
24874WAT      O74863   3.894   8.758   3.110
24874WAT     H174864   3.868   8.753   3.206
24874WAT     H274865   3.992   8.744   3.101
24875WAT      O74866   1.785   8.402   2.312
24875WAT     H174867   1.748   8.352   2.234
24875WAT     H274868   1.823   8.489   2.281
24876WAT      O74869   0.443   1.183   2.968
24876WAT     H174870   0.423   1.158   2.874
24876WAT     H274871   0.422   1.106   3.029
24877WAT      O74872   2.204   1.565   4.127
24877WAT     H174873   2.261   1.645   4.143
24877WAT     H274874   2.245   1.484   4.170
24878WAT      O74875   5.950   1.115   0.461
24878WAT     H174876   5.955   1.052   0.538
24878WAT     H274877   5.970   1.208   0.493
24879WAT      O74878   9.465   1.188   7.918
24879WAT     H174879   9.418   1.275   7.931
24879WAT     H274880   9.556   1.206   7.880
24880WAT      O74881   8.741   3.466   7.482
24880WAT     H174882   8.692   3.540   7.436
24880WAT     H274883   8.827   3.448   7.433
24881WAT      O74884   8.358   9.325   1.538
24881WAT     H174885   8.353   9.389   1.615
24881WAT     H274886   8.266   9.298   1.511
24882WAT      O74887   2.511   0.721   9.074
24882WAT     H174888   2.535   0.817   9.061
24882WAT     H274889   2.416   0.706   9.046
24883WAT      O74890   7.849   0.905   9.173
24883WAT     H174891   7.758   0.903   9.214
24883WAT     H274892   7.846   0.959   9.089
24884WAT      O74893   8.682   6.983   5.339
24884WAT     H174894   8.708   7.062   5.394
24884WAT     H274895   8.669   6.903   5.398
24885WAT      O74896   7.690   8.031   8.919
24885WAT     H174897   7.696   8.019   9.018
24885WAT     H274898   7.605   8.078   8.896
24886WAT      O74899   4.395   4.885   2.992
24886WAT     H174900   4.325   4.826   3.032
24886WAT     H274901   4.485   4.853   3.021
24887WAT      O74902   3.388   2.625   6.681
24887WAT     H174903   3.456   2.554   6.664
24887WAT     H274904   3.418   2.683   6.757
24888WAT      O74905   7.452   2.762   1.976
24888WAT     H174906   7.477   2.773   2.072
24888WAT     H274907   7.448   2.665   1.953
24889WAT      O74908   2.546   1.582   9.410
24889WAT     H174909   2.549   1.492   9.366
24889WAT     H274910   2.584   1.576   9.502
24890WAT      O74911   0.581   1.960   5.017
24890WAT     H174912   0.556   2.003   4.930
24890WAT     H274913   0.617   2.030   5.080
24891WAT      O74914   3.779   5.197   8.522
24891WAT     H174915   3.710   5.209   8.451
24891WAT     H274916   3.824   5.109   8.510
24892WAT      O74917   3.915   7.433   5.036
24892WAT     H174918   3.906   7.470   5.128
24892WAT     H274919   3.825   7.408   5.001
24893WAT      O74920   0.390   8.624   7.471
24893WAT     H174921   0.468   8.566   7.494
24893WAT     H274922   0.417   8.690   7.401
24894WAT      O74923   4.535   4.137   9.585
24894WAT     H174924   4.583   4.204   9.529
24894WAT     H274925   4.439   4.132   9.558
24895WAT      O74926   4.629   1.807   1.901
24895WAT     H174927   4.617   1.737   1.831
24895WAT     H274928   4.606   1.897   1.864
24896WAT      O74929   6.636   0.189   1.487
24896WAT     H174930   6.701   0.143   1.426
24896WAT     H274931   6.584   0.257   1.435
24897WAT      O74932   6.598   0.957   8.589
24897WAT     H174933   6.538   0.960   8.669
24897WAT     H274934   6.693   0.965   8.618
24898WAT      O74935   4.312   0.714   6.654
24898WAT     H174936   4.386   0.737   6.592
24898WAT     H274937   4.315   0.776   6.733
24899WAT      O74938   5.911   6.330   4.732
24899WAT     H174939   5.872   6.343   4.641
24899WAT     H274940   5.865   6.254   4.778
24900WAT      O74941   6.639   0.473   1.850
24900WAT     H174942   6.708   0.429   1.792
24900WAT     H274943   6.677   0.489   1.941
24901WAT      O74944   8.499   1.950   5.447
24901WAT     H174945   8.523   2.035   5.494
24901WAT     H274946   8.460   1.885   5.512
24902WAT      O74947   1.274   7.997   1.556
24902WAT     H174948   1.298   7.900   1.556
24902WAT     H274949   1.337   8.046   1.618
24903WAT      O74950   1.737   5.439   1.182
24903WAT     H174951   1.673   5.427   1.107
24903WAT     H274952   1.698   5.500   1.250
24904WAT      O74953   6.834   4.095   7.733
24904WAT     H174954   6.929   4.099   7.702
24904WAT     H274955   6.777   4.058   7.659
24905WAT      O74956   2.034   0.834   9.342
24905WAT     H174957   2.076   0.924   9.333
24905WAT     H274958   2.099   0.770   9.384
24906WAT      O74959   8.644   8.055   2.125
24906WAT     H174960   8.585   7.975   2.139
24906WAT     H274961   8.738   8.033   2.153
24907WAT      O74962   8.832   8.888   9.285
24907WAT     H174963   8.886   8.972   9.290
24907WAT     H274964   8.878   8.816   9.336
24908WAT      O74965   0.188   9.595   7.541
24908WAT     H174966   0.157   9.522   7.601
24908WAT     H274967   0.119   9.613   7.472
24909WAT      O74968   1.983   7.702   9.247
24909WAT     H174969   2.049   7.639   9.207
24909WAT     H274970   1.967   7.779   9.186
24910WAT      O74971   1.667   5.822   2.712
24910WAT     H174972   1.651   5.723   2.702
24910WAT     H274973   1.650   5.867   2.625
24911WAT      O74974   9.411   9.651   9.655
24911WAT     H174975   9.392   9.555   9.638
24911WAT     H274976   9.383   9.675   9.748
24912WAT      O74977   0.538   3.390   7.721
24912WAT     H174978   0.536   3.396   7.821
24912WAT     H274979   0.481   3.462   7.682
24913WAT      O74980   7.869   7.967   6.951
24913WAT     H174981   7.806   7.896   6.919
24913WAT     H274982   7.924   8.000   6.874
24914WAT      O74983   4.844   8.787   5.612
24914WAT     H174984   4.790   8.802   5.695
24914WAT     H274985   4.894   8.701   5.620
24915WAT      O74986   9.027   5.226   6.697
24915WAT     H174987   8.949   5.283   6.671
24915WAT     H274988   8.995   5.150   6.753
24916WAT      O74989   3.386   1.659   5.765
24916WAT     H174990   3.388   1.709   5.851
24916WAT     H274991   3.341   1.715   5.695
24917WAT      O74992   5.291   6.696   1.464
24917WAT     H174993   5.273   6.653   1.552
24917WAT     H274994   5.364   6.646   1.417
24918WAT      O74995   9.434   3.786   9.259
24918WAT     H174996   9.432   3.802   9.357
24918WAT     H274997   9.343   3.801   9.220
24919WAT      O74998   3.022   8.048   0.446
24919WAT     H174999   2.943   8.001   0.486
24919WAT     H275000   2.989   8.119   0.383
24920WAT      O75001   9.654   5.553   5.007
24920WAT     H175002   9.641   5.637   5.060
24920WAT     H275003   9.566   5.522   4.971
24921WAT      O75004   6.520   0.007   7.888
24921WAT     H175005   6.436   0.023   7.835
24921WAT     H275006   6.498   0.006   7.986
24922WAT      O75007   0.775   6.587   7.147
24922WAT     H175008   0.745   6.637   7.066
24922WAT     H275009   0.700   6.532   7.183
24923WAT      O75010   1.086   3.858   2.966
24923WAT     H175011   1.102   3.823   3.058
24923WAT     H275012   1.017   3.801   2.920
24924WAT      O75013   4.919   4.991   9.473
24924WAT     H175014   4.947   4.921   9.406
24924WAT     H275015   4.989   5.000   9.543
24925WAT      O75016   4.717   8.715   2.238
24925WAT     H175017   4.813   8.698   2.214
24925WAT     H275018   4.682   8.791   2.182
24926WAT      O75019   9.664   4.558   4.073
24926WAT     H175020   9.626   4.629   4.132
24926WAT     H275021   9.663   4.471   4.122
24927WAT      O75022   6.612   4.411   3.336
24927WAT     H175023   6.620   4.387   3.433
24927WAT     H275024   6.526   4.375   3.300
24928WAT      O75025   9.504   3.469   1.438
24928WAT     H175026   9.436   3.401   1.414
24928WAT     H275027   9.462   3.560   1.439
24929WAT      O75028   4.766   7.962   9.397
24929WAT     H175029   4.709   8.036   9.435
24929WAT     H275030   4.727   7.874   9.423
24930WAT      O75031   5.318   9.427   1.952
24930WAT     H175032   5.319   9.526   1.969
24930WAT     H275033   5.269   9.409   1.866
24931WAT      O75034   4.680   1.948   8.705
24931WAT     H175035   4.638   1.986   8.623
24931WAT     H275036   4.619   1.962   8.783
24932WAT      O75037   0.089   0.490   6.630
24932WAT     H175038   0.143   0.467   6.711
24932WAT     H275039   0.008   0.431   6.626
24933WAT      O75040   5.905   2.465   9.286
24933WAT     H175041   5.928   2.556   9.321
24933WAT     H275042   5.827   2.473   9.223
24934WAT      O75043   9.663   1.975   7.659
24934WAT     H175044   9.659   1.924   7.745
24934WAT     H275045   9.752   1.961   7.616
24935WAT      O75046   7.077   4.991   1.698
24935WAT     H175047   7.125   5.011   1.613
24935WAT     H275048   7.005   4.924   1.681
24936WAT      O75049   8.566   3.378   5.889
24936WAT     H175050   8.470   3.373   5.860
24936WAT     H275051   8.584   3.468   5.930
24937WAT      O75052   5.726   7.408   8.879
24937WAT     H175053   5.741   7.321   8.831
24937WAT     H275054   5.655   7.460   8.831
24938WAT      O75055   7.898   8.539   9.362
24938WAT     H175056   7.834   8.517   9.288
24938WAT     H275057   7.991   8.514   9.334
24939WAT      O75058   7.228   3.912   6.786
24939WAT     H175059   7.155   3.871   6.730
24939WAT     H275060   7.186   3.961   6.863
24940WAT      O75061   2.994   5.230   6.732
24940WAT     H175062   2.971   5.135   6.753
24940WAT     H275063   3.088   5.234   6.698
24941WAT      O75064   9.516   8.290   8.408
24941WAT     H175065   9.569   8.209   8.384
24941WAT     H275066   9.572   8.351   8.464
24942WAT      O75067   2.885   4.039   0.287
24942WAT     H175068   2.786   4.030   0.281
24942WAT     H275069   2.920   4.082   0.203
24943WAT      O75070   3.168   7.477   2.478
24943WAT     H175071   3.110   7.396   2.486
24943WAT     H275072   3.173   7.523   2.566
24944WAT      O75073   4.857   4.805   0.037
24944WAT     H175074   4.769   4.850   0.020
24944WAT     H275075   4.915   4.817  -0.044
24945WAT      O75076   6.672   8.710   1.019
24945WAT     H175077   6.712   8.801   1.026
24945WAT     H275078   6.574   8.716   1.038
24946WAT      O75079   7.156   2.090   6.343
24946WAT     H175080   7.203   2.174   6.316
24946WAT     H275081   7.073   2.113   6.395
24947WAT      O75082   2.876   8.802   5.943
24947WAT     H175083   2.922   8.736   6.002
24947WAT     H275084   2.945   8.851   5.889
24948WAT      O75085   9.093   5.418   6.369
24948WAT     H175086   9.106   5.508   6.327
24948WAT     H275087   9.138   5.417   6.458
24949WAT      O75088   0.472   2.564   8.824
24949WAT     H175089   0.373   2.572   8.830
24949WAT     H275090   0.510   2.646   8.781
24950WAT      O75091   2.984   7.589   0.243
24950WAT     H175092   3.024   7.609   0.333
24950WAT     H275093   2.930   7.505   0.249
24951WAT      O75094   0.975   9.780   0.504
24951WAT     H175095   0.998   9.699   0.450
24951WAT     H275096   1.055   9.838   0.515
24952WAT      O75097   7.169   3.669   8.370
24952WAT     H175098   7.162   3.741   8.302
24952WAT     H275099   7.079   3.628   8.385
24953WAT      O75100   7.050   1.915   1.793
24953WAT     H175101   6.974   1.895   1.731
24953WAT     H275102   7.106   1.833   1.805
24954WAT      O75103   7.033   8.216   3.063
24954WAT     H175104   7.106   8.283   3.075
24954WAT     H275105   6.944   8.263   3.071
24955WAT      O75106   8.800   1.910   8.057
24955WAT     H175107   8.850   1.838   8.106
24955WAT     H275108   8.729   1.869   8.000
24956WAT      O75109   7.164   9.610   8.002
24956WAT     H175110   7.174   9.579   7.908
24956WAT     H275111   7.119   9.539   8.057
24957WAT      O75112   3.260   1.542   7.466
24957WAT     H175113   3.190   1.614   7.468
24957WAT     H275114   3.322   1.555   7.544
24958WAT      O75115   6.977   8.337   8.927
24958WAT     H175116   6.985   8.404   9.001
24958WAT     H275117   6.899   8.361   8.869
24959WAT      O75118   2.985   4.215   2.315
24959WAT     H175119   2.917   4.196   2.244
24959WAT     H275120   3.075   4.182   2.286
24960WAT      O75121   2.059   0.011   1.666
24960WAT     H175122   2.057   0.108   1.690
24960WAT     H275123   2.154  -0.020   1.660
24961WAT      O75124   2.462   5.728   1.181
24961WAT     H175125   2.529   5.760   1.114
24961WAT     H275126   2.382   5.787   1.179
24962WAT      O75127   2.274   4.742   4.076
24962WAT     H175128   2.222   4.657   4.069
24962WAT     H275129   2.369   4.725   4.048
24963WAT      O75130   9.566   3.249   8.092
24963WAT     H175131   9.550   3.153   8.067
24963WAT     H275132   9.538   3.264   8.187
24964WAT      O75133   3.755   6.072   0.370
24964WAT     H175134   3.805   6.013   0.307
24964WAT     H275135   3.689   6.128   0.319
24965WAT      O75136   3.664   4.220   1.222
24965WAT     H175137   3.649   4.317   1.245
24965WAT     H275138   3.612   4.163   1.286
24966WAT      O75139   9.463   0.372   3.915
24966WAT     H175140   9.376   0.343   3.956
24966WAT     H275141   9.492   0.305   3.848
24967WAT      O75142   2.568   5.936   0.211
24967WAT     H175143   2.484   5.932   0.157
24967WAT     H275144   2.545   5.951   0.307
24968WAT      O75145   4.857   2.911   3.556
24968WAT     H175146   4.865   2.983   3.625
24968WAT     H275147   4.768   2.866   3.565
24969WAT      O75148   2.078   2.312   0.186
24969WAT     H175149   2.015   2.386   0.164
24969WAT     H275150   2.142   2.343   0.256
24970WAT      O75151   8.752   5.658   6.190
24970WAT     H175152   8.652   5.659   6.195
24970WAT     H275153   8.785   5.751   6.178
24971WAT      O75154   1.372   7.756   1.586
24971WAT     H175155   1.436   7.732   1.659
24971WAT     H275156   1.290   7.699   1.593
24972WAT      O75157   4.481   6.985   0.570
24972WAT     H175158   4.576   6.960   0.587
24972WAT     H275159   4.449   7.047   0.642
24973WAT      O75160   8.280   3.928   2.173
24973WAT     H175161   8.225   3.936   2.256
24973WAT     H275162   8.277   4.014   2.123
24974WAT      O75163   1.768   9.440   9.889
24974WAT     H175164   1.788   9.344   9.866
24974WAT     H275165   1.679   9.445   9.933
24975WAT      O75166   4.764   5.769   2.597
24975WAT     H175167   4.719   5.828   2.531
24975WAT     H275168   4.716   5.774   2.685
24976WAT      O75169   7.142   9.456   1.984
24976WAT     H175170   7.088   9.508   2.050
24976WAT     H275171   7.162   9.513   1.905
24977WAT      O75172   6.656   1.351   9.550
24977WAT     H175173   6.656   1.333   9.648
24977WAT     H275174   6.612   1.274   9.503
24978WAT      O75175   7.543   1.709   7.428
24978WAT     H175176   7.618   1.717   7.493
24978WAT     H275177   7.539   1.615   7.393
24979WAT      O75178   4.492   9.277   1.435
24979WAT     H175179   4.465   9.289   1.339
24979WAT     H275180   4.414   9.298   1.494
24980WAT      O75181   9.660   3.500   0.600
24980WAT     H175182   9.578   3.447   0.581
24980WAT     H275183   9.738   3.460   0.553
24981WAT      O75184   7.221   3.907   1.665
24981WAT     H175185   7.183   3.917   1.573
24981WAT     H275186   7.316   3.878   1.658
24982WAT      O75187   6.605   2.626   1.548
24982WAT     H175188   6.545   2.683   1.604
24982WAT     H275189   6.656   2.563   1.607
24983WAT      O75190   2.120   2.039   0.622
24983WAT     H175191   2.158   2.101   0.690
24983WAT     H275192   2.179   1.959   0.613
24984WAT      O75193   6.992   1.346   8.938
24984WAT     H175194   7.028   1.256   8.912
24984WAT     H275195   6.892   1.343   8.937
24985WAT      O75196   1.645   3.342   1.019
24985WAT     H175197   1.715   3.356   1.089
24985WAT     H275198   1.600   3.429   1.000
24986WAT      O75199   1.072   7.164   5.808
24986WAT     H175200   0.994   7.139   5.751
24986WAT     H275201   1.130   7.084   5.822
24987WAT      O75202   6.109   3.014   9.523
24987WAT     H175203   6.102   3.091   9.459
24987WAT     H275204   6.022   2.965   9.526
24988WAT      O75205   4.786   4.887   9.033
24988WAT     H175206   4.689   4.912   9.022
24988WAT     H275207   4.832   4.891   8.945
24989WAT      O75208   7.338   3.313   2.941
24989WAT     H175209   7.434   3.314   2.914
24989WAT     H275210   7.308   3.407   2.959
24990WAT      O75211   3.739   8.919   4.769
24990WAT     H175212   3.793   8.965   4.699
24990WAT     H275213   3.672   8.859   4.726
24991WAT      O75214   3.125   3.591   5.855
24991WAT     H175215   3.040   3.626   5.895
24991WAT     H275216   3.199   3.656   5.873
24992WAT      O75217   6.952   1.056   1.405
24992WAT     H175218   6.951   1.118   1.326
24992WAT     H275219   7.037   1.068   1.456
24993WAT      O75220   2.995   8.184   2.720
24993WAT     H175221   2.928   8.218   2.654
24993WAT     H275222   3.062   8.126   2.672
24994WAT      O75223   4.449   6.751   7.795
24994WAT     H175224   4.507   6.814   7.744
24994WAT     H275225   4.353   6.771   7.775
24995WAT      O75226   0.286   8.493   2.145
24995WAT     H175227   0.239   8.468   2.061
24995WAT     H275228   0.341   8.415   2.176
24996WAT      O75229   7.006   3.889   6.643
24996WAT     H175230   6.915   3.858   6.671
24996WAT     H275231   6.997   3.956   6.570
24997WAT      O75232   7.692   6.101   2.683
24997WAT     H175233   7.604   6.061   2.708
24997WAT     H275234   7.684   6.201   2.681
24998WAT      O75235   4.040   4.710   8.768
24998WAT     H175236   3.994   4.686   8.854
24998WAT     H275237   4.122   4.764   8.788
24999WAT      O75238   4.192   8.132   1.666
24999WAT     H175239   4.191   8.141   1.567
24999WAT     H275240   4.201   8.222   1.708
25000WAT      O75241   1.322   3.217   2.927
25000WAT     H175242   1.374   3.138   2.959
25000WAT     H275243   1.366   3.301   2.957
25001WAT      O75244   5.347   4.271   8.548
25001WAT     H175245   5.433   4.293   8.595
25001WAT     H275246   5.335   4.333   8.470
25002WAT      O75247   9.182   0.526   7.778
25002WAT     H175248   9.219   0.589   7.846
25002WAT     H275249   9.106   0.570   7.729
25003WAT      O75250   5.460   7.536   3.106
25003WAT     H175251   5.530   7.514   3.174
25003WAT     H275252   5.411   7.452   3.080
25004WAT      O75253   7.052   1.419   2.481
25004WAT     H175254   7.066   1.510   2.520
25004WAT     H275255   7.011   1.427   2.390
25005WAT      O75256   8.002   6.513   2.149
25005WAT     H175257   8.009   6.551   2.241
25005WAT     H275258   8.078   6.450   2.133
25006WAT      O75259   3.589   7.607   0.493
25006WAT     H175260   3.670   7.558   0.460
25006WAT     H275261   3.608   7.645   0.583
25007WAT      O75262   1.495   4.129   2.728
25007WAT     H175263   1.556   4.207   2.745
25007WAT     H275264   1.550   4.047   2.712
25008WAT      O75265   9.384   4.668   8.257
25008WAT     H175266   9.377   4.748   8.316
25008WAT     H275267   9.474   4.665   8.215
25009WAT      O75268   4.466   3.023   5.485
25009WAT     H175269   4.508   3.112   5.473
25009WAT     H275270   4.530   2.961   5.531
25010WAT      O75271   4.088   7.749   9.854
25010WAT     H175272   4.113   7.795   9.940
25010WAT     H275273   4.077   7.651   9.871
25011WAT      O75274   0.350   8.615   5.646
25011WAT     H175275   0.427   8.680   5.645
25011WAT     H275276   0.383   8.525   5.618
25012WAT      O75277   6.495   4.129   5.166
25012WAT     H175278   6.401   4.136   5.135
25012WAT     H275279   6.512   4.036   5.201
25013WAT      O75280   7.047   0.678   0.249
25013WAT     H175281   7.035   0.621   0.330
25013WAT     H275282   7.074   0.770   0.276
25014WAT      O75283   2.583   8.590   5.301
25014WAT     H175284   2.616   8.661   5.363
25014WAT     H275285   2.646   8.512   5.303
25015WAT      O75286   7.592   4.186   7.507
25015WAT     H175287   7.523   4.151   7.444
25015WAT     H275288   7.659   4.241   7.456
25016WAT      O75289   6.473   9.230   8.228
25016WAT     H175290   6.401   9.286   8.270
25016WAT     H275291   6.439   9.137   8.213
25017WAT      O75292   1.412   4.501   0.907
25017WAT     H175293   1.444   4.427   0.847
25017WAT     H275294   1.350   4.463   0.976
25018WAT      O75295   9.305   9.545   9.334
25018WAT     H175296   9.307   9.522   9.431
25018WAT     H275297   9.333   9.641   9.322
25019WAT      O75298   6.012   3.591   5.526
25019WAT     H175299   6.003   3.682   5.486
25019WAT     H275300   6.069   3.596   5.608
25020WAT      O75301   1.883   3.255   9.743
25020WAT     H175302   1.899   3.157   9.736
25020WAT     H275303   1.795   3.272   9.788
25021WAT      O75304   0.356   6.120   9.481
25021WAT     H175305   0.262   6.151   9.496
25021WAT     H275306   0.355   6.026   9.449
25022WAT      O75307   3.204   1.834   8.942
25022WAT     H175308   3.106   1.828   8.924
25022WAT     H275309   3.221   1.834   9.040
25023WAT      O75310   2.027   6.153   7.601
25023WAT     H175311   2.112   6.165   7.653
25023WAT     H275312   2.022   6.059   7.567
25024WAT      O75313   2.402   2.595   6.401
25024WAT     H175314   2.474   2.562   6.340
25024WAT     H275315   2.349   2.517   6.436
25025WAT      O75316   7.554   6.591   6.539
25025WAT     H175317   7.586   6.622   6.449
25025WAT     H275318   7.544   6.670   6.599
25026WAT      O75319   5.842   1.063   5.962
25026WAT     H175320   5.911   1.008   5.914
25026WAT     H275321   5.861   1.061   6.061
25027WAT      O75322   4.430   0.444   2.621
25027WAT     H175323   4.353   0.507   2.629
25027WAT     H275324   4.445   0.422   2.525
25028WAT      O75325   5.225   5.522   0.191
25028WAT     H175326   5.154   5.509   0.261
25028WAT     H275327   5.183   5.556   0.107
25029WAT      O75328   4.621   0.153   6.841
25029WAT     H175329   4.539   0.140   6.786
25029WAT     H275330   4.597   0.201   6.926
25030WAT      O75331   6.220   0.863   6.440
25030WAT     H175332   6.301   0.906   6.479
25030WAT     H275333   6.232   0.763   6.439
25031WAT      O75334   7.143   6.595   8.818
25031WAT     H175335   7.056   6.629   8.854
25031WAT     H275336   7.192   6.669   8.774
25032WAT      O75337   9.502   2.474   5.985
25032WAT     H175338   9.453   2.411   6.046
25032WAT     H275339   9.564   2.531   6.039
25033WAT      O75340   2.123   5.461   5.163
25033WAT     H175341   2.079   5.373   5.180
25033WAT     H275342   2.206   5.468   5.218
25034WAT      O75343   5.014   3.728   5.998
25034WAT     H175344   5.018   3.689   5.906
25034WAT     H275345   5.079   3.804   6.005
25035WAT      O75346   7.768   6.875   3.421
25035WAT     H175347   7.780   6.824   3.336
25035WAT     H275348   7.852   6.869   3.476
25036WAT      O75349   5.902   5.066   8.642
25036WAT     H175350   5.930   5.116   8.560
25036WAT     H275351   5.964   5.089   8.717
25037WAT      O75352   7.107   6.614   7.547
25037WAT     H175353   7.087   6.709   7.568
25037WAT     H275354   7.022   6.561   7.545
25038WAT      O75355   0.622   7.718   3.190
25038WAT     H175356   0.546   7.653   3.199
25038WAT     H275357   0.621   7.781   3.269
25039WAT      O75358   9.095   0.880   5.802
25039WAT     H175359   9.074   0.876   5.900
25039WAT     H275360   9.011   0.900   5.752
25040WAT      O75361   0.390   0.646   2.835
25040WAT     H175362   0.357   0.555   2.808
25040WAT     H275363   0.385   0.708   2.757
25041WAT      O75364   6.288   1.325   6.569
25041WAT     H175365   6.319   1.406   6.620
25041WAT     H275366   6.255   1.256   6.634
25042WAT      O75367   8.068   3.907   3.051
25042WAT     H175368   8.037   3.849   3.126
25042WAT     H275369   8.071   3.853   2.966
25043WAT      O75370   1.172   2.470   7.681
25043WAT     H175371   1.207   2.446   7.771
25043WAT     H275372   1.090   2.527   7.691
25044WAT      O75373   7.089   4.042   1.159
25044WAT     H175374   7.066   4.139   1.152
25044WAT     H275375   7.035   3.990   1.094
25045WAT      O75376   0.795   6.745   4.927
25045WAT     H175377   0.759   6.835   4.900
25045WAT     H275378   0.893   6.752   4.942
25046WAT      O75379   5.936   7.807   3.800
25046WAT     H175380   5.930   7.709   3.821
25046WAT     H275381   5.964   7.818   3.705
25047WAT      O75382   1.699   8.562   2.032
25047WAT     H175383   1.776   8.596   2.087
25047WAT     H275384   1.708   8.463   2.021
25048WAT      O75385   0.375   1.053   5.105
25048WAT     H175386   0.337   1.014   5.189
25048WAT     H275387   0.462   1.096   5.124
25049WAT      O75388   6.155   7.356   4.469
25049WAT     H175389   6.061   7.362   4.504
25049WAT     H275390   6.156   7.382   4.373
25050WAT      O75391   9.878   3.988   8.444
25050WAT     H175392   9.778   3.989   8.449
25050WAT     H275393   9.913   4.080   8.458
25051WAT      O75394   4.720   6.610   3.082
25051WAT     H175395   4.699   6.707   3.098
25051WAT     H275396   4.651   6.571   3.021
25052WAT      O75397   2.100   8.726   8.673
25052WAT     H175398   2.085   8.636   8.714
25052WAT     H275399   2.012   8.770   8.656
25053WAT      O75400   1.002   1.086   5.038
25053WAT     H175401   1.099   1.073   5.062
25053WAT     H275402   0.982   1.036   4.954
25054WAT      O75403   7.101   4.922   3.066
25054WAT     H175404   7.014   4.910   3.113
25054WAT     H275405   7.120   5.020   3.055
25055WAT      O75406   0.173   3.223   5.159
25055WAT     H175407   0.190   3.134   5.199
25055WAT     H275408   0.185   3.218   5.060
25056WAT      O75409   9.751   2.959   7.982
25056WAT     H175410   9.661   2.946   8.023
25056WAT     H275411   9.797   3.037   8.025
25057WAT      O75412   2.287   8.307   8.475
25057WAT     H175413   2.336   8.295   8.389
25057WAT     H275414   2.351   8.338   8.545
25058WAT      O75415   4.926   7.265   8.283
25058WAT     H175416   4.882   7.303   8.365
25058WAT     H275417   4.882   7.303   8.202
25059WAT      O75418   1.096   0.878   3.469
25059WAT     H175419   1.050   0.965   3.452
25059WAT     H275420   1.033   0.815   3.514
25060WAT      O75421   6.882   7.684   6.577
25060WAT     H175422   6.909   7.621   6.651
25060WAT     H275423   6.811   7.746   6.611
25061WAT      O75424   9.204   8.879   1.867
25061WAT     H175425   9.188   8.848   1.773
25061WAT     H275426   9.126   8.935   1.897
25062WAT      O75427   0.214   3.672   3.691
25062WAT     H175428   0.243   3.582   3.722
25062WAT     H275429   0.119   3.668   3.661
25063WAT      O75430   1.253   8.670   2.172
25063WAT     H175431   1.246   8.616   2.088
25063WAT     H275432   1.164   8.710   2.194
25064WAT      O75433   8.472   6.331   0.121
25064WAT     H175434   8.542   6.377   0.067
25064WAT     H275435   8.498   6.333   0.218
25065WAT      O75436   6.634   6.100   3.255
25065WAT     H175437   6.546   6.130   3.293
25065WAT     H275438   6.640   6.000   3.260
25066WAT      O75439   0.151   3.291   7.412
25066WAT     H175440   0.066   3.342   7.426
25066WAT     H275441   0.153   3.212   7.474
25067WAT      O75442   7.568   2.858   1.274
25067WAT     H175443   7.525   2.810   1.350
25067WAT     H275444   7.503   2.863   1.197
25068WAT      O75445   6.765   4.566   1.754
25068WAT     H175446   6.739   4.538   1.846
25068WAT     H275447   6.683   4.572   1.697
25069WAT      O75448   6.898   2.136   6.462
25069WAT     H175449   6.843   2.055   6.483
25069WAT     H275450   6.961   2.154   6.537
25070WAT      O75451   9.680   3.134   2.925
25070WAT     H175452   9.651   3.038   2.923
25070WAT     H275453   9.713   3.157   3.016
25071WAT      O75454   5.457   7.129   3.288
25071WAT     H175455   5.463   7.226   3.312
25071WAT     H275456   5.526   7.108   3.218
25072WAT      O75457   0.090   8.443   7.019
25072WAT     H175458   0.113   8.386   7.098
25072WAT     H275459   0.099   8.540   7.045
25073WAT      O75460   3.644   7.500   4.662
25073WAT     H175461   3.713   7.431   4.638
25073WAT     H275462   3.566   7.492   4.600
25074WAT      O75463   6.401   6.809   6.121
25074WAT     H175464   6.306   6.812   6.088
25074WAT     H275465   6.413   6.878   6.192
25075WAT      O75466   4.575   6.728   7.037
25075WAT     H175467   4.550   6.672   7.116
25075WAT     H275468   4.653   6.687   6.990
25076WAT      O75469   7.125   7.545   7.344
25076WAT     H175470   7.083   7.618   7.397
25076WAT     H275471   7.224   7.559   7.341
25077WAT      O75472   9.600   8.281   2.228
25077WAT     H175473   9.612   8.206   2.162
25077WAT     H275474   9.573   8.244   2.317
25078WAT      O75475   8.175   3.827   0.108
25078WAT     H175476   8.179   3.860   0.202
25078WAT     H275477   8.187   3.728   0.107
25079WAT      O75478   9.001   3.754   1.808
25079WAT     H175479   9.009   3.663   1.768
25079WAT     H275480   8.917   3.797   1.775
25080WAT      O75481   3.105   2.046   3.110
25080WAT     H175482   3.059   2.050   3.021
25080WAT     H275483   3.079   1.963   3.157
25081WAT      O75484   7.588   4.333   6.023
25081WAT     H175485   7.610   4.391   5.945
25081WAT     H275486   7.567   4.241   5.991
25082WAT      O75487   8.516   6.572   8.577
25082WAT     H175488   8.569   6.652   8.549
25082WAT     H275489   8.569   6.489   8.558
25083WAT      O75490   0.382   0.701   4.697
25083WAT     H175491   0.374   0.626   4.630
25083WAT     H275492   0.475   0.703   4.733
25084WAT      O75493   8.918   1.939   3.751
25084WAT     H175494   8.940   2.011   3.817
25084WAT     H275495   8.830   1.898   3.774
25085WAT      O75496   4.899   4.085   1.789
25085WAT     H175497   4.928   4.174   1.754
25085WAT     H275498   4.926   4.014   1.724
25086WAT      O75499   6.563   7.617   1.825
25086WAT     H175500   6.514   7.565   1.755
25086WAT     H275501   6.521   7.600   1.914
25087WAT      O75502   4.170   3.309   1.826
25087WAT     H175503   4.199   3.228   1.877
25087WAT     H275504   4.241   3.379   1.830
25088WAT      O75505   4.317   8.340   4.240
25088WAT     H175506   4.318   8.270   4.169
25088WAT     H275507   4.306   8.297   4.329
25089WAT      O75508   3.587   2.977   1.948
25089WAT     H175509   3.632   2.990   1.860
25089WAT     H275510   3.651   2.935   2.012
25090WAT      O75511   3.816   6.298   3.050
25090WAT     H175512   3.835   6.318   3.146
25090WAT     H275513   3.897   6.317   2.995
25091WAT      O75514   2.305   7.615   6.709
25091WAT     H175515   2.248   7.557   6.650
25091WAT     H275516   2.401   7.589   6.698
25092WAT      O75517   0.405   1.172   9.086
25092WAT     H175518   0.487   1.200   9.036
25092WAT     H275519   0.419   1.189   9.184
25093WAT      O75520   2.093   1.548   5.884
25093WAT     H175521   2.008   1.509   5.921
25093WAT     H275522   2.150   1.580   5.960
25094WAT      O75523   2.104   7.265   5.296
25094WAT     H175524   2.023   7.298   5.248
25094WAT     H275525   2.084   7.176   5.338
25095WAT      O75526   1.856   0.409   5.385
25095WAT     H175527   1.889   0.416   5.479
25095WAT     H275528   1.769   0.459   5.377
25096WAT      O75529   4.163   8.718   0.260
25096WAT     H175530   4.092   8.668   0.210
25096WAT     H275531   4.152   8.702   0.358
25097WAT      O75532   2.395   1.438   8.852
25097WAT     H175533   2.365   1.343   8.855
25097WAT     H275534   2.478   1.445   8.797
25098WAT      O75535   2.287   1.645   1.720
25098WAT     H175536   2.187   1.653   1.711
25098WAT     H275537   2.308   1.571   1.784
25099WAT      O75538   5.735   6.303   2.242
25099WAT     H175539   5.686   6.294   2.329
25099WAT     H275540   5.701   6.383   2.193
25100WAT      O75541   5.525   2.836   1.254
25100WAT     H175542   5.571   2.925   1.259
25100WAT     H275543   5.576   2.776   1.193
25101WAT      O75544   7.536   3.535   9.442
25101WAT     H175545   7.490   3.446   9.444
25101WAT     H275546   7.610   3.536   9.509
25102WAT      O75547   4.667   9.680   4.497
25102WAT     H175548   4.614   9.597   4.519
25102WAT     H275549   4.764   9.662   4.512
25103WAT      O75550   2.951   9.081   5.608
25103WAT     H175551   3.033   9.025   5.611
25103WAT     H275552   2.970   9.172   5.646
25104WAT      O75553   8.679   8.930   1.987
25104WAT     H175554   8.579   8.924   1.991
25104WAT     H275555   8.710   9.018   2.023
25105WAT      O75556   6.303   6.465   2.659
25105WAT     H175557   6.314   6.436   2.564
25105WAT     H275558   6.387   6.510   2.690
25106WAT      O75559   7.783   2.506   9.561
25106WAT     H175560   7.813   2.553   9.478
25106WAT     H275561   7.716   2.436   9.537
25107WAT      O75562   9.287   4.514   9.017
25107WAT     H175563   9.287   4.548   8.923
25107WAT     H275564   9.363   4.557   9.067
25108WAT      O75565   1.846   2.096   9.755
25108WAT     H175566   1.831   2.079   9.657
25108WAT     H275567   1.771   2.152   9.791
25109WAT      O75568   9.734   3.549   7.016
25109WAT     H175569   9.717   3.551   7.115
25109WAT     H275570   9.760   3.456   6.989
25110WAT      O75571   9.229   5.928   8.182
25110WAT     H175572   9.193   6.022   8.179
25110WAT     H275573   9.156   5.864   8.157
25111WAT      O75574   9.546   7.298   7.179
25111WAT     H175575   9.450   7.272   7.192
25111WAT     H275576   9.600   7.216   7.161
25112WAT      O75577   0.908   2.518   0.725
25112WAT     H175578   0.875   2.536   0.818
25112WAT     H275579   1.003   2.487   0.729
25113WAT      O75580   3.263   3.611   0.605
25113WAT     H175581   3.174   3.565   0.596
25113WAT     H275582   3.302   3.627   0.515
25114WAT      O75583   8.792   8.489   6.687
25114WAT     H175584   8.881   8.532   6.703
25114WAT     H275585   8.801   8.419   6.616
25115WAT      O75586   6.054   3.704   7.584
25115WAT     H175587   6.090   3.692   7.677
25115WAT     H275588   6.081   3.794   7.549
25116WAT      O75589   7.698   3.068   3.022
25116WAT     H175590   7.665   2.975   3.005
25116WAT     H275591   7.787   3.064   3.067
25117WAT      O75592   1.719   8.027   0.579
25117WAT     H175593   1.729   7.958   0.651
25117WAT     H275594   1.642   8.087   0.601
25118WAT      O75595   2.014   2.009   2.245
25118WAT     H175596   1.943   1.959   2.296
25118WAT     H275597   2.052   1.950   2.174
25119WAT      O75598   7.680   4.612   2.320
25119WAT     H175599   7.622   4.613   2.239
25119WAT     H275600   7.767   4.656   2.300
25120WAT      O75601   1.890   1.014   3.692
25120WAT     H175602   1.810   1.061   3.653
25120WAT     H275603   1.972   1.044   3.644
25121WAT      O75604   8.161   7.613   1.405
25121WAT     H175605   8.210   7.583   1.323
25121WAT     H275606   8.075   7.657   1.378
25122WAT      O75607   2.498   4.672   7.358
25122WAT     H175608   2.486   4.763   7.318
25122WAT     H275609   2.498   4.604   7.284
25123WAT      O75610   3.615   1.422   7.373
25123WAT     H175611   3.694   1.479   7.352
25123WAT     H275612   3.602   1.418   7.472
25124WAT      O75613   1.040   3.211   8.906
25124WAT     H175614   1.078   3.302   8.920
25124WAT     H275615   0.942   3.212   8.924
25125WAT      O75616   2.554   5.828   8.474
25125WAT     H175617   2.582   5.760   8.542
25125WAT     H275618   2.517   5.781   8.394
25126WAT      O75619   3.748   8.118   9.441
25126WAT     H175620   3.841   8.103   9.476
25126WAT     H275621   3.720   8.037   9.389
25127WAT      O75622   8.012   8.972   7.944
25127WAT     H175623   8.109   8.994   7.954
25127WAT     H275624   7.976   9.020   7.864
25128WAT      O75625   3.344   1.364   7.269
25128WAT     H175626   3.441   1.368   7.289
25128WAT     H275627   3.295   1.434   7.322
25129WAT      O75628   7.476   6.518   0.357
25129WAT     H175629   7.452   6.596   0.415
25129WAT     H275630   7.480   6.435   0.412
25130WAT      O75631   5.457   3.997   0.117
25130WAT     H175632   5.393   3.988   0.193
25130WAT     H275633   5.415   3.963   0.033
25131WAT      O75634   7.468   2.322   1.818
25131WAT     H175635   7.519   2.269   1.751
25131WAT     H275636   7.389   2.365   1.774
25132WAT      O75637   1.008   7.006   4.778
25132WAT     H175638   0.943   6.980   4.849
25132WAT     H275639   1.096   7.027   4.819
25133WAT      O75640   3.488   8.771   9.053
25133WAT     H175641   3.398   8.809   9.073
25133WAT     H275642   3.512   8.704   9.123
25134WAT      O75643   3.279   4.953   4.365
25134WAT     H175644   3.223   5.024   4.407
25134WAT     H275645   3.356   4.995   4.317
25135WAT      O75646   0.987   2.716   8.857
25135WAT     H175647   0.939   2.788   8.907
25135WAT     H275648   1.033   2.655   8.921
25136WAT      O75649   2.580   4.238   8.765
25136WAT     H175650   2.543   4.271   8.678
25136WAT     H275651   2.506   4.233   8.833
25137WAT      O75652   5.725   7.666   0.830
25137WAT     H175653   5.678   7.581   0.853
25137WAT     H275654   5.784   7.693   0.906
25138WAT      O75655   8.831   5.346   4.120
25138WAT     H175656   8.918   5.314   4.158
25138WAT     H275657   8.774   5.267   4.097
25139WAT      O75658   1.480   6.280   6.017
25139WAT     H175659   1.491   6.364   5.964
25139WAT     H275660   1.565   6.261   6.067
25140WAT      O75661   3.369   6.032   7.731
25140WAT     H175662   3.313   6.114   7.718
25140WAT     H275663   3.312   5.956   7.761
25141WAT      O75664   6.464   7.569   0.841
25141WAT     H175665   6.553   7.538   0.874
25141WAT     H275666   6.426   7.636   0.904
25142WAT      O75667   1.452   7.215   8.116
25142WAT     H175668   1.446   7.271   8.033
25142WAT     H275669   1.361   7.202   8.154
25143WAT      O75670   4.010   1.090   7.515
25143WAT     H175671   4.038   1.183   7.489
25143WAT     H275672   4.062   1.061   7.596
25144WAT      O75673   2.291   6.309   2.935
25144WAT     H175674   2.219   6.346   2.994
25144WAT     H275675   2.310   6.374   2.861
25145WAT      O75676   7.512   4.874   4.904
25145WAT     H175677   7.452   4.820   4.844
25145WAT     H275678   7.518   4.831   4.994
25146WAT      O75679   8.157   7.780   5.005
25146WAT     H175680   8.119   7.701   4.955
25146WAT     H275681   8.158   7.760   5.103
25147WAT      O75682   2.024   8.947   2.334
25147WAT     H175683   1.949   8.970   2.272
25147WAT     H275684   2.005   8.858   2.376
25148WAT      O75685   5.234   8.642   4.854
25148WAT     H175686   5.148   8.655   4.805
25148WAT     H275687   5.296   8.587   4.798
25149WAT      O75688   3.311   9.326   2.865
25149WAT     H175689   3.379   9.398   2.881
25149WAT     H275690   3.282   9.329   2.769
25150WAT      O75691   1.175   4.956   1.416
25150WAT     H175692   1.232   4.957   1.333
25150WAT     H275693   1.231   4.977   1.495
25151WAT      O75694   7.156   6.510   4.975
25151WAT     H175695   7.242   6.541   4.934
25151WAT     H275696   7.174   6.442   5.045
25152WAT      O75697   0.325   7.056   9.682
25152WAT     H175698   0.350   7.147   9.716
25152WAT     H275699   0.366   6.986   9.741
25153WAT      O75700   8.668   6.503   3.478
25153WAT     H175701   8.595   6.557   3.518
25153WAT     H275702   8.735   6.563   3.434
25154WAT      O75703   5.340   2.777   9.790
25154WAT     H175704   5.391   2.848   9.742
25154WAT     H275705   5.377   2.687   9.766
25155WAT      O75706   2.139   3.490   3.501
25155WAT     H175707   2.115   3.572   3.450
25155WAT     H275708   2.185   3.425   3.440
25156WAT      O75709   6.746   5.649   9.540
25156WAT     H175710   6.801   5.639   9.457
25156WAT     H275711   6.767   5.736   9.583
25157WAT      O75712   5.529   1.227   2.761
25157WAT     H175713   5.521   1.323   2.788
25157WAT     H275714   5.578   1.221   2.674
25158WAT      O75715   2.921   8.182   5.769
25158WAT     H175716   2.858   8.192   5.693
25158WAT     H275717   2.939   8.085   5.785
25159WAT      O75718   7.150   4.476   3.664
25159WAT     H175719   7.156   4.571   3.696
25159WAT     H275720   7.107   4.475   3.574
25160WAT      O75721   9.400   8.267   6.864
25160WAT     H175722   9.397   8.354   6.913
25160WAT     H275723   9.433   8.195   6.925
25161WAT      O75724   6.840   1.965   0.402
25161WAT     H175725   6.836   1.871   0.369
25161WAT     H275726   6.920   2.011   0.362
25162WAT      O75727   5.180   1.515   3.670
25162WAT     H175728   5.238   1.537   3.748
25162WAT     H275729   5.113   1.445   3.698
25163WAT      O75730   8.775   6.843   6.811
25163WAT     H175731   8.729   6.912   6.755
25163WAT     H275732   8.813   6.772   6.752
25164WAT      O75733   7.591   1.082   4.977
25164WAT     H175734   7.520   1.055   4.913
25164WAT     H275735   7.612   1.005   5.038
25165WAT      O75736   3.505   6.691   2.768
25165WAT     H175737   3.452   6.621   2.721
25165WAT     H275738   3.501   6.677   2.867
25166WAT      O75739   2.722   4.387   1.634
25166WAT     H175740   2.651   4.391   1.705
25166WAT     H275741   2.707   4.460   1.567
25167WAT      O75742   0.483   4.037   5.702
25167WAT     H175743   0.439   4.103   5.642
25167WAT     H275744   0.580   4.029   5.679
25168WAT      O75745   9.434   2.367   7.347
25168WAT     H175746   9.445   2.465   7.331
25168WAT     H275747   9.374   2.353   7.426
25169WAT      O75748   7.947   9.044   1.231
25169WAT     H175749   7.894   8.960   1.223
25169WAT     H275750   7.891   9.114   1.276
25170WAT      O75751   6.325   8.091   4.802
25170WAT     H175752   6.317   8.026   4.877
25170WAT     H275753   6.361   8.045   4.721
25171WAT      O75754   7.494   8.607   8.187
25171WAT     H175755   7.528   8.624   8.095
25171WAT     H275756   7.549   8.659   8.253
25172WAT      O75757   0.671   5.047   5.587
25172WAT     H175758   0.716   5.032   5.499
25172WAT     H275759   0.691   5.139   5.620
25173WAT      O75760   5.373   6.659   1.857
25173WAT     H175761   5.461   6.619   1.879
25173WAT     H275762   5.339   6.621   1.770
25174WAT      O75763   8.018   9.273   4.045
25174WAT     H175764   7.940   9.330   4.071
25174WAT     H275765   8.091   9.284   4.113
25175WAT      O75766   0.943   6.752   5.827
25175WAT     H175767   1.027   6.805   5.832
25175WAT     H275768   0.963   6.655   5.836
25176WAT      O75769   6.254   6.688   1.641
25176WAT     H175770   6.214   6.778   1.655
25176WAT     H275771   6.328   6.673   1.706
25177WAT      O75772   8.316   0.421   8.368
25177WAT     H175773   8.219   0.412   8.346
25177WAT     H275774   8.370   0.427   8.284
25178WAT      O75775   5.048   7.679   8.317
25178WAT     H175776   4.977   7.633   8.370
25178WAT     H275777   5.131   7.622   8.315
25179WAT      O75778   7.852   0.471   0.110
25179WAT     H175779   7.758   0.506   0.118
25179WAT     H275780   7.850   0.371   0.116
25180WAT      O75781   7.752   3.805   0.560
25180WAT     H175782   7.796   3.715   0.552
25180WAT     H275783   7.660   3.793   0.599
25181WAT      O75784   3.054   1.255   8.302
25181WAT     H175785   3.149   1.241   8.275
25181WAT     H275786   3.016   1.332   8.251
25182WAT      O75787   3.702   9.738   7.603
25182WAT     H175788   3.738   9.686   7.526
25182WAT     H275789   3.608   9.767   7.583
25183WAT      O75790   9.066   8.264   7.139
25183WAT     H175791   9.095   8.217   7.223
25183WAT     H275792   9.061   8.197   7.064
25184WAT      O75793   8.180   1.372   8.815
25184WAT     H175794   8.130   1.303   8.763
25184WAT     H275795   8.243   1.421   8.755
25185WAT      O75796   6.667   3.901   5.530
25185WAT     H175797   6.615   3.967   5.584
25185WAT     H275798   6.761   3.935   5.518
25186WAT      O75799   4.771   0.733   9.448
25186WAT     H175800   4.756   0.828   9.474
25186WAT     H275801   4.687   0.695   9.409
25187WAT      O75802   4.198   6.752   8.894
25187WAT     H175803   4.149   6.831   8.858
25187WAT     H275804   4.279   6.782   8.945
25188WAT      O75805   3.098   4.403   4.471
25188WAT     H175806   3.057   4.328   4.420
25188WAT     H275807   3.177   4.439   4.421
25189WAT      O75808   6.767   2.199   8.979
25189WAT     H175809   6.862   2.184   8.952
25189WAT     H275810   6.763   2.221   9.077
25190WAT      O75811   3.208   3.848   2.859
25190WAT     H175812   3.134   3.911   2.835
25190WAT     H275813   3.187   3.757   2.823
25191WAT      O75814   8.670   7.338   9.500
25191WAT     H175815   8.643   7.351   9.596
25191WAT     H275816   8.598   7.289   9.452
25192WAT      O75817   4.214   2.207   5.166
25192WAT     H175818   4.185   2.119   5.130
25192WAT     H275819   4.313   2.216   5.156
25193WAT      O75820   4.845   2.378   6.685
25193WAT     H175821   4.797   2.406   6.768
25193WAT     H275822   4.926   2.326   6.709
25194WAT      O75823   1.760   2.506   5.602
25194WAT     H175824   1.710   2.478   5.684
25194WAT     H275825   1.858   2.506   5.621
25195WAT      O75826   2.640   7.613   0.730
25195WAT     H175827   2.636   7.565   0.817
25195WAT     H275828   2.660   7.710   0.746
25196WAT      O75829   8.893   8.381   3.233
25196WAT     H175830   8.876   8.292   3.277
25196WAT     H275831   8.888   8.453   3.302
25197WAT      O75832   7.083   6.793   3.103
25197WAT     H175833   6.998   6.828   3.143
25197WAT     H275834   7.066   6.763   3.009
25198WAT      O75835   3.802   9.747   3.580
25198WAT     H175836   3.710   9.717   3.602
25198WAT     H275837   3.868   9.680   3.613
25199WAT      O75838   8.572   5.258   6.820
25199WAT     H175839   8.527   5.207   6.894
25199WAT     H275840   8.502   5.300   6.762
25200WAT      O75841   5.580   1.434   9.393
25200WAT     H175842   5.637   1.360   9.429
25200WAT     H275843   5.628   1.480   9.318
25201WAT      O75844   1.266   9.050   1.100
25201WAT     H175845   1.223   9.000   1.024
25201WAT     H275846   1.357   9.013   1.117
25202WAT      O75847   9.692   4.158   1.977
25202WAT     H175848   9.616   4.220   1.957
25202WAT     H275849   9.726   4.177   2.069
25203WAT      O75850   0.911   5.374   7.560
25203WAT     H175851   0.976   5.319   7.506
25203WAT     H275852   0.962   5.434   7.622
25204WAT      O75853   2.522   7.828   4.812
25204WAT     H175854   2.426   7.801   4.818
25204WAT     H275855   2.538   7.907   4.870
25205WAT      O75856   5.651   2.856   3.193
25205WAT     H175857   5.553   2.866   3.211
25205WAT     H275858   5.690   2.791   3.259
25206WAT      O75859   8.302   1.004   7.588
25206WAT     H175860   8.284   0.952   7.505
25206WAT     H275861   8.314   0.941   7.665
25207WAT      O75862   4.173   9.479   8.223
25207WAT     H175863   4.193   9.575   8.204
25207WAT     H275864   4.093   9.474   8.283
25208WAT      O75865   9.561   3.926   3.598
25208WAT     H175866   9.506   3.855   3.552
25208WAT     H275867   9.596   3.890   3.685
25209WAT      O75868   2.876   6.074   1.176
25209WAT     H175869   2.867   6.164   1.216
25209WAT     H275870   2.946   6.022   1.225
25210WAT      O75871   3.778   2.456   6.999
25210WAT     H175872   3.687   2.416   7.012
25210WAT     H275873   3.824   2.463   7.088
25211WAT      O75874   7.938   9.256   5.693
25211WAT     H175875   7.896   9.206   5.769
25211WAT     H275876   8.020   9.303   5.725
25212WAT      O75877   2.529   0.831   1.135
25212WAT     H175878   2.626   0.811   1.118
25212WAT     H275879   2.489   0.758   1.190
25213WAT      O75880   2.810   9.582   3.754
25213WAT     H175881   2.801   9.621   3.846
25213WAT     H275882   2.773   9.646   3.687
25214WAT      O75883   8.767   2.845   2.562
25214WAT     H175884   8.721   2.872   2.478
25214WAT     H275885   8.708   2.785   2.615
25215WAT      O75886   4.100   7.607   0.348
25215WAT     H175887   4.182   7.663   0.334
25215WAT     H275888   4.101   7.531   0.283
25216WAT      O75889   8.788   4.163   5.258
25216WAT     H175890   8.688   4.162   5.261
25216WAT     H275891   8.823   4.247   5.301
25217WAT      O75892   9.113   7.431   0.879
25217WAT     H175893   9.156   7.351   0.838
25217WAT     H275894   9.058   7.479   0.811
25218WAT      O75895   8.828   3.377   1.282
25218WAT     H175896   8.792   3.463   1.246
25218WAT     H275897   8.907   3.396   1.341
25219WAT      O75898   1.269   1.119   5.842
25219WAT     H175899   1.333   1.159   5.776
25219WAT     H275900   1.319   1.064   5.909
25220WAT      O75901   9.593   6.449   5.835
25220WAT     H175902   9.503   6.463   5.877
25220WAT     H275903   9.591   6.367   5.779
25221WAT      O75904   2.433   8.077   5.374
25221WAT     H175905   2.386   7.995   5.340
25221WAT     H275906   2.465   8.060   5.467
25222WAT      O75907   3.980   4.353   4.121
25222WAT     H175908   4.050   4.423   4.107
25222WAT     H275909   3.890   4.397   4.120
25223WAT      O75910   3.166   9.128   2.976
25223WAT     H175911   3.217   9.203   2.932
25223WAT     H275912   3.213   9.041   2.958
25224WAT      O75913   1.287   6.037   1.427
25224WAT     H175914   1.232   5.975   1.370
25224WAT     H275915   1.352   5.983   1.481
25225WAT      O75916   8.970   8.091   9.661
25225WAT     H175917   8.905   8.109   9.734
25225WAT     H275918   9.063   8.114   9.693
25226WAT      O75919   6.360   5.553   3.902
25226WAT     H175920   6.336   5.645   3.932
25226WAT     H275921   6.381   5.496   3.981
25227WAT      O75922   1.825   8.559   9.147
25227WAT     H175923   1.880   8.636   9.116
25227WAT     H275924   1.744   8.549   9.089
25228WAT      O75925   0.009   4.095   9.431
25228WAT     H175926   0.036   4.191   9.430
25228WAT     H275927   0.043   4.049   9.350
25229WAT      O75928   3.752   2.853   3.048
25229WAT     H175929   3.843   2.893   3.036
25229WAT     H275930   3.686   2.900   2.989
25230WAT      O75931   6.233   0.471   7.570
25230WAT     H175932   6.224   0.452   7.472
25230WAT     H275933   6.277   0.560   7.583
25231WAT      O75934   1.374   1.913   1.251
25231WAT     H175935   1.386   1.867   1.339
25231WAT     H275936   1.427   1.998   1.250
25232WAT      O75937   2.735   7.137   8.168
25232WAT     H175938   2.795   7.168   8.242
25232WAT     H275939   2.649   7.103   8.207
25233WAT      O75940   9.803   7.177   0.570
25233WAT     H175941   9.721   7.130   0.537
25233WAT     H275942   9.806   7.173   0.670
25234WAT      O75943   1.149   1.308   2.805
25234WAT     H175944   1.191   1.357   2.881
25234WAT     H275945   1.094   1.233   2.840
25235WAT      O75946   6.014   4.711   8.140
25235WAT     H175947   5.918   4.706   8.112
25235WAT     H275948   6.022   4.682   8.236
25236WAT      O75949   4.819   1.665   2.960
25236WAT     H175950   4.783   1.738   2.901
25236WAT     H275951   4.918   1.661   2.952
25237WAT      O75952   6.960   3.901   0.977
25237WAT     H175953   6.867   3.879   1.005
25237WAT     H275954   6.990   3.834   0.908
25238WAT      O75955   8.143   4.251   6.701
25238WAT     H175956   8.192   4.307   6.767
25238WAT     H275957   8.209   4.208   6.638
25239WAT      O75958   9.515   9.260   4.024
25239WAT     H175959   9.457   9.179   4.033
25239WAT     H275960   9.527   9.282   3.927
25240WAT      O75961   0.335   8.512   5.370
25240WAT     H175962   0.427   8.483   5.396
25240WAT     H275963   0.326   8.611   5.382
25241WAT      O75964   2.910   9.788   5.952
25241WAT     H175965   2.820   9.831   5.944
25241WAT     H275966   2.942   9.763   5.860
25242WAT      O75967   5.191   5.370   0.933
25242WAT     H175968   5.132   5.449   0.949
25242WAT     H275969   5.146   5.306   0.871
25243WAT      O75970   1.526   1.711   7.310
25243WAT     H175971   1.474   1.785   7.352
25243WAT     H275972   1.514   1.714   7.211
25244WAT      O75973   0.423   3.448   9.600
25244WAT     H175974   0.476   3.363   9.594
25244WAT     H275975   0.461   3.515   9.537
25245WAT      O75976   6.562   1.997   7.227
25245WAT     H175977   6.614   1.915   7.206
25245WAT     H275978   6.570   2.063   7.152
25246WAT      O75979   9.448   5.733   3.291
25246WAT     H175980   9.499   5.796   3.232
25246WAT     H275981   9.403   5.664   3.236
25247WAT      O75982   3.568   3.631   7.633
25247WAT     H175983   3.480   3.608   7.677
25247WAT     H275984   3.555   3.709   7.571
25248WAT      O75985   0.223   6.881   1.971
25248WAT     H175986   0.139   6.861   2.022
25248WAT     H275987   0.302   6.853   2.026
25249WAT      O75988   1.019   6.374   9.701
25249WAT     H175989   1.092   6.331   9.754
25249WAT     H275990   1.029   6.351   9.604
25250WAT      O75991   7.631   4.335   8.170
25250WAT     H175992   7.609   4.413   8.228
25250WAT     H275993   7.629   4.363   8.074
25251WAT      O75994   1.979   7.892   9.081
25251WAT     H175995   1.916   7.846   9.019
25251WAT     H275996   1.956   7.989   9.086
25252WAT      O75997   1.856   9.562   3.367
25252WAT     H175998   1.936   9.593   3.316
25252WAT     H275999   1.881   9.484   3.424
25253WAT      O76000   8.907   5.887   6.405
25253WAT     H176001   8.865   5.913   6.319
25253WAT     H276002   8.896   5.960   6.472
25254WAT      O76003   2.021   2.105   2.511
25254WAT     H176004   2.026   2.087   2.413
25254WAT     H276005   1.986   2.024   2.558
25255WAT      O76006   7.855   2.947   4.146
25255WAT     H176007   7.921   3.009   4.187
25255WAT     H276008   7.873   2.854   4.175
25256WAT      O76009   5.385   7.562   4.391
25256WAT     H176010   5.417   7.624   4.462
25256WAT     H276011   5.291   7.534   4.410
25257WAT      O76012   9.736   2.631   3.881
25257WAT     H176013   9.739   2.556   3.815
25257WAT     H276014   9.781   2.712   3.844
25258WAT      O76015   2.483   3.725   6.036
25258WAT     H176016   2.417   3.700   5.966
25258WAT     H276017   2.447   3.702   6.126
25259WAT      O76018   1.175   2.226   9.193
25259WAT     H176019   1.113   2.207   9.269
25259WAT     H276020   1.264   2.255   9.229
25260WAT      O76021   7.917   0.242   1.202
25260WAT     H176022   7.881   0.271   1.291
25260WAT     H276023   8.017   0.237   1.207
25261WAT      O76024   5.262   7.341   0.498
25261WAT     H176025   5.212   7.263   0.536
25261WAT     H276026   5.197   7.409   0.464
25262WAT      O76027   5.470   5.345   8.186
25262WAT     H176028   5.486   5.253   8.151
25262WAT     H276029   5.549   5.376   8.238
25263WAT      O76030   3.979   1.510   3.845
25263WAT     H176031   4.075   1.506   3.874
25263WAT     H276032   3.923   1.550   3.918
25264WAT      O76033   2.250   2.596   5.476
25264WAT     H176034   2.306   2.533   5.422
25264WAT     H276035   2.305   2.635   5.550
25265WAT      O76036   3.226   6.963   8.097
25265WAT     H176037   3.228   6.916   8.185
25265WAT     H276038   3.131   6.982   8.072
25266WAT      O76039   7.526   5.085   0.227
25266WAT     H176040   7.595   5.015   0.246
25266WAT     H276041   7.539   5.162   0.288
25267WAT      O76042   2.577   5.518   7.175
25267WAT     H176043   2.487   5.483   7.203
25267WAT     H276044   2.568   5.567   7.088
25268WAT      O76045   9.305   1.526   0.292
25268WAT     H176046   9.221   1.500   0.340
25268WAT     H276047   9.385   1.495   0.343
25269WAT      O76048   7.349   2.517   1.666
25269WAT     H176049   7.279   2.558   1.723
25269WAT     H276050   7.307   2.470   1.589
25270WAT      O76051   7.388   0.030   9.237
25270WAT     H176052   7.470   0.011   9.184
25270WAT     H276053   7.364  -0.050   9.291
25271WAT      O76054   5.234   3.588   2.506
25271WAT     H176055   5.236   3.685   2.480
25271WAT     H276056   5.140   3.560   2.524
25272WAT      O76057   2.951   6.928   4.864
25272WAT     H176058   3.000   7.003   4.819
25272WAT     H276059   3.014   6.851   4.878
25273WAT      O76060   8.618   6.300   9.005
25273WAT     H176061   8.715   6.305   9.033
25273WAT     H276062   8.577   6.218   9.044
25274WAT      O76063   6.660   1.542   8.944
25274WAT     H176064   6.676   1.637   8.917
25274WAT     H276065   6.628   1.489   8.866
25275WAT      O76066   1.305   4.082   9.048
25275WAT     H176067   1.376   4.128   8.996
25275WAT     H276068   1.228   4.145   9.062
25276WAT      O76069   8.079   2.702   6.239
25276WAT     H176070   8.028   2.712   6.325
25276WAT     H276071   8.107   2.792   6.207
25277WAT      O76072   8.030   1.297   4.995
25277WAT     H176073   7.942   1.284   4.949
25277WAT     H276074   8.047   1.395   5.008
25278WAT      O76075   6.973   9.422   9.882
25278WAT     H176076   7.028   9.499   9.916
25278WAT     H276077   6.928   9.448   9.797
25279WAT      O76078   2.707   0.117   2.240
25279WAT     H176079   2.739   0.023   2.228
25279WAT     H276080   2.754   0.159   2.318
25280WAT      O76081   8.825   5.531   1.454
25280WAT     H176082   8.771   5.499   1.532
25280WAT     H276083   8.791   5.620   1.424
25281WAT      O76084   7.730   6.803   4.859
25281WAT     H176085   7.826   6.821   4.839
25281WAT     H276086   7.716   6.704   4.870
25282WAT      O76087   9.687   7.258   4.883
25282WAT     H176088   9.702   7.353   4.909
25282WAT     H276089   9.736   7.239   4.798
25283WAT      O76090   6.767   7.197   8.577
25283WAT     H176091   6.758   7.277   8.636
25283WAT     H276092   6.798   7.227   8.486
25284WAT      O76093   6.855   3.786   1.682
25284WAT     H176094   6.853   3.775   1.583
25284WAT     H276095   6.764   3.813   1.715
25285WAT      O76096   9.227   8.377   2.765
25285WAT     H176097   9.193   8.467   2.737
25285WAT     H276098   9.198   8.359   2.859
25286WAT      O76099   0.109   3.076   2.460
25286WAT     H176100   0.178   3.013   2.425
25286WAT     H276101   0.063   3.121   2.383
25287WAT      O76102   1.181   3.523   5.185
25287WAT     H176103   1.263   3.580   5.187
25287WAT     H276104   1.106   3.575   5.145
25288WAT      O76105   0.053   9.049   8.383
25288WAT     H176106  -0.033   9.029   8.429
25288WAT     H276107   0.081   9.143   8.402
25289WAT      O76108   9.370   3.724   7.137
25289WAT     H176109   9.293   3.781   7.165
25289WAT     H276110   9.398   3.749   7.044
25290WAT      O76111   6.254   1.550   9.872
25290WAT     H176112   6.211   1.614   9.936
25290WAT     H276113   6.185   1.518   9.807
25291WAT      O76114   5.286   9.495   7.879
25291WAT     H176115   5.334   9.560   7.937
25291WAT     H276116   5.205   9.461   7.927
25292WAT      O76117   7.452   5.582   0.998
25292WAT     H176118   7.430   5.679   0.993
25292WAT     H276119   7.520   5.567   1.069
25293WAT      O76120   8.793   5.363   6.671
25293WAT     H176121   8.720   5.306   6.709
25293WAT     H276122   8.757   5.419   6.597
25294WAT      O76123   3.423   9.151   2.011
25294WAT     H176124   3.344   9.104   1.971
25294WAT     H276125   3.451   9.226   1.951
25295WAT      O76126   5.623   1.408   1.895
25295WAT     H176127   5.696   1.411   1.827
25295WAT     H276128   5.567   1.327   1.881
25296WAT      O76129   3.088   4.935   3.846
25296WAT     H176130   2.992   4.909   3.862
25296WAT     H276131   3.117   4.899   3.757
25297WAT      O76132   4.338   9.535   3.802
25297WAT     H176133   4.277   9.554   3.879
25297WAT     H276134   4.320   9.443   3.768
25298WAT      O76135   0.762   9.589   3.603
25298WAT     H176136   0.736   9.680   3.572
25298WAT     H276137   0.800   9.594   3.695
25299WAT      O76138   5.134   4.318   2.596
25299WAT     H176139   5.163   4.375   2.519
25299WAT     H276140   5.210   4.307   2.660
25300WAT      O76141   9.743   1.548   1.664
25300WAT     H176142   9.659   1.528   1.713
25300WAT     H276143   9.763   1.473   1.600
25301WAT      O76144   2.456   3.780   2.816
25301WAT     H176145   2.507   3.755   2.898
25301WAT     H276146   2.520   3.805   2.743
25302WAT      O76147   2.310   7.883   2.183
25302WAT     H176148   2.242   7.910   2.251
25302WAT     H276149   2.402   7.899   2.219
25303WAT      O76150   0.810   6.177   7.229
25303WAT     H176151   0.751   6.228   7.291
25303WAT     H276152   0.879   6.128   7.281
25304WAT      O76153   4.376   9.639   9.565
25304WAT     H176154   4.459   9.589   9.592
25304WAT     H276155   4.388   9.736   9.587
25305WAT      O76156   6.123   2.972   5.233
25305WAT     H176157   6.062   2.896   5.252
25305WAT     H276158   6.146   3.020   5.318
25306WAT      O76159   3.989   0.056   0.010
25306WAT     H176160   3.890   0.070   0.016
25306WAT     H276161   4.035   0.109   0.082
25307WAT      O76162   2.713   7.808   6.651
25307WAT     H176163   2.789   7.780   6.710
25307WAT     H276164   2.722   7.904   6.628
25308WAT      O76165   2.758   5.555   4.057
25308WAT     H176166   2.679   5.509   4.016
25308WAT     H276167   2.768   5.524   4.152
25309WAT      O76168   4.330   0.026   2.187
25309WAT     H176169   4.316   0.096   2.258
25309WAT     H276170   4.246   0.013   2.136
25310WAT      O76171   5.383   4.039   7.883
25310WAT     H176172   5.284   4.046   7.872
25310WAT     H276173   5.404   3.973   7.955
25311WAT      O76174   4.640   3.798   8.970
25311WAT     H176175   4.584   3.757   9.042
25311WAT     H276176   4.701   3.729   8.931
25312WAT      O76177   6.555   2.433   6.434
25312WAT     H176178   6.555   2.515   6.492
25312WAT     H276179   6.578   2.353   6.490
25313WAT      O76180   4.926   3.428   8.451
25313WAT     H176181   4.996   3.371   8.407
25313WAT     H276182   4.895   3.497   8.387
25314WAT      O76183   4.312   6.396   9.266
25314WAT     H176184   4.295   6.299   9.251
25314WAT     H276185   4.225   6.444   9.276
25315WAT      O76186   5.737   4.551   0.156
25315WAT     H176187   5.828   4.524   0.186
25315WAT     H276188   5.704   4.488   0.087
25316WAT      O76189   7.858   8.886   7.596
25316WAT     H176190   7.798   8.827   7.542
25316WAT     H276191   7.895   8.833   7.673
25317WAT      O76192   8.613   5.515   7.996
25317WAT     H176193   8.696   5.564   7.970
25317WAT     H276194   8.533   5.572   7.980
25318WAT      O76195   4.043   1.112   1.232
25318WAT     H176196   4.053   1.037   1.297
25318WAT     H276197   4.119   1.109   1.167
25319WAT      O76198   3.242   7.507   9.415
25319WAT     H176199   3.256   7.516   9.316
25319WAT     H276200   3.200   7.418   9.434
25320WAT      O76201   0.422   7.231   5.254
25320WAT     H176202   0.508   7.281   5.267
25320WAT     H276203   0.362   7.247   5.333
25321WAT      O76204   1.358   0.723   7.025
25321WAT     H176205   1.390   0.793   6.961
25321WAT     H276206   1.329   0.767   7.110
25322WAT      O76207   1.699   1.542   4.947
25322WAT     H176208   1.740   1.628   4.918
25322WAT     H276209   1.606   1.534   4.911
25323WAT      O76210   5.392   7.531   4.925
25323WAT     H176211   5.403   7.468   4.849
25323WAT     H276212   5.320   7.497   4.987
25324WAT      O76213   0.933   2.645   4.473
25324WAT     H176214   1.005   2.585   4.437
25324WAT     H276215   0.863   2.590   4.518
25325WAT      O76216   5.767   1.350   7.594
25325WAT     H176217   5.684   1.307   7.559
25325WAT     H276218   5.835   1.356   7.521
25326WAT      O76219   3.481   2.373   0.496
25326WAT     H176220   3.415   2.422   0.553
25326WAT     H276221   3.551   2.332   0.555
25327WAT      O76222   2.005   1.741   0.066
25327WAT     H176223   1.914   1.777   0.046
25327WAT     H276224   2.032   1.769   0.158
25328WAT      O76225   5.873   4.521   7.489
25328WAT     H176226   5.818   4.580   7.548
25328WAT     H276227   5.936   4.467   7.545
25329WAT      O76228   6.737   1.299   9.016
25329WAT     H176229   6.700   1.389   8.992
25329WAT     H276230   6.757   1.296   9.113
25330WAT      O76231   1.768   6.138   5.405
25330WAT     H176232   1.800   6.069   5.470
25330WAT     H276233   1.841   6.158   5.340
25331WAT      O76234   8.768   6.967   2.601
25331WAT     H176235   8.736   6.873   2.612
25331WAT     H276236   8.867   6.967   2.586
25332WAT      O76237   8.714   1.074   9.465
25332WAT     H176238   8.660   1.036   9.540
25332WAT     H276239   8.706   1.016   9.384
25333WAT      O76240   3.486   0.542   2.638
25333WAT     H176241   3.567   0.482   2.639
25333WAT     H276242   3.479   0.591   2.724
25334WAT      O76243   6.145   7.790   0.926
25334WAT     H176244   6.219   7.763   0.987
25334WAT     H276245   6.103   7.709   0.886
25335WAT      O76246   1.857   6.756   2.749
25335WAT     H176247   1.831   6.753   2.845
25335WAT     H276248   1.814   6.680   2.700
25336WAT      O76249   7.244   1.339   3.330
25336WAT     H176250   7.220   1.277   3.256
25336WAT     H276251   7.180   1.416   3.332
25337WAT      O76252   8.667   9.037   4.552
25337WAT     H176253   8.671   8.940   4.528
25337WAT     H276254   8.684   9.093   4.471
25338WAT      O76255   4.805   5.591   7.859
25338WAT     H176256   4.847   5.632   7.940
25338WAT     H276257   4.763   5.504   7.883
25339WAT      O76258   4.237   1.963   9.575
25339WAT     H176259   4.200   2.056   9.581
25339WAT     H276260   4.168   1.902   9.536
25340WAT      O76261   7.527   6.385   8.862
25340WAT     H176262   7.605   6.397   8.923
25340WAT     H276263   7.534   6.450   8.786
25341WAT      O76264   2.805   7.631   9.419
25341WAT     H176265   2.891   7.647   9.467
25341WAT     H276266   2.823   7.611   9.323
25342WAT      O76267   8.885   1.183   1.729
25342WAT     H176268   8.892   1.266   1.672
25342WAT     H276269   8.820   1.120   1.687
25343WAT      O76270   0.085   2.730   6.264
25343WAT     H176271   0.169   2.701   6.309
25343WAT     H276272   0.074   2.681   6.178
25344WAT      O76273   4.895   9.295   3.720
25344WAT     H176274   4.989   9.264   3.734
25344WAT     H276275   4.892   9.361   3.645
25345WAT      O76276   5.865   7.598   4.228
25345WAT     H176277   5.810   7.539   4.169
25345WAT     H276278   5.882   7.685   4.182
25346WAT      O76279   6.682   7.505   3.968
25346WAT     H176280   6.729   7.470   4.049
25346WAT     H276281   6.661   7.429   3.906
25347WAT      O76282   0.019   1.358   0.541
25347WAT     H176283  -0.032   1.411   0.609
25347WAT     H276284  -0.041   1.291   0.497
25348WAT      O76285   2.736   9.808   4.540
25348WAT     H176286   2.638   9.797   4.553
25348WAT     H276287   2.761   9.785   4.446
25349WAT      O76288   0.010   7.610   5.795
25349WAT     H176289   0.053   7.698   5.775
25349WAT     H276290  -0.043   7.580   5.716
25350WAT      O76291   0.513   0.985   5.926
25350WAT     H176292   0.543   1.027   6.011
25350WAT     H276293   0.428   1.029   5.895
25351WAT      O76294   1.053   0.699   7.243
25351WAT     H176295   1.036   0.644   7.325
25351WAT     H276296   0.970   0.702   7.187
25352WAT      O76297   7.737   7.827   7.669
25352WAT     H176298   7.800   7.902   7.689
25352WAT     H276299   7.701   7.790   7.755
25353WAT      O76300   7.333   4.269   3.023
25353WAT     H176301   7.418   4.218   3.038
25353WAT     H276302   7.348   4.366   3.046
25354WAT      O76303   0.861   9.023   2.938
25354WAT     H176304   0.896   8.961   3.008
25354WAT     H276305   0.805   8.972   2.873
25355WAT      O76306   0.905   1.369   5.458
25355WAT     H176307   0.878   1.283   5.503
25355WAT     H276308   0.934   1.350   5.364
25356WAT      O76309   4.118   1.516   6.125
25356WAT     H176310   4.046   1.472   6.178
25356WAT     H276311   4.160   1.589   6.180
25357WAT      O76312   3.191   5.311   5.528
25357WAT     H176313   3.251   5.233   5.510
25357WAT     H276314   3.229   5.393   5.485
25358WAT      O76315   8.173   8.994   4.614
25358WAT     H176316   8.127   9.015   4.700
25358WAT     H276317   8.209   9.079   4.574
25359WAT      O76318   3.112   7.181   4.133
25359WAT     H176319   3.209   7.198   4.150
25359WAT     H276320   3.069   7.148   4.217
25360WAT      O76321   3.089   6.570   9.210
25360WAT     H176322   3.067   6.502   9.139
25360WAT     H276323   3.004   6.611   9.243
25361WAT      O76324   4.285   3.847   9.648
25361WAT     H176325   4.294   3.932   9.596
25361WAT     H276326   4.375   3.805   9.658
25362WAT      O76327   1.942   2.861   5.744
25362WAT     H176328   1.893   2.780   5.777
25362WAT     H276329   1.963   2.921   5.821
25363WAT      O76330   5.509   8.406   8.285
25363WAT     H176331   5.438   8.372   8.347
25363WAT     H276332   5.502   8.359   8.197
25364WAT      O76333   4.081   8.652   1.294
25364WAT     H176334   4.015   8.669   1.221
25364WAT     H276335   4.070   8.721   1.365
25365WAT      O76336   5.019   4.321   8.868
25365WAT     H176337   5.059   4.412   8.866
25365WAT     H276338   5.038   4.274   8.782
25366WAT      O76339   3.907   7.216   2.384
25366WAT     H176340   3.936   7.198   2.478
25366WAT     H276341   3.875   7.311   2.376
25367WAT      O76342   0.336   3.317   2.868
25367WAT     H176343   0.274   3.304   2.945
25367WAT     H276344   0.285   3.309   2.782
25368WAT      O76345   1.834   9.128   5.531
25368WAT     H176346   1.738   9.099   5.530
25368WAT     H276347   1.879   9.094   5.449
25369WAT      O76348   8.181   2.858   0.907
25369WAT     H176349   8.130   2.772   0.908
25369WAT     H276350   8.127   2.929   0.862
25370WAT      O76351   3.494   5.534   6.036
25370WAT     H176352   3.593   5.532   6.025
25370WAT     H276353   3.468   5.609   6.097
25371WAT      O76354   0.554   2.353   1.969
25371WAT     H176355   0.498   2.412   2.026
25371WAT     H276356   0.498   2.278   1.933
25372WAT      O76357   3.034   6.351   1.693
25372WAT     H176358   3.117   6.299   1.714
25372WAT     H276359   3.054   6.449   1.696
25373WAT      O76360   9.004   3.787   1.055
25373WAT     H176361   8.974   3.691   1.057
25373WAT     H276362   8.939   3.841   1.001
25374WAT      O76363   3.063   4.156   9.519
25374WAT     H176364   3.125   4.119   9.451
25374WAT     H276365   3.013   4.081   9.563
25375WAT      O76366   2.987   6.060   0.404
25375WAT     H176367   2.932   6.019   0.476
25375WAT     H276368   2.935   6.059   0.318
25376WAT      O76369   9.379   0.797   1.800
25376WAT     H176370   9.337   0.887   1.793
25376WAT     H276371   9.311   0.732   1.836
25377WAT      O76372   6.242   9.232   5.496
25377WAT     H176373   6.161   9.190   5.537
25377WAT     H276374   6.266   9.184   5.412
25378WAT      O76375   4.198   4.641   6.197
25378WAT     H176376   4.249   4.663   6.279
25378WAT     H276377   4.253   4.660   6.116
25379WAT      O76378   8.542   3.598   9.701
25379WAT     H176379   8.568   3.545   9.621
25379WAT     H276380   8.443   3.600   9.709
25380WAT      O76381   3.415   2.305   9.290
25380WAT     H176382   3.485   2.244   9.253
25380WAT     H276383   3.393   2.278   9.384
25381WAT      O76384   8.624   6.487   4.775
25381WAT     H176385   8.554   6.544   4.818
25381WAT     H276386   8.711   6.502   4.821
25382WAT      O76387   5.980   6.693   2.421
25382WAT     H176388   6.029   6.620   2.371
25382WAT     H276389   6.030   6.715   2.505
25383WAT      O76390   8.722   5.873   9.042
25383WAT     H176391   8.787   5.798   9.030
25383WAT     H276392   8.767   5.950   9.086
25384WAT      O76393   8.620   2.259   7.399
25384WAT     H176394   8.673   2.185   7.358
25384WAT     H276395   8.677   2.309   7.464
25385WAT      O76396   1.277   9.526   4.774
25385WAT     H176397   1.210   9.458   4.804
25385WAT     H276398   1.278   9.602   4.839
25386WAT      O76399   1.280   5.931   8.481
25386WAT     H176400   1.284   6.022   8.438
25386WAT     H276401   1.188   5.894   8.472
25387WAT      O76402   5.583   0.932   9.311
25387WAT     H176403   5.490   0.968   9.319
25387WAT     H276404   5.635   0.987   9.245
25388WAT      O76405   3.997   0.969   4.429
25388WAT     H176406   3.997   0.952   4.527
25388WAT     H276407   4.067   0.913   4.385
25389WAT      O76408   0.001   4.399   1.783
25389WAT     H176409   0.049   4.348   1.855
25389WAT     H276410   0.061   4.471   1.748
25390WAT      O76411   8.472   8.902   7.280
25390WAT     H176412   8.389   8.950   7.306
25390WAT     H276413   8.449   8.808   7.252
25391WAT      O76414   1.208   6.148   7.393
25391WAT     H176415   1.225   6.216   7.321
25391WAT     H276416   1.266   6.168   7.472
25392WAT      O76417   9.177   5.062   4.763
25392WAT     H176418   9.143   5.152   4.790
25392WAT     H276419   9.226   5.020   4.840
25393WAT      O76420   1.952   0.325   3.165
25393WAT     H176421   2.016   0.379   3.112
25393WAT     H276422   1.866   0.376   3.176
25394WAT      O76423   8.771   3.789   2.504
25394WAT     H176424   8.777   3.689   2.496
25394WAT     H276425   8.747   3.814   2.597
25395WAT      O76426   7.664   2.264   7.183
25395WAT     H176427   7.665   2.289   7.280
25395WAT     H276428   7.649   2.347   7.128
25396WAT      O76429   8.199   5.820   1.529
25396WAT     H176430   8.195   5.871   1.444
25396WAT     H276431   8.294   5.812   1.559
25397WAT      O76432   8.136   6.947   1.294
25397WAT     H176433   8.208   6.880   1.274
25397WAT     H276434   8.051   6.920   1.249
25398WAT      O76435   9.215   5.142   6.041
25398WAT     H176436   9.164   5.228   6.035
25398WAT     H276437   9.188   5.083   5.964
25399WAT      O76438   7.377   4.538   0.779
25399WAT     H176439   7.380   4.533   0.679
25399WAT     H276440   7.298   4.593   0.807
25400WAT      O76441   7.790   8.002   9.563
25400WAT     H176442   7.854   7.929   9.540
25400WAT     H276443   7.785   8.068   9.487
25401WAT      O76444   9.026   2.357   0.367
25401WAT     H176445   8.990   2.267   0.390
25401WAT     H276446   9.027   2.414   0.449
25402WAT      O76447   3.473   3.210   3.940
25402WAT     H176448   3.495   3.175   4.030
25402WAT     H276449   3.554   3.207   3.881
25403WAT      O76450   8.750   0.851   7.344
25403WAT     H176451   8.729   0.770   7.398
25403WAT     H276452   8.785   0.923   7.405
25404WAT      O76453   1.700   9.348   4.777
25404WAT     H176454   1.706   9.294   4.694
25404WAT     H276455   1.654   9.435   4.758
25405WAT      O76456   9.044   1.435   1.188
25405WAT     H176457   9.112   1.424   1.116
25405WAT     H276458   9.004   1.526   1.183
25406WAT      O76459   6.156   3.385   4.062
25406WAT     H176460   6.117   3.293   4.047
25406WAT     H276461   6.158   3.405   4.160
25407WAT      O76462   4.352   8.058   4.869
25407WAT     H176463   4.275   8.118   4.892
25407WAT     H276464   4.358   8.049   4.770
25408WAT      O76465   7.949   5.706   9.249
25408WAT     H176466   7.929   5.751   9.336
25408WAT     H276467   8.026   5.751   9.205
25409WAT      O76468   0.723   0.351   8.233
25409WAT     H176469   0.732   0.437   8.182
25409WAT     H276470   0.758   0.363   8.325
25410WAT      O76471   2.747   1.755   0.663
25410WAT     H176472   2.688   1.817   0.714
25410WAT     H276473   2.843   1.772   0.689
25411WAT      O76474   5.757   3.060   2.510
25411WAT     H176475   5.807   2.974   2.504
25411WAT     H276476   5.805   3.130   2.456
25412WAT      O76477   6.961   0.394   6.977
25412WAT     H176478   7.002   0.328   6.914
25412WAT     H276479   6.959   0.484   6.934
25413WAT      O76480   1.765   8.990   3.093
25413WAT     H176481   1.764   8.891   3.096
25413WAT     H276482   1.728   9.022   3.006
25414WAT      O76483   4.778   4.225   4.285
25414WAT     H176484   4.805   4.215   4.189
25414WAT     H276485   4.766   4.321   4.307
25415WAT      O76486   1.106   4.631   6.388
25415WAT     H176487   1.186   4.572   6.390
25415WAT     H276488   1.111   4.698   6.462
25416WAT      O76489   8.549   1.196   1.188
25416WAT     H176490   8.466   1.250   1.202
25416WAT     H276491   8.616   1.220   1.258
25417WAT      O76492   2.109   5.490   1.451
25417WAT     H176493   2.087   5.425   1.525
25417WAT     H276494   2.167   5.563   1.486
25418WAT      O76495   6.363   6.793   4.241
25418WAT     H176496   6.369   6.888   4.273
25418WAT     H276497   6.328   6.792   4.147
25419WAT      O76498   2.307   1.887   7.040
25419WAT     H176499   2.406   1.894   7.030
25419WAT     H276500   2.265   1.976   7.023
25420WAT      O76501   5.448   1.941   5.664
25420WAT     H176502   5.485   1.884   5.738
25420WAT     H276503   5.364   1.901   5.630
25421WAT      O76504   3.710   3.829   0.337
25421WAT     H176505   3.700   3.732   0.315
25421WAT     H276506   3.806   3.856   0.325
25422WAT      O76507   0.936   3.140   2.655
25422WAT     H176508   1.035   3.147   2.644
25422WAT     H276509   0.899   3.077   2.587
25423WAT      O76510   1.278   1.401   0.416
25423WAT     H176511   1.246   1.481   0.466
25423WAT     H276512   1.378   1.398   0.419
25424WAT      O76513   4.661   3.004   4.868
25424WAT     H176514   4.647   3.058   4.785
25424WAT     H276515   4.654   3.064   4.948
25425WAT      O76516   0.528   0.784   6.492
25425WAT     H176517   0.545   0.685   6.497
25425WAT     H276518   0.434   0.803   6.518
25426WAT      O76519   3.739   0.237   6.782
25426WAT     H176520   3.758   0.335   6.771
25426WAT     H276521   3.824   0.186   6.770
25427WAT      O76522   2.890   2.634   7.021
25427WAT     H176523   2.956   2.563   6.998
25427WAT     H276524   2.801   2.593   7.037
25428WAT      O76525   3.837   3.288   8.793
25428WAT     H176526   3.839   3.214   8.859
25428WAT     H276527   3.788   3.258   8.711
25429WAT      O76528   8.063   9.641   4.861
25429WAT     H176529   8.091   9.736   4.878
25429WAT     H276530   7.967   9.630   4.887
25430WAT      O76531   3.548   1.526   9.885
25430WAT     H176532   3.589   1.488   9.967
25430WAT     H276533   3.504   1.453   9.832
25431WAT      O76534   3.244   7.746   3.064
25431WAT     H176535   3.306   7.765   2.988
25431WAT     H276536   3.180   7.674   3.038
25432WAT      O76537   0.873   3.561   7.689
25432WAT     H176538   0.797   3.550   7.753
25432WAT     H276539   0.852   3.633   7.624
25433WAT      O76540   4.021   4.865   2.705
25433WAT     H176541   4.120   4.856   2.722
25433WAT     H276542   4.000   4.831   2.613
25434WAT      O76543   4.612   0.206   2.902
25434WAT     H176544   4.658   0.233   2.987
25434WAT     H276545   4.670   0.229   2.824
25435WAT      O76546   3.646   7.585   5.481
25435WAT     H176547   3.653   7.586   5.581
25435WAT     H276548   3.627   7.678   5.448
25436WAT      O76549   9.589   4.540   0.523
25436WAT     H176550   9.512   4.585   0.479
25436WAT     H276551   9.574   4.441   0.524
25437WAT      O76552   4.049   8.206   9.315
25437WAT     H176553   4.008   8.298   9.308
25437WAT     H276554   4.050   8.164   9.224
25438WAT      O76555   1.463   7.792   8.241
25438WAT     H176556   1.365   7.779   8.227
25438WAT     H276557   1.510   7.794   8.153
25439WAT      O76558   7.891   7.779   2.626
25439WAT     H176559   7.972   7.830   2.654
25439WAT     H276560   7.905   7.741   2.535
25440WAT      O76561   6.504   1.440   0.958
25440WAT     H176562   6.469   1.474   0.871
25440WAT     H276563   6.517   1.516   1.021
25441WAT      O76564   6.718   7.884   0.756
25441WAT     H176565   6.696   7.813   0.690
25441WAT     H276566   6.814   7.910   0.747
25442WAT      O76567   9.595   8.280   9.600
25442WAT     H176568   9.637   8.321   9.519
25442WAT     H276569   9.530   8.209   9.571
25443WAT      O76570   3.452   3.247   7.056
25443WAT     H176571   3.366   3.278   7.097
25443WAT     H276572   3.436   3.163   7.004
25444WAT      O76573   8.412   8.909   2.009
25444WAT     H176574   8.400   8.880   2.104
25444WAT     H276575   8.387   8.834   1.948
25445WAT      O76576   4.666   9.289   2.565
25445WAT     H176577   4.736   9.361   2.565
25445WAT     H276578   4.711   9.200   2.569
25446WAT      O76579   3.432   8.040   7.608
25446WAT     H176580   3.455   7.943   7.609
25446WAT     H276581   3.445   8.078   7.700
25447WAT      O76582   3.520   8.006   9.614
25447WAT     H176583   3.500   7.978   9.708
25447WAT     H276584   3.616   8.030   9.606
25448WAT      O76585   6.003   2.531   5.733
25448WAT     H176586   6.014   2.624   5.770
25448WAT     H276587   5.910   2.500   5.750
25449WAT      O76588   1.657   0.313   2.524
25449WAT     H176589   1.612   0.283   2.608
25449WAT     H276590   1.725   0.383   2.547
25450WAT      O76591   5.438   0.832   6.071
25450WAT     H176592   5.352   0.836   6.019
25450WAT     H276593   5.515   0.830   6.007
25451WAT      O76594   7.939   1.754   3.228
25451WAT     H176595   7.929   1.716   3.319
25451WAT     H276596   7.974   1.685   3.165
25452WAT      O76597   1.562   1.907   1.872
25452WAT     H176598   1.507   1.988   1.891
25452WAT     H276599   1.655   1.920   1.906
25453WAT      O76600   6.827   0.459   4.616
25453WAT     H176601   6.831   0.360   4.605
25453WAT     H276602   6.754   0.496   4.559
25454WAT      O76603   5.462   7.088   9.364
25454WAT     H176604   5.552   7.132   9.358
25454WAT     H276605   5.459   7.029   9.444
25455WAT      O76606   3.276   9.296   5.880
25455WAT     H176607   3.253   9.393   5.875
25455WAT     H276608   3.282   9.258   5.788
25456WAT      O76609   8.598   2.180   3.985
25456WAT     H176610   8.609   2.166   3.886
25456WAT     H276611   8.622   2.096   4.033
25457WAT      O76612   2.414   6.107   4.014
25457WAT     H176613   2.394   6.015   4.047
25457WAT     H276614   2.497   6.105   3.958
25458WAT      O76615   8.640   2.980   2.357
25458WAT     H176616   8.673   3.007   2.267
25458WAT     H276617   8.562   3.037   2.383
25459WAT      O76618   7.579   3.404   8.048
25459WAT     H176619   7.660   3.375   8.098
25459WAT     H276620   7.603   3.479   7.986
25460WAT      O76621   1.468   2.653   8.596
25460WAT     H176622   1.379   2.644   8.640
25460WAT     H276623   1.456   2.650   8.496
25461WAT      O76624   1.342   2.602   7.158
25461WAT     H176625   1.247   2.608   7.190
25461WAT     H276626   1.394   2.544   7.221
25462WAT      O76627   9.139   3.820   6.068
25462WAT     H176628   9.175   3.905   6.028
25462WAT     H276629   9.055   3.841   6.118
25463WAT      O76630   1.708   2.914   6.299
25463WAT     H176631   1.784   2.964   6.342
25463WAT     H276632   1.622   2.944   6.340
25464WAT      O76633   6.121   2.686   6.357
25464WAT     H176634   6.199   2.622   6.357
25464WAT     H276635   6.042   2.642   6.400
25465WAT      O76636   7.050   7.745   2.177
25465WAT     H176637   7.061   7.784   2.269
25465WAT     H276638   7.106   7.797   2.112
25466WAT      O76639   8.513   1.020   0.266
25466WAT     H176640   8.601   1.065   0.250
25466WAT     H276641   8.504   0.999   0.363
25467WAT      O76642   2.630   8.180   8.601
25467WAT     H176643   2.563   8.245   8.637
25467WAT     H276644   2.632   8.099   8.659
25468WAT      O76645   6.515   6.041   8.136
25468WAT     H176646   6.519   5.961   8.197
25468WAT     H276647   6.446   6.025   8.065
25469WAT      O76648   5.299   6.734   8.791
25469WAT     H176649   5.319   6.699   8.699
25469WAT     H276650   5.244   6.667   8.841
25470WAT      O76651   6.831   4.226   5.486
25470WAT     H176652   6.863   4.144   5.535
25470WAT     H276653   6.861   4.308   5.534
25471WAT      O76654   6.684   2.902   4.497
25471WAT     H176655   6.585   2.917   4.498
25471WAT     H276656   6.706   2.825   4.438
25472WAT      O76657   7.734   5.831   1.013
25472WAT     H176658   7.730   5.772   0.933
25472WAT     H276659   7.827   5.829   1.052
25473WAT      O76660   1.208   6.654   8.702
25473WAT     H176661   1.112   6.651   8.676
25473WAT     H276662   1.218   6.699   8.791
25474WAT      O76663   6.547   2.304   0.930
25474WAT     H176664   6.485   2.225   0.927
25474WAT     H276665   6.632   2.278   0.974
25475WAT      O76666   7.642   9.596   7.045
25475WAT     H176667   7.588   9.554   6.972
25475WAT     H276668   7.592   9.590   7.131
25476WAT      O76669   3.448   0.994   5.944
25476WAT     H176670   3.370   0.939   5.915
25476WAT     H276671   3.416   1.072   5.997
25477WAT      O76672   3.842   5.624   0.249
25477WAT     H176673   3.916   5.660   0.192
25477WAT     H276674   3.762   5.683   0.241
25478WAT      O76675   0.646   4.901   0.400
25478WAT     H176676   0.737   4.939   0.413
25478WAT     H276677   0.602   4.945   0.322
25479WAT      O76678   7.388   6.729   6.139
25479WAT     H176679   7.459   6.732   6.210
25479WAT     H276680   7.406   6.651   6.079
25480WAT      O76681   1.270   6.335   6.403
25480WAT     H176682   1.321   6.253   6.429
25480WAT     H276683   1.214   6.316   6.322
25481WAT      O76684   3.427   1.562   5.115
25481WAT     H176685   3.504   1.512   5.156
25481WAT     H276686   3.346   1.552   5.173
25482WAT      O76687   3.998   9.572   6.945
25482WAT     H176688   4.082   9.523   6.965
25482WAT     H276689   4.018   9.654   6.892
25483WAT      O76690   5.878   2.920   6.859
25483WAT     H176691   5.978   2.910   6.851
25483WAT     H276692   5.855   3.017   6.870
25484WAT      O76693   4.437   2.316   4.970
25484WAT     H176694   4.505   2.388   4.980
25484WAT     H276695   4.481   2.227   4.979
25485WAT      O76696   0.703   6.753   8.962
25485WAT     H176697   0.676   6.676   8.904
25485WAT     H276698   0.672   6.737   9.055
25486WAT      O76699   9.230   5.858   7.504
25486WAT     H176700   9.300   5.798   7.544
25486WAT     H276701   9.241   5.950   7.541
25487WAT      O76702   5.066   0.659   7.743
25487WAT     H176703   5.062   0.576   7.687
25487WAT     H276704   5.016   0.733   7.697
25488WAT      O76705   3.325   0.497   9.415
25488WAT     H176706   3.253   0.553   9.455
25488WAT     H276707   3.378   0.454   9.488
25489WAT      O76708   6.277   5.546   4.354
25489WAT     H176709   6.196   5.585   4.310
25489WAT     H276710   6.256   5.524   4.450
25490WAT      O76711   6.625   1.221   6.517
25490WAT     H176712   6.532   1.258   6.517
25490WAT     H276713   6.680   1.268   6.586
25491WAT      O76714   4.578   0.357   6.457
25491WAT     H176715   4.564   0.258   6.448
25491WAT     H276716   4.517   0.392   6.529
25492WAT      O76717   6.818   7.675   3.825
25492WAT     H176718   6.775   7.615   3.893
25492WAT     H276719   6.807   7.634   3.734
25493WAT      O76720   7.186   7.987   7.561
25493WAT     H176721   7.229   8.077   7.571
25493WAT     H276722   7.257   7.918   7.547
25494WAT      O76723   0.034   0.004   9.143
25494WAT     H176724   0.015   0.010   9.045
25494WAT     H276725   0.122   0.048   9.162
25495WAT      O76726   1.602   1.510   3.258
25495WAT     H176727   1.555   1.583   3.209
25495WAT     H276728   1.565   1.422   3.228
25496WAT      O76729   7.273   5.036   0.157
25496WAT     H176730   7.274   5.026   0.058
25496WAT     H276731   7.367   5.049   0.190
25497WAT      O76732   9.499   6.845   8.800
25497WAT     H176733   9.503   6.798   8.712
25497WAT     H276734   9.488   6.943   8.786
25498WAT      O76735   4.941   0.551   1.992
25498WAT     H176736   4.997   0.623   2.033
25498WAT     H276737   4.920   0.482   2.061
25499WAT      O76738   6.117   9.121   4.538
25499WAT     H176739   6.102   9.209   4.493
25499WAT     H276740   6.132   9.050   4.469
25500WAT      O76741   5.597   1.716   2.468
25500WAT     H176742   5.590   1.666   2.382
25500WAT     H276743   5.662   1.792   2.457
25501WAT      O76744   5.962   9.048   9.146
25501WAT     H176745   5.908   9.082   9.222
25501WAT     H276746   6.013   9.123   9.104
25502WAT      O76747   2.885   0.846   4.967
25502WAT     H176748   2.940   0.796   4.900
25502WAT     H276749   2.876   0.942   4.938
25503WAT      O76750   1.132   6.679   7.492
25503WAT     H176751   1.042   6.642   7.469
25503WAT     H276752   1.200   6.642   7.428
25504WAT      O76753   9.395   8.128   3.139
25504WAT     H176754   9.297   8.148   3.144
25504WAT     H276755   9.428   8.142   3.045
25505WAT      O76756   5.669   7.478   8.042
25505WAT     H176757   5.713   7.392   8.020
25505WAT     H276758   5.655   7.485   8.141
25506WAT      O76759   8.651   5.844   1.049
25506WAT     H176760   8.744   5.826   1.015
25506WAT     H276761   8.646   5.938   1.082
25507WAT      O76762   7.517   8.928   4.818
25507WAT     H176763   7.435   8.881   4.848
25507WAT     H276764   7.495   9.023   4.794
25508WAT      O76765   4.729   2.319   2.046
25508WAT     H176766   4.724   2.359   1.954
25508WAT     H276767   4.776   2.231   2.041
25509WAT      O76768   7.295   9.631   9.394
25509WAT     H176769   7.305   9.538   9.430
25509WAT     H276770   7.208   9.670   9.424
25510WAT      O76771   5.798   1.790   1.216
25510WAT     H176772   5.804   1.803   1.315
25510WAT     H276773   5.888   1.761   1.182
25511WAT      O76774   5.633   2.959   0.084
25511WAT     H176775   5.540   2.972   0.049
25511WAT     H276776   5.637   2.989   0.179
25512WAT      O76777   2.805   9.635   8.057
25512WAT     H176778   2.725   9.611   8.000
25512WAT     H276779   2.793   9.726   8.094
25513WAT      O76780   5.798   2.741   8.060
25513WAT     H176781   5.721   2.753   8.122
25513WAT     H276782   5.792   2.806   7.985
25514WAT      O76783   0.706   8.776   0.259
25514WAT     H176784   0.649   8.807   0.335
25514WAT     H276785   0.653   8.782   0.174
25515WAT      O76786   8.813   5.457   2.886
25515WAT     H176787   8.809   5.555   2.906
25515WAT     H276788   8.896   5.437   2.834
25516WAT      O76789   3.141   6.676   7.256
25516WAT     H176790   3.070   6.641   7.195
25516WAT     H276791   3.231   6.652   7.219
25517WAT      O76792   7.122   5.539   1.897
25517WAT     H176793   7.106   5.474   1.971
25517WAT     H276794   7.037   5.553   1.846
25518WAT      O76795   3.645   2.200   6.250
25518WAT     H176796   3.711   2.235   6.317
25518WAT     H276797   3.682   2.118   6.208
25519WAT      O76798   4.642   7.925   0.584
25519WAT     H176799   4.740   7.924   0.600
25519WAT     H276800   4.593   7.899   0.667
25520WAT      O76801   1.399   4.405   0.532
25520WAT     H176802   1.438   4.392   0.441
25520WAT     H276803   1.302   4.428   0.524
25521WAT      O76804   1.625   7.297   8.302
25521WAT     H176805   1.578   7.259   8.221
25521WAT     H276806   1.558   7.311   8.375
25522WAT      O76807   1.213   8.825   7.089
25522WAT     H176808   1.184   8.767   7.166
25522WAT     H276809   1.243   8.914   7.124
25523WAT      O76810   2.520   6.647   0.193
25523WAT     H176811   2.579   6.656   0.273
25523WAT     H276812   2.577   6.638   0.111
25524WAT      O76813   3.400   6.016   3.487
25524WAT     H176814   3.357   6.046   3.402
25524WAT     H276815   3.371   5.922   3.507
25525WAT      O76816   1.500   0.627   6.251
25525WAT     H176817   1.490   0.573   6.168
25525WAT     H276818   1.532   0.568   6.326
25526WAT      O76819   6.614   3.397   4.785
25526WAT     H176820   6.531   3.437   4.746
25526WAT     H276821   6.647   3.455   4.860
25527WAT      O76822   8.095   8.177   9.339
25527WAT     H176823   8.164   8.177   9.266
25527WAT     H276824   8.087   8.085   9.377
25528WAT      O76825   5.595   4.410   9.869
25528WAT     H176826   5.521   4.437   9.930
25528WAT     H276827   5.578   4.318   9.834
25529WAT      O76828   8.354   9.450   3.164
25529WAT     H176829   8.301   9.429   3.246
25529WAT     H276830   8.342   9.547   3.140
25530WAT      O76831   4.880   0.011   2.304
25530WAT     H176832   4.824  -0.023   2.229
25530WAT     H276833   4.974   0.024   2.273
25531WAT      O76834   5.397   4.542   1.787
25531WAT     H176835   5.479   4.589   1.753
25531WAT     H276836   5.385   4.562   1.884
25532WAT      O76837   2.087   8.397   0.088
25532WAT     H176838   2.025   8.376   0.013
25532WAT     H276839   2.036   8.397   0.175
25533WAT      O76840   7.060   4.710   6.331
25533WAT     H176841   7.028   4.760   6.250
25533WAT     H276842   7.148   4.747   6.361
25534WAT      O76843   3.327   5.138   1.838
25534WAT     H176844   3.296   5.077   1.765
25534WAT     H276845   3.253   5.201   1.863
25535WAT      O76846   9.125   1.430   9.095
25535WAT     H176847   9.091   1.474   9.179
25535WAT     H276848   9.182   1.496   9.045
25536WAT      O76849   3.951   7.311   7.815
25536WAT     H176850   3.963   7.212   7.807
25536WAT     H276851   3.942   7.350   7.723
25537WAT      O76852   5.261   9.045   6.857
25537WAT     H176853   5.324   9.090   6.793
25537WAT     H276854   5.186   9.003   6.806
25538WAT      O76855   2.289   2.777   7.114
25538WAT     H176856   2.214   2.831   7.076
25538WAT     H276857   2.345   2.740   7.039
25539WAT      O76858   7.759   4.736   4.834
25539WAT     H176859   7.681   4.779   4.878
25539WAT     H276860   7.728   4.687   4.752
25540WAT      O76861   6.220   5.412   7.007
25540WAT     H176862   6.121   5.401   7.000
25540WAT     H276863   6.262   5.322   7.017
25541WAT      O76864   1.715   6.669   1.031
25541WAT     H176865   1.690   6.756   0.990
25541WAT     H276866   1.760   6.611   0.963
25542WAT      O76867   2.306   0.695   5.113
25542WAT     H176868   2.288   0.793   5.105
25542WAT     H276869   2.390   0.680   5.165
25543WAT      O76870   4.857   2.925   8.125
25543WAT     H176871   4.858   2.846   8.187
25543WAT     H276872   4.936   2.921   8.064
25544WAT      O76873   6.302   9.577   5.932
25544WAT     H176874   6.312   9.478   5.925
25544WAT     H276875   6.220   9.606   5.882
25545WAT      O76876   8.960   0.853   0.195
25545WAT     H176877   8.957   0.757   0.222
25545WAT     H276878   8.910   0.865   0.109
25546WAT      O76879   1.685   6.312   9.163
25546WAT     H176880   1.715   6.394   9.213
25546WAT     H276881   1.666   6.336   9.068
25547WAT      O76882   2.193   9.208   9.328
25547WAT     H176883   2.160   9.265   9.253
25547WAT     H276884   2.115   9.160   9.369
25548WAT      O76885   5.074   8.935   6.728
25548WAT     H176886   5.020   9.005   6.682
25548WAT     H276887   5.111   8.872   6.660
25549WAT      O76888   4.260   7.296   5.765
25549WAT     H176889   4.342   7.245   5.738
25549WAT     H276890   4.280   7.349   5.847
25550WAT      O76891   6.544   6.527   4.863
25550WAT     H176892   6.555   6.565   4.955
25550WAT     H276893   6.590   6.439   4.858
25551WAT      O76894   8.809   2.359   1.048
25551WAT     H176895   8.800   2.309   0.962
25551WAT     H276896   8.743   2.435   1.049
25552WAT      O76897   3.864   6.325   3.817
25552WAT     H176898   3.944   6.316   3.877
25552WAT     H276899   3.803   6.396   3.854
25553WAT      O76900   9.146   2.219   4.557
25553WAT     H176901   9.162   2.236   4.460
25553WAT     H276902   9.048   2.213   4.574
25554WAT      O76903   5.802   7.086   8.280
25554WAT     H176904   5.899   7.107   8.272
25554WAT     H276905   5.747   7.165   8.253
25555WAT      O76906   2.326   1.993   1.527
25555WAT     H176907   2.231   1.969   1.505
25555WAT     H276908   2.367   1.921   1.583
25556WAT      O76909   8.865   0.267   4.546
25556WAT     H176910   8.926   0.340   4.514
25556WAT     H276911   8.809   0.235   4.470
25557WAT      O76912   1.192   9.331   3.074
25557WAT     H176913   1.290   9.349   3.078
25557WAT     H276914   1.142   9.412   3.105
25558WAT      O76915   4.106   8.105   7.475
25558WAT     H176916   4.149   8.151   7.398
25558WAT     H276917   4.146   8.139   7.560
25559WAT      O76918   5.503   3.663   0.961
25559WAT     H176919   5.513   3.588   0.897
25559WAT     H276920   5.411   3.703   0.951
25560WAT      O76921   0.944   1.673   5.158
25560WAT     H176922   0.926   1.695   5.062
25560WAT     H276923   1.041   1.690   5.178
25561WAT      O76924   6.520   5.219   0.162
25561WAT     H176925   6.617   5.229   0.181
25561WAT     H276926   6.494   5.122   0.169
25562WAT      O76927   3.936   5.355   2.412
25562WAT     H176928   3.983   5.281   2.365
25562WAT     H276929   3.916   5.428   2.347
25563WAT      O76930   4.576   0.559   5.999
25563WAT     H176931   4.674   0.574   5.986
25563WAT     H276932   4.526   0.640   5.969
25564WAT      O76933   8.373   5.463   0.231
25564WAT     H176934   8.308   5.467   0.155
25564WAT     H276935   8.402   5.555   0.254
25565WAT      O76936   1.283   3.744   2.227
25565WAT     H176937   1.275   3.829   2.176
25565WAT     H276938   1.301   3.668   2.163
25566WAT      O76939   8.482   2.685   8.833
25566WAT     H176940   8.446   2.764   8.883
25566WAT     H276941   8.408   2.640   8.783
25567WAT      O76942   9.533   1.456   5.820
25567WAT     H176943   9.576   1.511   5.891
25567WAT     H276944   9.590   1.456   5.738
25568WAT      O76945   9.003   2.557   6.082
25568WAT     H176946   9.103   2.557   6.075
25568WAT     H276947   8.972   2.643   6.122
25569WAT      O76948   2.300   7.051   5.840
25569WAT     H176949   2.202   7.052   5.855
25569WAT     H276950   2.345   7.005   5.916
25570WAT      O76951   7.782   7.771   3.205
25570WAT     H176952   7.802   7.771   3.107
25570WAT     H276953   7.730   7.853   3.228
25571WAT      O76954   9.798   8.475   6.814
25571WAT     H176955   9.846   8.481   6.901
25571WAT     H276956   9.729   8.548   6.809
25572WAT      O76957   1.172   4.553   0.571
25572WAT     H176958   1.136   4.610   0.496
25572WAT     H276959   1.115   4.566   0.652
25573WAT      O76960   7.271   0.349   3.750
25573WAT     H176961   7.190   0.313   3.703
25573WAT     H276962   7.243   0.418   3.817
25574WAT      O76963   2.279   3.344   2.509
25574WAT     H176964   2.239   3.411   2.572
25574WAT     H276965   2.377   3.335   2.526
25575WAT      O76966   2.579   2.477   8.051
25575WAT     H176967   2.588   2.575   8.029
25575WAT     H276968   2.527   2.432   7.979
25576WAT      O76969   0.857   9.187   8.800
25576WAT     H176970   0.885   9.199   8.704
25576WAT     H276971   0.846   9.089   8.819
25577WAT      O76972   7.074   2.976   8.984
25577WAT     H176973   7.063   3.008   9.078
25577WAT     H276974   7.166   3.000   8.951
25578WAT      O76975   7.505   2.319   4.980
25578WAT     H176976   7.499   2.416   5.004
25578WAT     H276977   7.522   2.310   4.882
25579WAT      O76978   6.839   3.290   7.626
25579WAT     H176979   6.935   3.298   7.654
25579WAT     H276980   6.821   3.355   7.553
25580WAT      O76981   8.003   3.332   5.688
25580WAT     H176982   7.972   3.240   5.715
25580WAT     H276983   7.965   3.355   5.599
25581WAT      O76984   3.972   9.695   2.259
25581WAT     H176985   3.935   9.700   2.352
25581WAT     H276986   4.070   9.677   2.263
25582WAT      O76987   6.133   8.891   0.049
25582WAT     H176988   6.216   8.902   0.104
25582WAT     H276989   6.116   8.793   0.035
25583WAT      O76990   9.066   9.617   1.469
25583WAT     H176991   9.126   9.554   1.419
25583WAT     H276992   9.101   9.710   1.460
25584WAT      O76993   0.666   6.048   5.854
25584WAT     H176994   0.707   6.131   5.891
25584WAT     H276995   0.658   6.056   5.755
25585WAT      O76996   6.409   9.524   8.939
25585WAT     H176997   6.467   9.603   8.922
25585WAT     H276998   6.324   9.553   8.982
25586WAT      O76999   8.911   5.330   5.156
25586WAT     H177000   8.842   5.348   5.226
25586WAT     H277001   8.867   5.289   5.076
25587WAT      O77002   8.509   7.154   3.411
25587WAT     H177003   8.528   7.248   3.382
25587WAT     H277004   8.415   7.130   3.389
25588WAT      O77005   4.015   0.564   8.201
25588WAT     H177006   4.029   0.568   8.300
25588WAT     H277007   3.954   0.637   8.173
25589WAT      O77008   0.473   4.266   9.317
25589WAT     H177009   0.404   4.239   9.249
25589WAT     H277010   0.513   4.354   9.291
25590WAT      O77011   1.887   5.418   2.706
25590WAT     H177012   1.817   5.477   2.745
25590WAT     H277013   1.846   5.332   2.674
25591WAT      O77014   5.657   5.804   4.280
25591WAT     H177015   5.643   5.795   4.181
25591WAT     H277016   5.706   5.889   4.299
25592WAT      O77017   6.489   8.161   0.144
25592WAT     H177018   6.477   8.214   0.228
25592WAT     H277019   6.433   8.079   0.148
25593WAT      O77020   9.869   1.479   4.429
25593WAT     H177021   9.963   1.499   4.399
25593WAT     H277022   9.812   1.561   4.415
25594WAT      O77023   9.026   5.596   5.132
25594WAT     H177024   9.116   5.628   5.161
25594WAT     H277025   9.013   5.502   5.162
25595WAT      O77026   8.573   3.513   5.017
25595WAT     H177027   8.568   3.464   5.104
25595WAT     H277028   8.570   3.611   5.033
25596WAT      O77029   1.484   6.279   8.582
25596WAT     H177030   1.406   6.317   8.632
25596WAT     H277031   1.549   6.238   8.646
25597WAT      O77032   8.856   6.915   6.494
25597WAT     H177033   8.928   6.949   6.554
25597WAT     H277034   8.896   6.870   6.414
25598WAT      O77035   6.240   0.443   1.349
25598WAT     H177036   6.209   0.518   1.289
25598WAT     H277037   6.164   0.414   1.407
25599WAT      O77038   3.867   4.160   6.401
25599WAT     H177039   3.958   4.141   6.366
25599WAT     H277040   3.865   4.144   6.500
25600WAT      O77041   7.574   3.439   8.810
25600WAT     H177042   7.601   3.533   8.829
25600WAT     H277043   7.504   3.410   8.875
25601WAT      O77044   8.864   6.088   6.594
25601WAT     H177045   8.823   6.176   6.570
25601WAT     H277046   8.947   6.104   6.648
25602WAT      O77047   8.677   9.074   3.628
25602WAT     H177048   8.712   9.025   3.548
25602WAT     H277049   8.707   9.170   3.624
25603WAT      O77050   0.493   4.959   5.070
25603WAT     H177051   0.466   5.056   5.068
25603WAT     H277052   0.465   4.919   5.157
25604WAT      O77053   6.554   7.446   8.947
25604WAT     H177054   6.583   7.351   8.961
25604WAT     H277055   6.634   7.503   8.929
25605WAT      O77056   7.006   1.653   3.058
25605WAT     H177057   6.949   1.730   3.028
25605WAT     H277058   7.076   1.635   2.990
25606WAT      O77059   2.709   0.640   6.782
25606WAT     H177060   2.744   0.626   6.875
25606WAT     H277061   2.688   0.551   6.741
25607WAT      O77062   0.487   8.195   0.452
25607WAT     H177063   0.535   8.276   0.418
25607WAT     H277064   0.496   8.121   0.385
25608WAT      O77065   5.490   0.041   7.161
25608WAT     H177066   5.417   0.108   7.140
25608WAT     H277067   5.450  -0.037   7.210
25609WAT      O77068   4.882   2.332   0.130
25609WAT     H177069   4.864   2.302   0.036
25609WAT     H277070   4.862   2.257   0.193
25610WAT      O77071   0.605   3.084   9.358
25610WAT     H177072   0.554   3.004   9.390
25610WAT     H277073   0.560   3.121   9.276
25611WAT      O77074   1.436   0.856   9.408
25611WAT     H177075   1.435   0.778   9.346
25611WAT     H277076   1.505   0.841   9.479
25612WAT      O77077   5.405   9.189   4.313
25612WAT     H177078   5.346   9.132   4.370
25612WAT     H277079   5.393   9.285   4.338
25613WAT      O77080   7.604   1.009   2.414
25613WAT     H177081   7.507   0.987   2.404
25613WAT     H277082   7.647   1.012   2.324
25614WAT      O77083   5.420   5.940   0.949
25614WAT     H177084   5.435   5.869   1.018
25614WAT     H277085   5.388   6.024   0.993
25615WAT      O77086   6.403   0.639   5.232
25615WAT     H177087   6.373   0.564   5.291
25615WAT     H277088   6.469   0.696   5.281
25616WAT      O77089   3.953   1.828   1.488
25616WAT     H177090   3.872   1.883   1.469
25616WAT     H277091   3.934   1.732   1.469
25617WAT      O77092   8.834   3.660   4.686
25617WAT     H177093   8.767   3.734   4.698
25617WAT     H277094   8.866   3.659   4.592
25618WAT      O77095   3.830   1.889   5.050
25618WAT     H177096   3.814   1.816   4.984
25618WAT     H277097   3.756   1.956   5.044
25619WAT      O77098   1.042   1.012   2.001
25619WAT     H177099   0.994   1.017   1.913
25619WAT     H277100   1.017   1.090   2.057
25620WAT      O77101   8.769   8.544   0.889
25620WAT     H177102   8.822   8.501   0.817
25620WAT     H277103   8.827   8.557   0.970
25621WAT      O77104   1.115   2.837   1.519
25621WAT     H177105   1.133   2.854   1.616
25621WAT     H277106   1.202   2.833   1.469
25622WAT      O77107   7.302   5.401   1.746
25622WAT     H177108   7.380   5.412   1.808
25622WAT     H277109   7.224   5.454   1.779
25623WAT      O77110   0.856   1.859   4.559
25623WAT     H177111   0.861   1.948   4.516
25623WAT     H277112   0.761   1.829   4.564
25624WAT      O77113   9.046   8.104   6.939
25624WAT     H177114   8.982   8.028   6.927
25624WAT     H277115   9.066   8.144   6.849
25625WAT      O77116   9.602   0.611   3.906
25625WAT     H177117   9.526   0.548   3.922
25625WAT     H277118   9.688   0.562   3.918
25626WAT      O77119   4.324   8.741   6.551
25626WAT     H177120   4.318   8.831   6.508
25626WAT     H277121   4.242   8.723   6.605
25627WAT      O77122   7.017   7.720   6.351
25627WAT     H177123   6.969   7.708   6.438
25627WAT     H277124   7.013   7.636   6.299
25628WAT      O77125   3.436   3.504   1.424
25628WAT     H177126   3.346   3.517   1.466
25628WAT     H277127   3.445   3.410   1.393
25629WAT      O77128   3.613   8.906   5.921
25629WAT     H177129   3.561   8.991   5.929
25629WAT     H277130   3.686   8.918   5.853
25630WAT      O77131   6.190   9.564   5.096
25630WAT     H177132   6.248   9.630   5.049
25630WAT     H277133   6.214   9.472   5.066
25631WAT      O77134   3.407   9.347   0.704
25631WAT     H177135   3.345   9.399   0.644
25631WAT     H277136   3.360   9.264   0.735
25632WAT      O77137   1.358   1.958   0.133
25632WAT     H177138   1.417   1.976   0.212
25632WAT     H277139   1.295   1.884   0.155
25633WAT      O77140   1.473   9.020   1.460
25633WAT     H177141   1.555   9.010   1.517
25633WAT     H277142   1.463   8.939   1.402
25634WAT      O77143   7.989   2.836   9.616
25634WAT     H177144   7.995   2.740   9.644
25634WAT     H277145   7.901   2.852   9.571
25635WAT      O77146   1.444   0.003   1.392
25635WAT     H177147   1.381  -0.056   1.443
25635WAT     H277148   1.519   0.031   1.452
25636WAT      O77149   6.280   8.505   0.700
25636WAT     H177150   6.257   8.508   0.797
25636WAT     H277151   6.317   8.415   0.677
25637WAT      O77152   4.010   6.494   8.606
25637WAT     H177153   3.945   6.422   8.582
25637WAT     H277154   4.089   6.455   8.653
25638WAT      O77155   0.047   2.047   2.881
25638WAT     H177156   0.082   1.960   2.848
25638WAT     H277157   0.023   2.039   2.977
25639WAT      O77158   0.716   7.287   8.433
25639WAT     H177159   0.714   7.301   8.334
25639WAT     H277160   0.627   7.253   8.464
25640WAT      O77161   5.014   6.664   0.260
25640WAT     H177162   5.078   6.740   0.249
25640WAT     H277163   5.059   6.588   0.307
25641WAT      O77164   1.377   3.452   4.292
25641WAT     H177165   1.289   3.410   4.313
25641WAT     H277166   1.366   3.551   4.285
25642WAT      O77167   0.169   7.034   4.541
25642WAT     H177168   0.225   7.054   4.621
25642WAT     H277169   0.151   6.936   4.537
25643WAT      O77170   3.225   1.362   7.015
25643WAT     H177171   3.262   1.366   7.108
25643WAT     H277172   3.298   1.338   6.951
25644WAT      O77173   6.736   4.303   9.055
25644WAT     H177174   6.662   4.259   9.107
25644WAT     H277175   6.740   4.400   9.079
25645WAT      O77176   4.493   1.647   6.288
25645WAT     H177177   4.405   1.690   6.306
25645WAT     H277178   4.479   1.551   6.262
25646WAT      O77179   3.579   4.637   6.246
25646WAT     H177180   3.560   4.646   6.148
25646WAT     H277181   3.570   4.541   6.273
25647WAT      O77182   7.615   4.110   1.262
25647WAT     H177183   7.679   4.053   1.210
25647WAT     H277184   7.523   4.071   1.255
25648WAT      O77185   3.668   1.488   7.659
25648WAT     H177186   3.682   1.397   7.699
25648WAT     H277187   3.754   1.539   7.662
25649WAT      O77188   2.452   6.302   9.144
25649WAT     H177189   2.490   6.323   9.234
25649WAT     H277190   2.437   6.203   9.136
25650WAT      O77191   3.278   8.520   3.576
25650WAT     H177192   3.322   8.609   3.573
25650WAT     H277193   3.334   8.457   3.629
25651WAT      O77194   3.110   3.779   1.500
25651WAT     H177195   3.170   3.782   1.420
25651WAT     H277196   3.101   3.685   1.532
25652WAT      O77197   1.099   1.734   7.708
25652WAT     H177198   1.141   1.800   7.770
25652WAT     H277199   1.003   1.722   7.732
25653WAT      O77200   9.153   1.262   7.868
25653WAT     H177201   9.154   1.163   7.855
25653WAT     H277202   9.219   1.305   7.806
25654WAT      O77203   6.710   2.822   8.296
25654WAT     H177204   6.795   2.860   8.258
25654WAT     H277205   6.730   2.738   8.345
25655WAT      O77206   4.531   3.076   8.643
25655WAT     H177207   4.594   3.138   8.596
25655WAT     H277208   4.518   3.105   8.737
25656WAT      O77209   7.934   4.467   9.311
25656WAT     H177210   7.874   4.390   9.290
25656WAT     H277211   8.029   4.441   9.292
25657WAT      O77212   4.008   9.434   6.384
25657WAT     H177213   4.070   9.355   6.377
25657WAT     H277214   3.980   9.463   6.292
25658WAT      O77215   4.203   1.033   7.714
25658WAT     H177216   4.287   1.026   7.769
25658WAT     H277217   4.124   1.017   7.773
25659WAT      O77218   6.059   1.906   3.213
25659WAT     H177219   6.066   1.806   3.211
25659WAT     H277220   6.055   1.940   3.119
25660WAT      O77221   2.800   9.748   5.118
25660WAT     H177222   2.859   9.775   5.193
25660WAT     H277223   2.761   9.830   5.076
25661WAT      O77224   3.460   2.824   3.363
25661WAT     H177225   3.436   2.730   3.387
25661WAT     H277226   3.557   2.839   3.385
25662WAT      O77227   2.462   3.917   1.163
25662WAT     H177228   2.532   3.860   1.206
25662WAT     H277229   2.496   3.950   1.075
25663WAT      O77230   6.180   9.812   5.380
25663WAT     H177231   6.201   9.910   5.371
25663WAT     H277232   6.263   9.759   5.364
25664WAT      O77233   4.962   3.538   6.896
25664WAT     H177234   5.001   3.565   6.808
25664WAT     H277235   4.879   3.484   6.880
25665WAT      O77236   6.763   2.415   3.407
25665WAT     H177237   6.748   2.463   3.321
25665WAT     H277238   6.815   2.473   3.470
25666WAT      O77239   5.668   1.574   9.161
25666WAT     H177240   5.749   1.619   9.123
25666WAT     H277241   5.604   1.553   9.088
25667WAT      O77242   4.953   1.120   5.814
25667WAT     H177243   5.026   1.187   5.817
25667WAT     H277244   4.865   1.166   5.803
25668WAT      O77245   9.874   8.962   6.263
25668WAT     H177246   9.843   8.932   6.172
25668WAT     H277247   9.889   9.061   6.262
25669WAT      O77248   1.312   0.044   7.906
25669WAT     H177249   1.252   0.023   7.830
25669WAT     H277250   1.278   0.124   7.955
25670WAT      O77251   9.320   6.336   2.567
25670WAT     H177252   9.292   6.327   2.472
25670WAT     H277253   9.394   6.403   2.574
25671WAT      O77254   0.516   8.883   4.707
25671WAT     H177255   0.596   8.847   4.756
25671WAT     H277256   0.484   8.816   4.641
25672WAT      O77257   5.122   2.490   5.570
25672WAT     H177258   5.115   2.438   5.485
25672WAT     H277259   5.037   2.540   5.586
25673WAT      O77260   3.636   1.236   6.674
25673WAT     H177261   3.597   1.227   6.582
25673WAT     H277262   3.564   1.264   6.738
25674WAT      O77263   0.058   5.364   4.914
25674WAT     H177264   0.131   5.296   4.916
25674WAT     H277265  -0.018   5.334   4.971
25675WAT      O77266   4.197   0.764   9.143
25675WAT     H177267   4.175   0.729   9.234
25675WAT     H277268   4.114   0.797   9.099
25676WAT      O77269   9.682   6.269   5.613
25676WAT     H177270   9.763   6.211   5.608
25676WAT     H277271   9.674   6.322   5.529
25677WAT      O77272   9.103   5.755   9.611
25677WAT     H177273   9.162   5.733   9.689
25677WAT     H277274   9.117   5.851   9.585
25678WAT      O77275   5.392   0.171   7.508
25678WAT     H177276   5.297   0.168   7.540
25678WAT     H277277   5.432   0.079   7.513
25679WAT      O77278   3.683   7.891   8.016
25679WAT     H177279   3.701   7.987   7.998
25679WAT     H277280   3.769   7.840   8.018
25680WAT      O77281   9.557   3.578   0.854
25680WAT     H177282   9.614   3.568   0.773
25680WAT     H277283   9.585   3.511   0.923
25681WAT      O77284   2.023   8.488   1.750
25681WAT     H177285   2.074   8.513   1.832
25681WAT     H277286   1.986   8.396   1.760
25682WAT      O77287   5.660   4.588   1.715
25682WAT     H177288   5.721   4.630   1.782
25682WAT     H277289   5.708   4.513   1.669
25683WAT      O77290   9.478   8.607   6.463
25683WAT     H177291   9.384   8.639   6.470
25683WAT     H277292   9.536   8.657   6.528
25684WAT      O77293   0.038   0.725   3.013
25684WAT     H177294   0.043   0.715   2.914
25684WAT     H277295  -0.004   0.813   3.036
25685WAT      O77296   6.006   3.842   5.431
25685WAT     H177297   6.090   3.842   5.486
25685WAT     H277298   5.942   3.908   5.469
25686WAT      O77299   9.802   2.678   9.211
25686WAT     H177300   9.873   2.666   9.142
25686WAT     H277301   9.716   2.639   9.177
25687WAT      O77302   2.910   0.421   0.471
25687WAT     H177303   2.915   0.476   0.388
25687WAT     H277304   2.867   0.474   0.544
25688WAT      O77305   8.062   9.265   1.737
25688WAT     H177306   8.107   9.189   1.690
25688WAT     H277307   7.980   9.232   1.785
25689WAT      O77308   8.820   0.414   6.404
25689WAT     H177309   8.721   0.398   6.405
25689WAT     H277310   8.837   0.512   6.392
25690WAT      O77311   4.981   2.464   2.920
25690WAT     H177312   4.965   2.408   3.002
25690WAT     H277313   5.029   2.409   2.851
25691WAT      O77314   8.393   6.598   8.807
25691WAT     H177315   8.342   6.515   8.830
25691WAT     H277316   8.437   6.585   8.718
25692WAT      O77317   3.880   7.081   4.974
25692WAT     H177318   3.812   7.052   5.041
25692WAT     H277319   3.835   7.101   4.887
25693WAT      O77320   0.006   8.056   1.765
25693WAT     H177321  -0.060   8.130   1.754
25693WAT     H277322   0.047   8.034   1.677
25694WAT      O77323   3.636   9.055   7.153
25694WAT     H177324   3.684   9.129   7.104
25694WAT     H277325   3.575   9.009   7.089
25695WAT      O77326   9.467   5.190   7.663
25695WAT     H177327   9.540   5.242   7.618
25695WAT     H277328   9.384   5.245   7.667
25696WAT      O77329   7.177   6.140   5.339
25696WAT     H177330   7.153   6.187   5.424
25696WAT     H277331   7.219   6.052   5.360
25697WAT      O77332   3.740   4.957   2.051
25697WAT     H177333   3.727   4.959   2.150
25697WAT     H277334   3.801   5.031   2.023
25698WAT      O77335   6.964   5.346   5.974
25698WAT     H177336   6.921   5.436   5.986
25698WAT     H277337   7.059   5.357   5.945
25699WAT      O77338   7.751   8.261   6.736
25699WAT     H177339   7.707   8.320   6.668
25699WAT     H277340   7.704   8.173   6.740
25700WAT      O77341   1.970   8.828   3.651
25700WAT     H177342   1.939   8.737   3.625
25700WAT     H277343   1.925   8.856   3.735
25701WAT      O77344   6.868   2.253   1.685
25701WAT     H177345   6.880   2.176   1.622
25701WAT     H277346   6.872   2.339   1.633
25702WAT      O77347   2.209   9.318   4.267
25702WAT     H177348   2.174   9.274   4.184
25702WAT     H277349   2.221   9.248   4.338
25703WAT      O77350   3.571   3.969   6.137
25703WAT     H177351   3.473   3.963   6.119
25703WAT     H277352   3.600   3.891   6.193
25704WAT      O77353   1.408   0.602   6.581
25704WAT     H177354   1.434   0.608   6.677
25704WAT     H277355   1.406   0.694   6.541
25705WAT      O77356   1.970   2.282   9.374
25705WAT     H177357   1.917   2.202   9.402
25705WAT     H277358   1.917   2.365   9.392
25706WAT      O77359   8.559   9.378   5.074
25706WAT     H177360   8.501   9.341   5.147
25706WAT     H277361   8.505   9.441   5.018
25707WAT      O77362   0.946   0.237   5.058
25707WAT     H177363   0.849   0.251   5.038
25707WAT     H277364   0.995   0.222   4.973
25708WAT      O77365   6.188   6.053   5.918
25708WAT     H177366   6.180   6.004   5.831
25708WAT     H277367   6.177   6.151   5.902
25709WAT      O77368   7.278   7.334   4.304
25709WAT     H177369   7.305   7.253   4.253
25709WAT     H277370   7.305   7.416   4.254
25710WAT      O77371   9.648   7.743   2.842
25710WAT     H177372   9.645   7.674   2.915
25710WAT     H277373   9.679   7.701   2.757
25711WAT      O77374   0.751   2.886   1.280
25711WAT     H177375   0.759   2.955   1.208
25711WAT     H277376   0.737   2.931   1.368
25712WAT      O77377   2.482   4.543   0.931
25712WAT     H177378   2.409   4.608   0.955
25712WAT     H277379   2.527   4.512   1.015
25713WAT      O77380   3.416   0.833   2.105
25713WAT     H177381   3.374   0.819   2.015
25713WAT     H277382   3.384   0.764   2.169
25714WAT      O77383   7.475   7.789   2.224
25714WAT     H177384   7.493   7.710   2.281
25714WAT     H277385   7.486   7.873   2.278
25715WAT      O77386   8.241   3.341   7.242
25715WAT     H177387   8.174   3.266   7.241
25715WAT     H277388   8.315   3.319   7.306
25716WAT      O77389   2.488   7.279   9.257
25716WAT     H177390   2.533   7.274   9.346
25716WAT     H277391   2.467   7.374   9.236
25717WAT      O77392   1.992   5.169   8.005
25717WAT     H177393   1.919   5.135   8.064
25717WAT     H277394   2.080   5.154   8.049
25718WAT      O77395   8.541   5.041   4.943
25718WAT     H177396   8.540   5.068   5.039
25718WAT     H277397   8.482   5.103   4.891
25719WAT      O77398   8.127   8.303   7.786
25719WAT     H177399   8.059   8.302   7.859
25719WAT     H277400   8.207   8.354   7.815
25720WAT      O77401   7.188   3.804   3.286
25720WAT     H177402   7.091   3.780   3.291
25720WAT     H277403   7.205   3.884   3.343
25721WAT      O77404   7.793   6.219   7.960
25721WAT     H177405   7.818   6.252   7.869
25721WAT     H277406   7.693   6.220   7.968
25722WAT      O77407   1.815   2.660   8.515
25722WAT     H177408   1.799   2.746   8.468
25722WAT     H277409   1.913   2.645   8.525
25723WAT      O77410   4.615   1.181   6.741
25723WAT     H177411   4.560   1.099   6.755
25723WAT     H277412   4.673   1.196   6.821
25724WAT      O77413   8.398   0.989   1.118
25724WAT     H177414   8.311   1.026   1.088
25724WAT     H277415   8.454   1.063   1.157
25725WAT      O77416   5.489   0.038   2.866
25725WAT     H177417   5.510   0.074   2.957
25725WAT     H277418   5.534   0.093   2.796
25726WAT      O77419   3.240   1.798   5.570
25726WAT     H177420   3.162   1.836   5.621
25726WAT     H277421   3.210   1.772   5.478
25727WAT      O77422   6.578   4.753   2.997
25727WAT     H177423   6.637   4.828   2.968
25727WAT     H277424   6.556   4.763   3.094
25728WAT      O77425   2.587   1.713   3.524
25728WAT     H177426   2.528   1.635   3.504
25728WAT     H277427   2.554   1.759   3.606
25729WAT      O77428   5.889   6.142   9.249
25729WAT     H177429   5.961   6.077   9.223
25729WAT     H277430   5.819   6.094   9.302
25730WAT      O77431   9.259   2.391   3.201
25730WAT     H177432   9.267   2.292   3.195
25730WAT     H277433   9.342   2.429   3.242
25731WAT      O77434   9.123   6.754   7.075
25731WAT     H177435   9.068   6.830   7.040
25731WAT     H277436   9.125   6.758   7.175
25732WAT      O77437   0.611   3.870   9.051
25732WAT     H177438   0.572   3.901   8.965
25732WAT     H277439   0.537   3.854   9.117
25733WAT      O77440   5.846   6.470   7.868
25733WAT     H177441   5.809   6.562   7.880
25733WAT     H277442   5.885   6.462   7.776
25734WAT      O77443   9.099   0.850   4.635
25734WAT     H177444   9.073   0.891   4.547
25734WAT     H277445   9.036   0.882   4.706
25735WAT      O77446   9.073   8.319   2.996
25735WAT     H177447   8.991   8.368   2.967
25735WAT     H277448   9.046   8.232   3.038
25736WAT      O77449   3.261   2.104   5.568
25736WAT     H177450   3.215   2.135   5.651
25736WAT     H277451   3.242   2.007   5.553
25737WAT      O77452   9.484   0.812   7.330
25737WAT     H177453   9.513   0.869   7.253
25737WAT     H277454   9.564   0.784   7.382
25738WAT      O77455   6.689   4.531   7.220
25738WAT     H177456   6.695   4.628   7.199
25738WAT     H277457   6.703   4.517   7.318
25739WAT      O77458   3.883   5.853   3.039
25739WAT     H177459   3.796   5.887   3.075
25739WAT     H277460   3.874   5.756   3.018
25740WAT      O77461   8.489   8.284   3.869
25740WAT     H177462   8.489   8.217   3.943
25740WAT     H277463   8.439   8.366   3.899
25741WAT      O77464   1.716   3.004   0.894
25741WAT     H177465   1.797   2.990   0.949
25741WAT     H277466   1.734   3.076   0.826
25742WAT      O77467   5.878   8.991   3.726
25742WAT     H177468   5.922   9.075   3.761
25742WAT     H277469   5.911   8.913   3.779
25743WAT      O77470   5.392   4.174   4.310
25743WAT     H177471   5.375   4.079   4.281
25743WAT     H277472   5.358   4.236   4.240
25744WAT      O77473   0.034   8.578   0.737
25744WAT     H177474   0.102   8.530   0.792
25744WAT     H277475  -0.021   8.512   0.686
25745WAT      O77476   0.374   2.607   3.548
25745WAT     H177477   0.286   2.618   3.503
25745WAT     H277478   0.440   2.566   3.485
25746WAT      O77479   0.015   1.244   6.728
25746WAT     H177480  -0.048   1.166   6.723
25746WAT     H277481  -0.008   1.301   6.807
25747WAT      O77482   5.684   7.935   8.714
25747WAT     H177483   5.654   7.951   8.808
25747WAT     H277484   5.770   7.885   8.715
25748WAT      O77485   5.658   7.858   3.671
25748WAT     H177486   5.569   7.904   3.672
25748WAT     H277487   5.691   7.848   3.765
25749WAT      O77488   3.614   2.818   8.528
25749WAT     H177489   3.567   2.741   8.570
25749WAT     H277490   3.596   2.819   8.430
25750WAT      O77491   1.954   8.794   0.824
25750WAT     H177492   1.906   8.879   0.846
25750WAT     H277493   2.030   8.814   0.763
25751WAT      O77494   6.951   8.890   3.805
25751WAT     H177495   6.910   8.866   3.718
25751WAT     H277496   6.966   8.807   3.859
25752WAT      O77497   2.844   8.335   8.566
25752WAT     H177498   2.775   8.271   8.600
25752WAT     H277499   2.810   8.428   8.573
25753WAT      O77500   2.336   8.161   4.422
25753WAT     H177501   2.394   8.176   4.501
25753WAT     H277502   2.392   8.151   4.340
25754WAT      O77503   7.989   3.780   0.866
25754WAT     H177504   8.079   3.821   0.878
25754WAT     H277505   7.989   3.724   0.782
25755WAT      O77506   0.380   6.925   6.184
25755WAT     H177507   0.342   6.912   6.276
25755WAT     H277508   0.384   7.023   6.163
25756WAT      O77509   1.839   1.805   3.132
25756WAT     H177510   1.897   1.834   3.056
25756WAT     H277511   1.858   1.861   3.213
25757WAT      O77512   6.278   6.233   2.146
25757WAT     H177513   6.322   6.209   2.059
25757WAT     H277514   6.179   6.224   2.137
25758WAT      O77515   2.536   7.453   6.268
25758WAT     H177516   2.522   7.479   6.364
25758WAT     H277517   2.620   7.400   6.259
25759WAT      O77518   5.273   2.993   5.474
25759WAT     H177519   5.215   2.935   5.415
25759WAT     H277520   5.219   3.069   5.508
25760WAT      O77521   7.967   1.572   1.760
25760WAT     H177522   8.066   1.567   1.752
25760WAT     H277523   7.941   1.585   1.856
25761WAT      O77524   4.788   4.585   2.683
25761WAT     H177525   4.881   4.591   2.719
25761WAT     H277526   4.768   4.490   2.659
25762WAT      O77527   9.696   1.360   2.349
25762WAT     H177528   9.713   1.375   2.251
25762WAT     H277529   9.721   1.442   2.400
25763WAT      O77530   7.672   4.753   0.051
25763WAT     H177531   7.621   4.800  -0.022
25763WAT     H277532   7.610   4.736   0.127
25764WAT      O77533   4.779   9.667   3.250
25764WAT     H177534   4.782   9.760   3.286
25764WAT     H277535   4.760   9.670   3.152
25765WAT      O77536   3.297   2.499   4.163
25765WAT     H177537   3.336   2.466   4.077
25765WAT     H277538   3.370   2.507   4.231
25766WAT      O77539   8.954   2.189   4.250
25766WAT     H177540   9.044   2.231   4.240
25766WAT     H277541   8.890   2.255   4.290
25767WAT      O77542   5.346   7.122   5.967
25767WAT     H177543   5.353   7.213   5.925
25767WAT     H277544   5.416   7.113   6.038
25768WAT      O77545   9.282   3.392   1.730
25768WAT     H177546   9.358   3.340   1.691
25768WAT     H277547   9.312   3.486   1.748
25769WAT      O77548   4.405   2.083   5.869
25769WAT     H177549   4.499   2.110   5.892
25769WAT     H277550   4.385   2.111   5.775
25770WAT      O77551   4.040   4.264   7.366
25770WAT     H177552   3.967   4.208   7.407
25770WAT     H277553   4.037   4.254   7.266
25771WAT      O77554   4.615   9.547   3.901
25771WAT     H177555   4.630   9.642   3.873
25771WAT     H277556   4.527   9.515   3.865
25772WAT      O77557   0.538   0.340   3.905
25772WAT     H177558   0.493   0.412   3.852
25772WAT     H277559   0.477   0.311   3.979
25773WAT      O77560   7.825   7.308   6.523
25773WAT     H177561   7.769   7.241   6.473
25773WAT     H277562   7.890   7.260   6.581
25774WAT      O77563   7.363   9.541   2.183
25774WAT     H177564   7.403   9.610   2.243
25774WAT     H277565   7.264   9.539   2.194
25775WAT      O77566   3.014   3.075   1.304
25775WAT     H177567   2.919   3.052   1.326
25775WAT     H277568   3.023   3.173   1.291
25776WAT      O77569   4.619   1.578   5.548
25776WAT     H177570   4.714   1.546   5.547
25776WAT     H277571   4.570   1.534   5.623
25777WAT      O77572   2.896   0.613   7.181
25777WAT     H177573   2.806   0.598   7.139
25777WAT     H277574   2.964   0.628   7.110
25778WAT      O77575   5.718   6.883   5.183
25778WAT     H177576   5.653   6.807   5.173
25778WAT     H277577   5.673   6.959   5.229
25779WAT      O77578   0.065   5.572   5.105
25779WAT     H177579   0.052   5.504   5.034
25779WAT     H277580  -0.024   5.607   5.135
25780WAT      O77581   0.026   1.765   0.192
25780WAT     H177582  -0.045   1.715   0.142
25780WAT     H277583  -0.015   1.842   0.241
25781WAT      O77584   7.892   6.372   6.454
25781WAT     H177585   7.967   6.317   6.419
25781WAT     H277586   7.867   6.340   6.546
25782WAT      O77587   0.149   3.478   6.336
25782WAT     H177588   0.173   3.443   6.246
25782WAT     H277589   0.152   3.577   6.336
25783WAT      O77590   5.970   3.891   8.340
25783WAT     H177591   5.997   3.816   8.280
25783WAT     H277592   6.052   3.933   8.380
25784WAT      O77593   6.915   3.687   7.091
25784WAT     H177594   6.841   3.740   7.051
25784WAT     H277595   6.948   3.620   7.025
25785WAT      O77596   0.122   7.605   3.455
25785WAT     H177597   0.160   7.657   3.531
25785WAT     H277598   0.148   7.649   3.368
25786WAT      O77599   1.993   5.215   6.995
25786WAT     H177600   1.973   5.239   6.900
25786WAT     H277601   2.089   5.235   7.016
25787WAT      O77602   8.265   0.373   7.685
25787WAT     H177603   8.247   0.288   7.636
25787WAT     H277604   8.336   0.357   7.753
25788WAT      O77605   4.150   8.672   9.594
25788WAT     H177606   4.097   8.729   9.532
25788WAT     H277607   4.229   8.635   9.545
25789WAT      O77608   3.758   3.710   8.959
25789WAT     H177609   3.749   3.767   9.041
25789WAT     H277610   3.854   3.689   8.944
25790WAT      O77611   0.666   9.103   0.605
25790WAT     H177612   0.597   9.031   0.611
25790WAT     H277613   0.679   9.129   0.509
25791WAT      O77614   2.568   8.595   8.809
25791WAT     H177615   2.504   8.668   8.787
25791WAT     H277616   2.567   8.577   8.907
25792WAT      O77617   8.959   3.886   2.283
25792WAT     H177618   9.032   3.818   2.276
25792WAT     H277619   8.913   3.877   2.372
25793WAT      O77620   9.656   6.964   7.369
25793WAT     H177621   9.719   6.928   7.301
25793WAT     H277622   9.643   6.896   7.442
25794WAT      O77623   7.032   9.646   9.431
25794WAT     H177624   6.965   9.590   9.480
25794WAT     H277625   7.048   9.608   9.340
25795WAT      O77626   1.236   3.750   4.555
25795WAT     H177627   1.313   3.811   4.536
25795WAT     H277628   1.258   3.693   4.635
25796WAT      O77629   8.121   4.924   4.531
25796WAT     H177630   8.119   4.870   4.614
25796WAT     H277631   8.122   4.863   4.451
25797WAT      O77632   7.432   1.181   6.214
25797WAT     H177633   7.402   1.134   6.297
25797WAT     H277634   7.359   1.178   6.146
25798WAT      O77635   6.994   9.358   4.592
25798WAT     H177636   7.034   9.450   4.588
25798WAT     H277637   7.015   9.317   4.680
25799WAT      O77638   7.260   7.361   9.254
25799WAT     H177639   7.278   7.374   9.156
25799WAT     H277640   7.220   7.444   9.292
25800WAT      O77641   6.066   9.639   2.871
25800WAT     H177642   6.102   9.732   2.878
25800WAT     H277643   6.134   9.581   2.826
25801WAT      O77644   6.831   4.907   3.192
25801WAT     H177645   6.844   4.865   3.282
25801WAT     H277646   6.800   5.001   3.203
25802WAT      O77647   5.935   8.170   6.877
25802WAT     H177648   5.999   8.139   6.947
25802WAT     H277649   5.892   8.256   6.907
25803WAT      O77650   3.678   0.646   3.843
25803WAT     H177651   3.770   0.623   3.810
25803WAT     H277652   3.637   0.564   3.884
25804WAT      O77653   2.535   6.518   7.686
25804WAT     H177654   2.550   6.428   7.728
25804WAT     H277655   2.618   6.546   7.638
25805WAT      O77656   6.288   3.987   0.308
25805WAT     H177657   6.252   4.027   0.223
25805WAT     H277658   6.387   3.996   0.309
25806WAT      O77659   0.736   7.225   9.422
25806WAT     H177660   0.776   7.300   9.476
25806WAT     H277661   0.797   7.146   9.423
25807WAT      O77662   8.504   5.361   6.075
25807WAT     H177663   8.586   5.306   6.064
25807WAT     H277664   8.505   5.436   6.009
25808WAT      O77665   4.915   2.998   2.549
25808WAT     H177666   4.963   2.915   2.576
25808WAT     H277667   4.924   3.011   2.450
25809WAT      O77668   5.148   9.412   1.184
25809WAT     H177669   5.119   9.501   1.220
25809WAT     H277670   5.159   9.418   1.085
25810WAT      O77671   5.217   3.561   9.026
25810WAT     H177672   5.193   3.655   9.004
25810WAT     H277673   5.139   3.515   9.067
25811WAT      O77674   5.817   0.469   5.971
25811WAT     H177675   5.874   0.418   6.035
25811WAT     H277676   5.757   0.406   5.922
25812WAT      O77677   0.904   2.828   2.786
25812WAT     H177678   0.985   2.794   2.739
25812WAT     H277679   0.925   2.913   2.833
25813WAT      O77680   8.878   3.451   5.096
25813WAT     H177681   8.828   3.537   5.107
25813WAT     H277682   8.920   3.449   5.006
25814WAT      O77683   4.279   3.638   7.321
25814WAT     H177684   4.207   3.575   7.348
25814WAT     H277685   4.364   3.615   7.370
25815WAT      O77686   6.693   8.874   4.621
25815WAT     H177687   6.674   8.786   4.665
25815WAT     H277688   6.667   8.949   4.682
25816WAT      O77689   8.413   9.429   4.543
25816WAT     H177690   8.390   9.342   4.585
25816WAT     H277691   8.352   9.500   4.577
25817WAT      O77692   2.795   6.181   9.681
25817WAT     H177693   2.879   6.159   9.631
25817WAT     H277694   2.749   6.096   9.708
25818WAT      O77695   3.255   4.385   3.948
25818WAT     H177696   3.209   4.435   3.875
25818WAT     H277697   3.223   4.291   3.950
25819WAT      O77698   4.514   7.782   7.626
25819WAT     H177699   4.564   7.818   7.548
25819WAT     H277700   4.450   7.852   7.659
25820WAT      O77701   0.067   8.963   9.246
25820WAT     H177702   0.165   8.947   9.236
25820WAT     H277703   0.042   9.045   9.195
25821WAT      O77704   9.385   8.021   4.762
25821WAT     H177705   9.457   8.004   4.695
25821WAT     H277706   9.313   7.952   4.752
25822WAT      O77707   3.756   9.548   4.110
25822WAT     H177708   3.830   9.560   4.176
25822WAT     H277709   3.784   9.481   4.041
25823WAT      O77710   7.586   0.248   5.777
25823WAT     H177711   7.622   0.269   5.868
25823WAT     H277712   7.645   0.290   5.707
25824WAT      O77713   9.263   8.545   9.516
25824WAT     H177714   9.173   8.587   9.511
25824WAT     H277715   9.331   8.606   9.476
25825WAT      O77716   2.393   4.026   8.554
25825WAT     H177717   2.471   3.964   8.560
25825WAT     H277718   2.367   4.038   8.459
25826WAT      O77719   9.118   8.948   9.497
25826WAT     H177720   9.057   8.878   9.535
25826WAT     H277721   9.174   8.986   9.571
25827WAT      O77722   9.404   8.145   2.880
25827WAT     H177723   9.361   8.206   2.814
25827WAT     H277724   9.449   8.070   2.830
25828WAT      O77725   5.347   2.655   8.094
25828WAT     H177726   5.342   2.689   8.000
25828WAT     H277727   5.257   2.621   8.123
25829WAT      O77728   0.100   8.648   3.498
25829WAT     H177729   0.159   8.644   3.418
25829WAT     H277730   0.150   8.618   3.579
25830WAT      O77731   2.891   4.545   4.773
25830WAT     H177732   2.872   4.464   4.717
25830WAT     H277733   2.955   4.520   4.845
25831WAT      O77734   6.795   1.792   2.360
25831WAT     H177735   6.838   1.848   2.290
25831WAT     H277736   6.698   1.781   2.340
25832WAT      O77737   1.470   8.774   6.946
25832WAT     H177738   1.372   8.785   6.962
25832WAT     H277739   1.492   8.677   6.942
25833WAT      O77740   6.667   8.123   7.158
25833WAT     H177741   6.752   8.086   7.196
25833WAT     H277742   6.622   8.052   7.104
25834WAT      O77743   7.710   6.563   4.715
25834WAT     H177744   7.699   6.523   4.806
25834WAT     H277745   7.623   6.559   4.666
25835WAT      O77746   0.731   4.237   0.690
25835WAT     H177747   0.643   4.216   0.733
25835WAT     H277748   0.805   4.202   0.747
25836WAT      O77749   6.258   7.415   5.984
25836WAT     H177750   6.310   7.425   5.899
25836WAT     H277751   6.222   7.504   6.011
25837WAT      O77752   3.326   1.133   3.328
25837WAT     H177753   3.390   1.110   3.402
25837WAT     H277754   3.275   1.216   3.353
25838WAT      O77755   6.004   5.818   8.866
25838WAT     H177756   5.951   5.766   8.799
25838WAT     H277757   6.084   5.859   8.822
25839WAT      O77758   8.646   3.745   7.886
25839WAT     H177759   8.728   3.758   7.941
25839WAT     H277760   8.596   3.665   7.919
25840WAT      O77761   6.824   8.057   3.978
25840WAT     H177762   6.771   7.993   3.922
25840WAT     H277763   6.859   8.131   3.921
25841WAT      O77764   6.738   3.855   5.114
25841WAT     H177765   6.662   3.871   5.177
25841WAT     H277766   6.722   3.905   5.029
25842WAT      O77767   3.816   3.641   8.001
25842WAT     H177768   3.915   3.649   8.006
25842WAT     H277769   3.786   3.560   8.052
25843WAT      O77770   9.220   0.348   7.565
25843WAT     H177771   9.249   0.376   7.473
25843WAT     H277772   9.216   0.428   7.625
25844WAT      O77773   3.098   3.831   6.302
25844WAT     H177774   3.047   3.762   6.251
25844WAT     H277775   3.040   3.911   6.317
25845WAT      O77776   3.671   7.980   1.420
25845WAT     H177777   3.644   7.898   1.471
25845WAT     H277778   3.746   7.957   1.357
25846WAT      O77779   4.141   5.445   3.261
25846WAT     H177780   4.159   5.542   3.273
25846WAT     H277781   4.046   5.426   3.285
25847WAT      O77782   5.867   7.551   4.497
25847WAT     H177783   5.925   7.610   4.552
25847WAT     H277784   5.872   7.580   4.401
25848WAT      O77785   6.572   7.981   4.396
25848WAT     H177786   6.544   8.065   4.350
25848WAT     H277787   6.494   7.943   4.446
25849WAT      O77788   5.307   0.751   2.310
25849WAT     H177789   5.279   0.844   2.333
25849WAT     H277790   5.395   0.732   2.352
25850WAT      O77791   1.559   1.404   6.255
25850WAT     H177792   1.638   1.345   6.267
25850WAT     H277793   1.529   1.401   6.160
25851WAT      O77794   0.921   8.291   9.433
25851WAT     H177795   0.890   8.322   9.343
25851WAT     H277796   0.914   8.367   9.498
25852WAT      O77797   8.475   9.480   9.384
25852WAT     H177798   8.451   9.385   9.402
25852WAT     H277799   8.424   9.541   9.445
25853WAT      O77800   4.182   7.653   6.183
25853WAT     H177801   4.231   7.594   6.248
25853WAT     H277802   4.084   7.635   6.192
25854WAT      O77803   7.874   7.450   4.745
25854WAT     H177804   7.789   7.402   4.723
25854WAT     H277805   7.929   7.459   4.662
25855WAT      O77806   2.666   7.432   1.534
25855WAT     H177807   2.575   7.469   1.517
25855WAT     H277808   2.676   7.409   1.630
25856WAT      O77809   4.961   6.369   7.540
25856WAT     H177810   4.926   6.283   7.501
25856WAT     H277811   4.918   6.386   7.628
25857WAT      O77812   4.998   7.760   3.891
25857WAT     H177813   5.095   7.781   3.882
25857WAT     H277814   4.974   7.757   3.988
25858WAT      O77815   9.569   9.039   5.903
25858WAT     H177816   9.510   8.972   5.947
25858WAT     H277817   9.527   9.130   5.909
25859WAT      O77818   2.008   7.881   8.614
25859WAT     H177819   2.004   7.910   8.709
25859WAT     H277820   1.932   7.819   8.595
25860WAT      O77821   2.942   8.295   8.195
25860WAT     H177822   2.859   8.347   8.219
25860WAT     H277823   3.004   8.353   8.142
25861WAT      O77824   8.927   6.776   6.249
25861WAT     H177825   8.847   6.725   6.216
25861WAT     H277826   8.995   6.783   6.176
25862WAT      O77827   2.333   8.049   7.275
25862WAT     H177828   2.288   7.990   7.341
25862WAT     H277829   2.426   8.017   7.259
25863WAT      O77830   8.733   8.376   2.751
25863WAT     H177831   8.635   8.358   2.760
25863WAT     H277832   8.765   8.426   2.832
25864WAT      O77833   5.171   1.236   5.858
25864WAT     H177834   5.160   1.196   5.949
25864WAT     H277835   5.207   1.329   5.867
25865WAT      O77836   0.145   5.633   0.121
25865WAT     H177837   0.162   5.550   0.067
25865WAT     H277838   0.195   5.627   0.207
25866WAT      O77839   7.389   7.983   7.173
25866WAT     H177840   7.324   8.055   7.197
25866WAT     H277841   7.422   7.998   7.079
25867WAT      O77842   0.703   8.542   5.867
25867WAT     H177843   0.641   8.559   5.943
25867WAT     H277844   0.797   8.540   5.901
25868WAT      O77845   1.856   3.505   2.996
25868WAT     H177846   1.765   3.520   2.957
25868WAT     H277847   1.858   3.535   3.091
25869WAT      O77848   1.076   3.631   1.414
25869WAT     H177849   1.144   3.705   1.421
25869WAT     H277850   1.021   3.629   1.497
25870WAT      O77851   9.604   3.588   5.641
25870WAT     H177852   9.519   3.638   5.624
25870WAT     H277853   9.617   3.520   5.569
25871WAT      O77854   3.400   5.347   8.751
25871WAT     H177855   3.482   5.291   8.744
25871WAT     H277856   3.322   5.289   8.777
25872WAT      O77857   7.538   7.180   8.431
25872WAT     H177858   7.558   7.224   8.343
25872WAT     H277859   7.489   7.245   8.490
25873WAT      O77860   6.400   2.305   3.787
25873WAT     H177861   6.442   2.387   3.750
25873WAT     H277862   6.376   2.319   3.883
25874WAT      O77863   6.681   6.843   3.419
25874WAT     H177864   6.658   6.752   3.383
25874WAT     H277865   6.599   6.900   3.420
25875WAT      O77866   1.537   0.281   4.242
25875WAT     H177867   1.529   0.230   4.156
25875WAT     H277868   1.633   0.282   4.271
25876WAT      O77869   9.363   2.798   0.918
25876WAT     H177870   9.369   2.894   0.948
25876WAT     H277871   9.443   2.748   0.950
25877WAT      O77872   7.383   9.808   8.696
25877WAT     H177873   7.299   9.816   8.642
25877WAT     H277874   7.454   9.866   8.658
25878WAT      O77875   1.242   8.106   4.763
25878WAT     H177876   1.229   8.141   4.670
25878WAT     H277877   1.318   8.041   4.764
25879WAT      O77878   9.782   5.436   0.063
25879WAT     H177879   9.732   5.373   0.003
25879WAT     H277880   9.873   5.452   0.026
25880WAT      O77881   7.336   2.088   5.361
25880WAT     H177882   7.365   1.993   5.374
25880WAT     H277883   7.411   2.149   5.385
25881WAT      O77884   0.629   7.578   9.608
25881WAT     H177885   0.671   7.656   9.561
25881WAT     H277886   0.535   7.601   9.634
25882WAT      O77887   3.674   3.743   5.828
25882WAT     H177888   3.609   3.811   5.861
25882WAT     H277889   3.750   3.735   5.893
25883WAT      O77890   3.006   5.450   6.105
25883WAT     H177891   2.937   5.437   6.033
25883WAT     H277892   3.093   5.478   6.063
25884WAT      O77893   8.437   6.926   3.862
25884WAT     H177894   8.346   6.946   3.898
25884WAT     H277895   8.464   6.997   3.797
25885WAT      O77896   4.676   8.437   6.056
25885WAT     H177897   4.766   8.404   6.028
25885WAT     H277898   4.678   8.459   6.153
25886WAT      O77899   2.723   8.048   6.958
25886WAT     H177900   2.754   8.050   6.863
25886WAT     H277901   2.714   8.141   6.992
25887WAT      O77902   9.096   2.813   9.243
25887WAT     H177903   9.093   2.865   9.328
25887WAT     H277904   9.180   2.760   9.238
25888WAT      O77905   7.259   9.143   9.820
25888WAT     H177906   7.262   9.174   9.915
25888WAT     H277907   7.291   9.049   9.814
25889WAT      O77908   6.085   1.734   0.541
25889WAT     H177909   6.010   1.714   0.605
25889WAT     H277910   6.066   1.691   0.453
25890WAT      O77911   0.015   5.260   7.225
25890WAT     H177912  -0.018   5.249   7.131
25890WAT     H277913   0.114   5.245   7.227
25891WAT      O77914   5.221   5.021   6.678
25891WAT     H177915   5.184   4.930   6.697
25891WAT     H277916   5.314   5.028   6.714
25892WAT      O77917   9.180   4.828   7.017
25892WAT     H177918   9.150   4.761   6.949
25892WAT     H277919   9.278   4.817   7.033
25893WAT      O77920   4.061   0.621   9.553
25893WAT     H177921   3.998   0.642   9.479
25893WAT     H277922   4.075   0.522   9.558
25894WAT      O77923   0.482   9.441   6.306
25894WAT     H177924   0.507   9.424   6.401
25894WAT     H277925   0.408   9.509   6.302
25895WAT      O77926   4.881   6.477   3.771
25895WAT     H177927   4.818   6.399   3.762
25895WAT     H277928   4.866   6.541   3.695
25896WAT      O77929   8.855   8.774   5.370
25896WAT     H177930   8.844   8.824   5.456
25896WAT     H277931   8.837   8.677   5.387
25897WAT      O77932   9.225   0.216   0.234
25897WAT     H177933   9.304   0.269   0.264
25897WAT     H277934   9.151   0.226   0.301
25898WAT      O77935   5.068   6.607   6.786
25898WAT     H177936   5.053   6.705   6.777
25898WAT     H277937   5.148   6.590   6.843
25899WAT      O77938   5.144   2.533   4.661
25899WAT     H177939   5.211   2.523   4.587
25899WAT     H277940   5.099   2.445   4.677
25900WAT      O77941   8.347   8.255   3.298
25900WAT     H177942   8.253   8.263   3.329
25900WAT     H277943   8.396   8.188   3.355
25901WAT      O77944   7.084   6.006   0.103
25901WAT     H177945   7.038   6.033   0.019
25901WAT     H277946   7.183   6.014   0.091
25902WAT      O77947   9.128   7.219   8.136
25902WAT     H177948   9.125   7.314   8.106
25902WAT     H277949   9.182   7.165   8.072
25903WAT      O77950   7.059   0.252   3.124
25903WAT     H177951   7.039   0.313   3.048
25903WAT     H277952   7.101   0.168   3.090
25904WAT      O77953   5.348   7.302   9.025
25904WAT     H177954   5.432   7.293   9.078
25904WAT     H277955   5.319   7.397   9.023
25905WAT      O77956   1.858   8.227   2.492
25905WAT     H177957   1.954   8.242   2.513
25905WAT     H277958   1.830   8.287   2.417
25906WAT      O77959   8.645   1.774   9.753
25906WAT     H177960   8.633   1.767   9.852
25906WAT     H277961   8.596   1.855   9.720
25907WAT      O77962   6.545   4.807   2.572
25907WAT     H177963   6.517   4.892   2.616
25907WAT     H277964   6.473   4.738   2.583
25908WAT      O77965   6.471   2.957   2.577
25908WAT     H177966   6.453   2.913   2.489
25908WAT     H277967   6.406   2.923   2.645
25909WAT      O77968   3.997   3.229   7.122
25909WAT     H177969   3.897   3.219   7.117
25909WAT     H277970   4.028   3.210   7.215
25910WAT      O77971   4.908   0.719   7.059
25910WAT     H177972   4.856   0.723   7.144
25910WAT     H277973   4.856   0.763   6.986
25911WAT      O77974   8.642   7.744   3.682
25911WAT     H177975   8.680   7.810   3.618
25911WAT     H277976   8.716   7.696   3.729
25912WAT      O77977   1.227   6.179   3.686
25912WAT     H177978   1.186   6.091   3.661
25912WAT     H277979   1.230   6.239   3.607
25913WAT      O77980   1.306   8.539   6.615
25913WAT     H177981   1.222   8.586   6.587
25913WAT     H277982   1.303   8.521   6.713
25914WAT      O77983   6.327   2.263   4.465
25914WAT     H177984   6.266   2.247   4.542
25914WAT     H277985   6.417   2.292   4.497
25915WAT      O77986   0.667   0.601   9.597
25915WAT     H177987   0.632   0.532   9.661
25915WAT     H277988   0.601   0.676   9.591
25916WAT      O77989   0.520   9.465   1.708
25916WAT     H177990   0.427   9.474   1.743
25916WAT     H277991   0.583   9.454   1.785
25917WAT      O77992   6.966   2.035   0.874
25917WAT     H177993   7.020   2.002   0.796
25917WAT     H277994   7.007   2.002   0.959
25918WAT      O77995   1.334   9.780   9.680
25918WAT     H177996   1.426   9.819   9.679
25918WAT     H277997   1.311   9.750   9.773
25919WAT      O77998   0.431   3.492   5.215
25919WAT     H177999   0.470   3.426   5.151
25919WAT     H278000   0.496   3.511   5.288
25920WAT      O78001   6.903   4.115   5.019
25920WAT     H178002   6.830   4.078   4.961
25920WAT     H278003   6.992   4.091   4.980
25921WAT      O78004   2.615   1.195   2.749
25921WAT     H178005   2.535   1.152   2.791
25921WAT     H278006   2.660   1.129   2.688
25922WAT      O78007   6.126   2.788   9.306
25922WAT     H178008   6.087   2.880   9.310
25922WAT     H278009   6.083   2.731   9.376
25923WAT      O78010   5.261   8.804   7.178
25923WAT     H178011   5.220   8.888   7.214
25923WAT     H278012   5.232   8.790   7.084
25924WAT      O78013   9.406   1.379   0.594
25924WAT     H178014   9.330   1.314   0.587
25924WAT     H278015   9.466   1.368   0.514
25925WAT      O78016   7.269   5.740   0.258
25925WAT     H178017   7.242   5.711   0.167
25925WAT     H278018   7.343   5.681   0.291
25926WAT      O78019   2.411   2.107   6.136
25926WAT     H178020   2.411   2.064   6.045
25926WAT     H278021   2.504   2.109   6.171
25927WAT      O78022   7.123   8.402   9.409
25927WAT     H178023   7.082   8.357   9.489
25927WAT     H278024   7.219   8.376   9.401
25928WAT      O78025   3.276   3.832   5.841
25928WAT     H178026   3.195   3.847   5.784
25928WAT     H278027   3.351   3.888   5.807
25929WAT      O78028   8.802   1.147   4.656
25929WAT     H178029   8.892   1.179   4.630
25929WAT     H278030   8.744   1.139   4.575
25930WAT      O78031   5.864   5.348   7.057
25930WAT     H178032   5.767   5.359   7.036
25930WAT     H278033   5.893   5.255   7.038
25931WAT      O78034   8.481   6.450   0.485
25931WAT     H178035   8.574   6.461   0.449
25931WAT     H278036   8.428   6.533   0.468
25932WAT      O78037   2.492   9.084   2.709
25932WAT     H178038   2.573   9.088   2.650
25932WAT     H278039   2.450   8.994   2.702
25933WAT      O78040   5.131   0.567   4.627
25933WAT     H178041   5.106   0.659   4.656
25933WAT     H278042   5.127   0.505   4.706
25934WAT      O78043   3.713   0.917   5.055
25934WAT     H178044   3.809   0.944   5.047
25934WAT     H278045   3.658   0.970   4.990
25935WAT      O78046   1.555   7.203   6.950
25935WAT     H178047   1.542   7.300   6.973
25935WAT     H278048   1.547   7.148   7.033
25936WAT      O78049   4.655   3.361   4.466
25936WAT     H178050   4.706   3.429   4.413
25936WAT     H278051   4.582   3.322   4.409
25937WAT      O78052   4.920   3.541   0.414
25937WAT     H178053   4.925   3.513   0.510
25937WAT     H278054   4.882   3.633   0.408
25938WAT      O78055   3.502   8.775   3.292
25938WAT     H178056   3.564   8.698   3.278
25938WAT     H278057   3.510   8.839   3.216
25939WAT      O78058   1.049   4.346   6.678
25939WAT     H178059   0.979   4.291   6.723
25939WAT     H278060   1.012   4.384   6.593
25940WAT      O78061   1.154   1.708   1.496
25940WAT     H178062   1.073   1.657   1.465
25940WAT     H278063   1.144   1.731   1.593
25941WAT      O78064   8.134   8.503   5.299
25941WAT     H178065   8.201   8.543   5.361
25941WAT     H278066   8.074   8.575   5.264
25942WAT      O78067   7.405   2.958   5.669
25942WAT     H178068   7.306   2.960   5.680
25942WAT     H278069   7.449   2.974   5.758
25943WAT      O78070   2.407   7.260   0.076
25943WAT     H178071   2.407   7.333   0.008
25943WAT     H278072   2.319   7.258   0.123
25944WAT      O78073   7.304   3.964   5.776
25944WAT     H178074   7.319   3.875   5.732
25944WAT     H278075   7.214   3.963   5.820
25945WAT      O78076   2.661   1.382   7.679
25945WAT     H178077   2.645   1.314   7.607
25945WAT     H278078   2.702   1.336   7.759
25946WAT      O78079   3.358   5.816   8.411
25946WAT     H178080   3.397   5.881   8.346
25946WAT     H278081   3.271   5.782   8.375
25947WAT      O78082   8.695   2.423   8.314
25947WAT     H178083   8.711   2.333   8.273
25947WAT     H278084   8.769   2.444   8.378
25948WAT      O78085   5.985   7.636   3.014
25948WAT     H178086   5.926   7.711   2.986
25948WAT     H278087   6.080   7.655   2.987
25949WAT      O78088   1.197   5.396   1.393
25949WAT     H178089   1.235   5.395   1.301
25949WAT     H278090   1.208   5.487   1.433
25950WAT      O78091   8.542   3.470   0.728
25950WAT     H178092   8.554   3.379   0.767
25950WAT     H278093   8.489   3.463   0.643
25951WAT      O78094   4.343   8.547   5.659
25951WAT     H178095   4.399   8.503   5.589
25951WAT     H278096   4.358   8.502   5.747
25952WAT      O78097   0.699   4.987   2.675
25952WAT     H178098   0.755   4.912   2.712
25952WAT     H278099   0.606   4.979   2.711
25953WAT      O78100   0.276   9.052   7.545
25953WAT     H178101   0.219   9.109   7.487
25953WAT     H278102   0.323   9.110   7.612
25954WAT      O78103   6.779   4.819   5.190
25954WAT     H178104   6.751   4.755   5.262
25954WAT     H278105   6.863   4.785   5.147
25955WAT      O78106   8.318   8.540   4.386
25955WAT     H178107   8.298   8.608   4.457
25955WAT     H278108   8.239   8.479   4.375
25956WAT      O78109   9.165   0.882   2.592
25956WAT     H178110   9.101   0.868   2.668
25956WAT     H278111   9.153   0.974   2.555
25957WAT      O78112   7.225   1.122   3.519
25957WAT     H178113   7.220   1.203   3.462
25957WAT     H278114   7.171   1.135   3.602
25958WAT      O78115   1.933   7.483   9.767
25958WAT     H178116   1.948   7.499   9.670
25958WAT     H278117   1.972   7.559   9.820
25959WAT      O78118   9.863   6.792   6.330
25959WAT     H178119   9.821   6.865   6.277
25959WAT     H278120   9.895   6.830   6.418
25960WAT      O78121   2.733   6.688   2.188
25960WAT     H178122   2.774   6.650   2.270
25960WAT     H278123   2.736   6.788   2.193
25961WAT      O78124   1.144   7.035   9.124
25961WAT     H178125   1.165   7.044   9.027
25961WAT     H278126   1.048   7.060   9.140
25962WAT      O78127   9.877   2.891   8.283
25962WAT     H178128   9.830   2.980   8.285
25962WAT     H278129   9.929   2.879   8.367
25963WAT      O78130   7.107   1.131   8.827
25963WAT     H178131   7.179   1.183   8.781
25963WAT     H278132   7.144   1.045   8.861
25964WAT      O78133   0.208   1.502   9.448
25964WAT     H178134   0.148   1.432   9.488
25964WAT     H278135   0.203   1.497   9.349
25965WAT      O78136   2.150   0.456   3.624
25965WAT     H178137   2.207   0.539   3.625
25965WAT     H278138   2.056   0.480   3.603
25966WAT      O78139   1.053   5.574   5.769
25966WAT     H178140   1.056   5.476   5.750
25966WAT     H278141   0.958   5.603   5.780
25967WAT      O78142   3.094   0.702   2.512
25967WAT     H178143   3.004   0.721   2.553
25967WAT     H278144   3.136   0.789   2.484
25968WAT      O78145   3.537   9.236   6.715
25968WAT     H178146   3.466   9.166   6.721
25968WAT     H278147   3.596   9.216   6.636
25969WAT      O78148   8.559   2.851   1.201
25969WAT     H178149   8.629   2.920   1.217
25969WAT     H278150   8.508   2.875   1.118
25970WAT      O78151   5.523   9.120   9.430
25970WAT     H178152   5.440   9.175   9.441
25970WAT     H278153   5.498   9.023   9.419
25971WAT      O78154   0.741   7.191   3.868
25971WAT     H178155   0.658   7.158   3.823
25971WAT     H278156   0.818   7.187   3.804
25972WAT      O78157   4.423   0.514   3.187
25972WAT     H178158   4.378   0.480   3.106
25972WAT     H278159   4.358   0.520   3.263
25973WAT      O78160   4.357   6.074   1.002
25973WAT     H178161   4.318   6.092   0.911
25973WAT     H278162   4.303   6.004   1.048
25974WAT      O78163   6.099   7.270   0.761
25974WAT     H178164   6.010   7.226   0.765
25974WAT     H278165   6.137   7.260   0.669
25975WAT      O78166   8.155   7.311   7.247
25975WAT     H178167   8.216   7.309   7.167
25975WAT     H278168   8.078   7.372   7.229
25976WAT      O78169   0.215   7.624   5.458
25976WAT     H178170   0.285   7.570   5.412
25976WAT     H278171   0.237   7.630   5.556
25977WAT      O78172   1.092   8.758   8.297
25977WAT     H178173   0.994   8.771   8.284
25977WAT     H278174   1.141   8.784   8.213
25978WAT      O78175   9.303   5.315   3.736
25978WAT     H178176   9.228   5.376   3.763
25978WAT     H278177   9.331   5.335   3.642
25979WAT      O78178   9.754   7.625   2.247
25979WAT     H178179   9.723   7.542   2.293
25979WAT     H278180   9.763   7.699   2.314
25980WAT      O78181   0.894   9.602   8.654
25980WAT     H178182   0.932   9.513   8.628
25980WAT     H278183   0.795   9.595   8.658
25981WAT      O78184   3.446   4.830   7.555
25981WAT     H178185   3.412   4.907   7.610
25981WAT     H278186   3.546   4.832   7.553
25982WAT      O78187   9.442   7.663   3.468
25982WAT     H178188   9.452   7.760   3.446
25982WAT     H278189   9.523   7.632   3.517
25983WAT      O78190   3.419   2.417   9.006
25983WAT     H178191   3.469   2.394   9.090
25983WAT     H278192   3.483   2.419   8.929
25984WAT      O78193   8.257   2.535   8.756
25984WAT     H178194   8.194   2.584   8.817
25984WAT     H278195   8.242   2.566   8.662
25985WAT      O78196   2.396   3.684   6.304
25985WAT     H178197   2.476   3.697   6.363
25985WAT     H278198   2.346   3.604   6.334
25986WAT      O78199   5.103   6.095   6.408
25986WAT     H178200   5.130   6.137   6.494
25986WAT     H278201   5.180   6.097   6.344
25987WAT      O78202   3.044   5.246   2.594
25987WAT     H178203   3.031   5.344   2.608
25987WAT     H278204   3.141   5.224   2.599
25988WAT      O78205   3.722   2.371   8.945
25988WAT     H178206   3.817   2.377   8.915
25988WAT     H278207   3.662   2.356   8.866
25989WAT      O78208   6.975   2.287   4.236
25989WAT     H178209   6.878   2.306   4.223
25989WAT     H278210   6.992   2.189   4.231
25990WAT      O78211   2.874   4.299   9.727
25990WAT     H178212   2.881   4.397   9.745
25990WAT     H278213   2.899   4.281   9.632
25991WAT      O78214   3.701   6.990   0.573
25991WAT     H178215   3.609   7.029   0.576
25991WAT     H278216   3.728   6.975   0.478
25992WAT      O78217   4.557   1.482   6.933
25992WAT     H178218   4.650   1.517   6.939
25992WAT     H278219   4.559   1.382   6.941
25993WAT      O78220   1.084   6.714   6.514
25993WAT     H178221   0.995   6.679   6.484
25993WAT     H278222   1.070   6.800   6.563
25994WAT      O78223   0.957   0.634   8.106
25994WAT     H178224   0.912   0.675   8.027
25994WAT     H278225   0.971   0.704   8.177
25995WAT      O78226   0.358   9.195   6.181
25995WAT     H178227   0.315   9.133   6.247
25995WAT     H278228   0.392   9.276   6.229
25996WAT      O78229   9.125   2.759   6.501
25996WAT     H178230   9.189   2.800   6.436
25996WAT     H278231   9.080   2.680   6.459
25997WAT      O78232   8.406   4.126   9.662
25997WAT     H178233   8.493   4.075   9.661
25997WAT     H278234   8.418   4.210   9.713
25998WAT      O78235   1.341   1.910   5.749
25998WAT     H178236   1.413   1.891   5.683
25998WAT     H278237   1.253   1.883   5.709
25999WAT      O78238   1.330   7.468   1.896
25999WAT     H178239   1.301   7.404   1.967
25999WAT     H278240   1.355   7.417   1.813
26000WAT      O78241   9.570   6.861   6.185
26000WAT     H178242   9.527   6.913   6.259
26000WAT     H278243   9.537   6.767   6.187
26001WAT      O78244   7.086   2.933   1.710
26001WAT     H178245   7.117   2.943   1.805
26001WAT     H278246   7.159   2.960   1.649
26002WAT      O78247   2.474   3.278   3.883
26002WAT     H178248   2.385   3.320   3.861
26002WAT     H278249   2.546   3.346   3.872
26003WAT      O78250   0.091   6.210   8.436
26003WAT     H178251   0.132   6.239   8.349
26003WAT     H278252   0.075   6.112   8.434
26004WAT      O78253   4.205   4.832   1.446
26004WAT     H178254   4.288   4.799   1.402
26004WAT     H278255   4.223   4.854   1.541
26005WAT      O78256   0.953   3.450   2.789
26005WAT     H178257   0.976   3.372   2.847
26005WAT     H278258   0.968   3.426   2.693
26006WAT      O78259   8.835   5.197   4.890
26006WAT     H178260   8.757   5.134   4.884
26006WAT     H278261   8.827   5.265   4.817
26007WAT      O78262   9.390   7.525   3.256
26007WAT     H178263   9.352   7.592   3.192
26007WAT     H278264   9.425   7.573   3.338
26008WAT      O78265   7.452   7.399   6.642
26008WAT     H178266   7.416   7.426   6.730
26008WAT     H278267   7.493   7.478   6.596
26009WAT      O78268   8.554   5.803   4.933
26009WAT     H178269   8.605   5.870   4.879
26009WAT     H278270   8.596   5.713   4.922
26010WAT      O78271   6.942   3.568   7.435
26010WAT     H178272   6.991   3.632   7.375
26010WAT     H278273   7.005   3.532   7.504
26011WAT      O78274   9.580   3.511   1.971
26011WAT     H178275   9.622   3.564   1.898
26011WAT     H278276   9.495   3.555   2.000
26012WAT      O78277   5.109   4.220   8.628
26012WAT     H178278   5.039   4.265   8.572
26012WAT     H278279   5.199   4.239   8.589
26013WAT      O78280   4.024   7.175   1.538
26013WAT     H178281   3.963   7.097   1.521
26013WAT     H278282   4.046   7.180   1.635
26014WAT      O78283   9.139   6.192   4.428
26014WAT     H178284   9.218   6.220   4.374
26014WAT     H278285   9.154   6.099   4.463
26015WAT      O78286   5.790   1.427   8.361
26015WAT     H178287   5.696   1.457   8.348
26015WAT     H278288   5.791   1.339   8.409
26016WAT      O78289   4.324   7.779   7.118
26016WAT     H178290   4.323   7.795   7.216
26016WAT     H278291   4.415   7.799   7.081
26017WAT      O78292   9.069   7.224   3.103
26017WAT     H178293   9.136   7.228   3.177
26017WAT     H278294   9.086   7.297   3.037
26018WAT      O78295   0.948   6.123   5.322
26018WAT     H178296   0.880   6.051   5.331
26018WAT     H278297   0.936   6.190   5.395
26019WAT      O78298   7.247   3.804   6.116
26019WAT     H178299   7.198   3.778   6.033
26019WAT     H278300   7.342   3.774   6.109
26020WAT      O78301   1.186   8.122   2.360
26020WAT     H178302   1.154   8.155   2.271
26020WAT     H278303   1.207   8.200   2.419
26021WAT      O78304   5.488   5.853   4.931
26021WAT     H178305   5.449   5.919   4.995
26021WAT     H278306   5.482   5.890   4.838
26022WAT      O78307   1.227   9.224   3.745
26022WAT     H178308   1.133   9.226   3.779
26022WAT     H278309   1.236   9.288   3.668
26023WAT      O78310   6.729   8.010   5.342
26023WAT     H178311   6.688   8.068   5.413
26023WAT     H278312   6.765   7.927   5.383
26024WAT      O78313   9.177   5.265   0.825
26024WAT     H178314   9.187   5.280   0.923
26024WAT     H278315   9.220   5.178   0.800
26025WAT      O78316   2.779   7.834   0.798
26025WAT     H178317   2.874   7.802   0.790
26025WAT     H278318   2.767   7.880   0.886
26026WAT      O78319   8.935   8.371   1.330
26026WAT     H178320   9.023   8.340   1.367
26026WAT     H278321   8.915   8.320   1.246
26027WAT      O78322   1.698   6.831   6.691
26027WAT     H178323   1.745   6.804   6.607
26027WAT     H278324   1.691   6.930   6.695
26028WAT      O78325   0.298   3.862   4.172
26028WAT     H178326   0.244   3.921   4.231
26028WAT     H278327   0.386   3.842   4.216
26029WAT      O78328   9.300   2.590   2.109
26029WAT     H178329   9.340   2.670   2.154
26029WAT     H278330   9.246   2.621   2.030
26030WAT      O78331   6.648   7.953   1.927
26030WAT     H178332   6.733   7.968   1.876
26030WAT     H278333   6.665   7.887   2.001
26031WAT      O78334   8.564   4.266   6.225
26031WAT     H178335   8.502   4.315   6.287
26031WAT     H278336   8.524   4.177   6.202
26032WAT      O78337   7.400   1.163   5.402
26032WAT     H178338   7.305   1.167   5.371
26032WAT     H278339   7.452   1.238   5.362
26033WAT      O78340   8.054   0.776   9.038
26033WAT     H178341   7.986   0.815   9.101
26033WAT     H278342   8.122   0.845   9.015
26034WAT      O78343   5.227   8.144   2.607
26034WAT     H178344   5.136   8.103   2.606
26034WAT     H278345   5.245   8.184   2.697
26035WAT      O78346   2.423   4.183   6.922
26035WAT     H178347   2.481   4.150   6.848
26035WAT     H278348   2.477   4.185   7.007
26036WAT      O78349   7.091   0.268   1.135
26036WAT     H178350   7.118   0.255   1.040
26036WAT     H278351   7.154   0.218   1.195
26037WAT      O78352   6.022   8.217   2.758
26037WAT     H178353   5.983   8.243   2.846
26037WAT     H278354   6.064   8.126   2.765
26038WAT      O78355   1.872   7.458   6.847
26038WAT     H178356   1.947   7.523   6.855
26038WAT     H278357   1.874   7.394   6.923
26039WAT      O78358   9.174   4.513   0.914
26039WAT     H178359   9.233   4.437   0.943
26039WAT     H278360   9.150   4.569   0.994
26040WAT      O78361   5.234   0.314   3.931
26040WAT     H178362   5.174   0.394   3.928
26040WAT     H278363   5.305   0.324   3.861
26041WAT      O78364   9.192   7.159   7.433
26041WAT     H178365   9.120   7.207   7.483
26041WAT     H278366   9.228   7.218   7.361
26042WAT      O78367   1.183   3.793   6.652
26042WAT     H178368   1.232   3.728   6.595
26042WAT     H278369   1.249   3.855   6.696
26043WAT      O78370   6.088   0.453   6.529
26043WAT     H178371   6.026   0.516   6.483
26043WAT     H278372   6.065   0.448   6.626
26044WAT      O78373   3.345   8.024   7.041
26044WAT     H178374   3.276   8.088   7.075
26044WAT     H278375   3.299   7.942   7.006
26045WAT      O78376   0.241   7.237   3.849
26045WAT     H178377   0.144   7.262   3.844
26045WAT     H278378   0.250   7.138   3.838
26046WAT      O78379   8.918   5.276   3.597
26046WAT     H178380   8.850   5.321   3.538
26046WAT     H278381   9.006   5.321   3.587
26047WAT      O78382   1.285   2.134   3.130
26047WAT     H178383   1.347   2.175   3.063
26047WAT     H278384   1.286   2.189   3.214
26048WAT      O78385   0.867   5.244   6.434
26048WAT     H178386   0.955   5.196   6.441
26048WAT     H278387   0.803   5.186   6.382
26049WAT      O78388   2.698   3.008   7.706
26049WAT     H178389   2.756   2.962   7.773
26049WAT     H278390   2.694   2.953   7.623
26050WAT      O78391   7.036   3.158   6.367
26050WAT     H178392   6.983   3.184   6.448
26050WAT     H278393   6.975   3.116   6.300
26051WAT      O78394   7.020   0.487   5.786
26051WAT     H178395   6.947   0.555   5.772
26051WAT     H278396   7.001   0.435   5.869
26052WAT      O78397   2.920   5.782   2.227
26052WAT     H178398   2.946   5.718   2.155
26052WAT     H278399   2.829   5.818   2.208
26053WAT      O78400   2.189   6.467   9.071
26053WAT     H178401   2.267   6.501   9.124
26053WAT     H278402   2.222   6.405   8.999
26054WAT      O78403   2.603   8.270   9.745
26054WAT     H178404   2.688   8.321   9.757
26054WAT     H278405   2.571   8.237   9.833
26055WAT      O78406   7.112   3.740   4.547
26055WAT     H178407   7.137   3.644   4.537
26055WAT     H278408   7.171   3.796   4.489
26056WAT      O78409   0.609   7.254   9.165
26056WAT     H178410   0.665   7.259   9.082
26056WAT     H278411   0.668   7.245   9.244
26057WAT      O78412   5.998   5.690   6.044
26057WAT     H178413   5.906   5.653   6.039
26057WAT     H278414   6.046   5.670   5.958
26058WAT      O78415   9.522   5.786   6.721
26058WAT     H178416   9.468   5.780   6.637
26058WAT     H278417   9.462   5.800   6.799
26059WAT      O78418   1.739   6.474   7.080
26059WAT     H178419   1.808   6.546   7.076
26059WAT     H278420   1.713   6.447   6.987
26060WAT      O78421   2.449   3.411   8.777
26060WAT     H178422   2.441   3.393   8.679
26060WAT     H278423   2.528   3.471   8.793
26061WAT      O78424   5.448   8.440   8.779
26061WAT     H178425   5.415   8.351   8.810
26061WAT     H278426   5.370   8.503   8.770
26062WAT      O78427   2.515   4.477   0.030
26062WAT     H178428   2.570   4.421   0.092
26062WAT     H278429   2.468   4.549   0.081
26063WAT      O78430   1.268   5.207   1.573
26063WAT     H178431   1.366   5.196   1.558
26063WAT     H278432   1.228   5.261   1.499
26064WAT      O78433   9.715   5.609   0.963
26064WAT     H178434   9.687   5.628   0.869
26064WAT     H278435   9.809   5.638   0.977
26065WAT      O78436   0.501   0.858   2.286
26065WAT     H178437   0.499   0.762   2.314
26065WAT     H278438   0.467   0.915   2.361
26066WAT      O78439   9.393   0.959   4.900
26066WAT     H178440   9.415   0.949   4.803
26066WAT     H278441   9.391   1.056   4.924
26067WAT      O78442   5.909   3.498   1.698
26067WAT     H178443   5.927   3.421   1.637
26067WAT     H278444   5.814   3.529   1.686
26068WAT      O78445   6.046   4.013   7.905
26068WAT     H178446   5.978   3.941   7.900
26068WAT     H278447   6.117   3.996   7.836
26069WAT      O78448   7.971   2.139   5.016
26069WAT     H178449   7.960   2.131   5.115
26069WAT     H278450   8.003   2.052   4.978
26070WAT      O78451   5.229   8.123   7.341
26070WAT     H178452   5.148   8.094   7.289
26070WAT     H278453   5.253   8.052   7.407
26071WAT      O78454   4.176   8.624   8.847
26071WAT     H178455   4.117   8.657   8.773
26071WAT     H278456   4.224   8.702   8.888
26072WAT      O78457   9.686   3.654   5.221
26072WAT     H178458   9.595   3.623   5.195
26072WAT     H278459   9.754   3.585   5.196
26073WAT      O78460   2.414   8.421   3.863
26073WAT     H178461   2.370   8.383   3.944
26073WAT     H278462   2.409   8.354   3.789
26074WAT      O78463   0.796   3.921   7.795
26074WAT     H178464   0.891   3.890   7.801
26074WAT     H278465   0.787   3.985   7.719
26075WAT      O78466   1.515   0.916   7.355
26075WAT     H178467   1.422   0.894   7.327
26075WAT     H278468   1.572   0.929   7.274
26076WAT      O78469   1.365   4.557   4.283
26076WAT     H178470   1.378   4.603   4.195
26076WAT     H278471   1.441   4.495   4.299
26077WAT      O78472   3.745   3.435   6.480
26077WAT     H178473   3.831   3.486   6.491
26077WAT     H278474   3.677   3.470   6.544
26078WAT      O78475   8.462   7.311   1.076
26078WAT     H178476   8.430   7.226   1.116
26078WAT     H278477   8.444   7.311   0.978
26079WAT      O78478   8.409   5.374   9.708
26079WAT     H178479   8.508   5.379   9.715
26079WAT     H278480   8.380   5.279   9.720
26080WAT      O78481   3.250   3.123   3.718
26080WAT     H178482   3.306   3.195   3.678
26080WAT     H278483   3.239   3.048   3.652
26081WAT      O78484   7.612   8.712   1.107
26081WAT     H178485   7.515   8.718   1.129
26081WAT     H278486   7.661   8.789   1.146
26082WAT      O78487   7.038   8.575   3.926
26082WAT     H178488   7.115   8.575   3.990
26082WAT     H278489   6.955   8.603   3.974
26083WAT      O78490   3.777   7.240   6.933
26083WAT     H178491   3.846   7.246   7.005
26083WAT     H278492   3.783   7.320   6.874
26084WAT      O78493   8.463   2.229   2.518
26084WAT     H178494   8.488   2.133   2.521
26084WAT     H278495   8.428   2.252   2.427
26085WAT      O78496   2.000   9.425   4.502
26085WAT     H178497   2.025   9.475   4.419
26085WAT     H278498   1.926   9.473   4.549
26086WAT      O78499   2.883   6.772   1.515
26086WAT     H178500   2.898   6.848   1.579
26086WAT     H278501   2.812   6.797   1.450
26087WAT      O78502   1.567   7.200   1.374
26087WAT     H178503   1.599   7.173   1.465
26087WAT     H278504   1.549   7.118   1.320
26088WAT      O78505   8.028   8.365   7.275
26088WAT     H178506   8.114   8.322   7.304
26088WAT     H278507   7.982   8.305   7.210
26089WAT      O78508   9.699   4.321   1.633
26089WAT     H178509   9.621   4.290   1.688
26089WAT     H278510   9.768   4.361   1.694
26090WAT      O78511   5.088   1.925   7.094
26090WAT     H178512   5.036   1.840   7.097
26090WAT     H278513   5.179   1.907   7.058
26091WAT      O78514   2.901   1.720   1.355
26091WAT     H178515   2.967   1.705   1.281
26091WAT     H278516   2.948   1.721   1.443
26092WAT      O78517   4.032   6.376   4.983
26092WAT     H178518   4.130   6.394   4.980
26092WAT     H278519   4.016   6.278   4.969
26093WAT      O78520   8.653   7.893   7.916
26093WAT     H178521   8.598   7.856   7.991
26093WAT     H278522   8.713   7.965   7.951
26094WAT      O78523   6.200   6.744   9.798
26094WAT     H178524   6.131   6.721   9.729
26094WAT     H278525   6.191   6.683   9.876
26095WAT      O78526   6.444   8.177   3.391
26095WAT     H178527   6.466   8.254   3.451
26095WAT     H278528   6.423   8.096   3.446
26096WAT      O78529   0.010   7.922   7.985
26096WAT     H178530  -0.084   7.934   7.952
26096WAT     H278531   0.021   7.966   8.074
26097WAT      O78532   2.446   3.718   2.189
26097WAT     H178533   2.392   3.636   2.210
26097WAT     H278534   2.397   3.799   2.218
26098WAT      O78535   1.821   2.471   4.964
26098WAT     H178536   1.863   2.490   4.875
26098WAT     H278537   1.740   2.529   4.976
26099WAT      O78538   7.857   7.261   9.862
26099WAT     H178539   7.941   7.235   9.815
26099WAT     H278540   7.826   7.351   9.830
26100WAT      O78541   5.214   5.691   0.460
26100WAT     H178542   5.196   5.665   0.555
26100WAT     H278543   5.300   5.650   0.430
26101WAT      O78544   0.013   8.224   4.549
26101WAT     H178545  -0.017   8.168   4.626
26101WAT     H278546   0.109   8.205   4.529
26102WAT      O78547   0.130   2.593   3.408
26102WAT     H178548   0.157   2.531   3.334
26102WAT     H278549   0.116   2.685   3.371
26103WAT      O78550   7.184   9.520   7.743
26103WAT     H178551   7.132   9.546   7.661
26103WAT     H278552   7.185   9.421   7.751
26104WAT      O78553   9.424   7.458   6.246
26104WAT     H178554   9.515   7.437   6.212
26104WAT     H278555   9.427   7.470   6.346
26105WAT      O78556   1.531   5.622   3.151
26105WAT     H178557   1.599   5.555   3.120
26105WAT     H278558   1.507   5.602   3.246
26106WAT      O78559   9.063   6.994   6.629
26106WAT     H178560   9.058   7.058   6.705
26106WAT     H278561   9.119   6.915   6.655
26107WAT      O78562   3.779   4.620   1.881
26107WAT     H178563   3.680   4.633   1.884
26107WAT     H278564   3.812   4.638   1.788
26108WAT      O78565   8.951   0.947   3.174
26108WAT     H178566   8.976   1.016   3.105
26108WAT     H278567   8.861   0.969   3.212
26109WAT      O78568   4.034   0.739   1.884
26109WAT     H178569   4.022   0.837   1.898
26109WAT     H278570   3.945   0.695   1.874
26110WAT      O78571   0.309   6.765   2.795
26110WAT     H178572   0.248   6.764   2.875
26110WAT     H278573   0.385   6.702   2.810
26111WAT      O78574   3.051   7.482   2.025
26111WAT     H178575   2.971   7.506   1.969
26111WAT     H278576   3.110   7.562   2.035
26112WAT      O78577   2.413   9.661   6.189
26112WAT     H178578   2.416   9.604   6.107
26112WAT     H278579   2.328   9.713   6.192
26113WAT      O78580   6.415   5.800   6.723
26113WAT     H178581   6.405   5.719   6.781
26113WAT     H278582   6.509   5.833   6.728
26114WAT      O78583   9.806   4.704   1.817
26114WAT     H178584   9.772   4.662   1.901
26114WAT     H278585   9.849   4.792   1.840
26115WAT      O78586   7.379   3.703   8.780
26115WAT     H178587   7.447   3.688   8.852
26115WAT     H278588   7.294   3.658   8.805
26116WAT      O78589   3.820   7.441   6.725
26116WAT     H178590   3.740   7.496   6.698
26116WAT     H278591   3.875   7.493   6.790
26117WAT      O78592   5.754   4.486   4.715
26117WAT     H178593   5.833   4.476   4.654
26117WAT     H278594   5.782   4.537   4.797
26118WAT      O78595   5.958   2.744   0.363
26118WAT     H178596   5.879   2.764   0.305
26118WAT     H278597   5.934   2.672   0.428
26119WAT      O78598   5.699   7.908   7.999
26119WAT     H178599   5.731   7.994   8.038
26119WAT     H278600   5.654   7.926   7.911
26120WAT      O78601   8.981   9.059   0.359
26120WAT     H178602   8.985   9.146   0.310
26120WAT     H278603   9.073   9.035   0.390
26121WAT      O78604   4.999   9.260   4.482
26121WAT     H178605   5.013   9.297   4.574
26121WAT     H278606   4.954   9.328   4.425
26122WAT      O78607   9.412   0.096   5.460
26122WAT     H178608   9.376   0.006   5.483
26122WAT     H278609   9.347   0.143   5.399
26123WAT      O78610   8.581   2.017   2.962
26123WAT     H178611   8.549   2.012   2.867
26123WAT     H278612   8.655   2.085   2.968
26124WAT      O78613   6.721   3.360   8.392
26124WAT     H178614   6.699   3.328   8.484
26124WAT     H278615   6.747   3.456   8.396
26125WAT      O78616   0.163   6.769   3.414
26125WAT     H178617   0.113   6.852   3.387
26125WAT     H278618   0.231   6.792   3.483
26126WAT      O78619   1.785   8.707   3.095
26126WAT     H178620   1.769   8.624   3.040
26126WAT     H278621   1.857   8.689   3.162
26127WAT      O78622   7.811   2.105   9.230
26127WAT     H178623   7.844   2.026   9.282
26127WAT     H278624   7.878   2.180   9.237
26128WAT      O78625   8.591   7.929   9.200
26128WAT     H178626   8.636   7.886   9.278
26128WAT     H278627   8.492   7.918   9.208
26129WAT      O78628   1.156   6.682   0.800
26129WAT     H178629   1.137   6.615   0.872
26129WAT     H278630   1.244   6.726   0.817
26130WAT      O78631   2.319   7.495   4.704
26130WAT     H178632   2.253   7.484   4.630
26130WAT     H278633   2.295   7.432   4.778
26131WAT      O78634   8.381   8.059   6.411
26131WAT     H178635   8.444   8.034   6.337
26131WAT     H278636   8.423   8.130   6.467
26132WAT      O78637   7.385   2.103   4.298
26132WAT     H178638   7.338   2.045   4.231
26132WAT     H278639   7.423   2.183   4.251
26133WAT      O78640   2.427   3.770   3.492
26133WAT     H178641   2.458   3.678   3.517
26133WAT     H278642   2.372   3.808   3.566
26134WAT      O78643   1.182   0.285   6.275
26134WAT     H178644   1.174   0.343   6.357
26134WAT     H278645   1.275   0.252   6.267
26135WAT      O78646   1.272   8.066   5.422
26135WAT     H178647   1.308   8.154   5.453
26135WAT     H278648   1.304   7.994   5.484
26136WAT      O78649   6.968   6.638   1.770
26136WAT     H178650   7.063   6.664   1.752
26136WAT     H278651   6.966   6.545   1.807
26137WAT      O78652   8.759   0.311   2.007
26137WAT     H178653   8.827   0.240   1.991
26137WAT     H278654   8.682   0.299   1.943
26138WAT      O78655   0.622   0.178   2.449
26138WAT     H178656   0.673   0.229   2.380
26138WAT     H278657   0.656   0.084   2.453
26139WAT      O78658   7.612   5.309   6.197
26139WAT     H178659   7.574   5.226   6.155
26139WAT     H278660   7.538   5.369   6.225
26140WAT      O78661   8.953   1.188   1.280
26140WAT     H178662   8.985   1.274   1.240
26140WAT     H278663   8.913   1.130   1.208
26141WAT      O78664   2.629   0.027   3.754
26141WAT     H178665   2.535   0.045   3.785
26141WAT     H278666   2.631  -0.060   3.705
26142WAT      O78667   1.376   5.031   5.375
26142WAT     H178668   1.414   4.938   5.379
26142WAT     H278669   1.287   5.032   5.419
26143WAT      O78670   2.181   4.535   9.620
26143WAT     H178671   2.194   4.550   9.522
26143WAT     H278672   2.118   4.459   9.634
26144WAT      O78673   6.889   9.238   7.622
26144WAT     H178674   6.952   9.207   7.693
26144WAT     H278675   6.855   9.159   7.571
26145WAT      O78676   5.593   8.896   8.432
26145WAT     H178677   5.568   8.826   8.365
26145WAT     H278678   5.679   8.871   8.476
26146WAT      O78679   0.206   6.279   8.173
26146WAT     H178680   0.250   6.369   8.172
26146WAT     H278681   0.275   6.208   8.157
26147WAT      O78682   0.343   5.562   1.485
26147WAT     H178683   0.402   5.642   1.470
26147WAT     H278684   0.364   5.492   1.416
26148WAT      O78685   3.101   8.592   2.427
26148WAT     H178686   3.177   8.608   2.489
26148WAT     H278687   3.031   8.662   2.442
26149WAT      O78688   0.809   0.876   0.351
26149WAT     H178689   0.808   0.779   0.375
26149WAT     H278690   0.784   0.887   0.255
26150WAT      O78691   3.802   2.300   3.149
26150WAT     H178692   3.897   2.283   3.175
26150WAT     H278693   3.780   2.246   3.068
26151WAT      O78694   1.260   5.815   0.970
26151WAT     H178695   1.310   5.763   1.040
26151WAT     H278696   1.223   5.898   1.011
26152WAT      O78697   7.222   4.986   1.446
26152WAT     H178698   7.165   4.907   1.425
26152WAT     H278699   7.276   5.010   1.365
26153WAT      O78700   3.226   1.648   8.286
26153WAT     H178701   3.311   1.599   8.267
26153WAT     H278702   3.214   1.721   8.219
26154WAT      O78703   9.856   7.480   5.001
26154WAT     H178704   9.950   7.476   5.035
26154WAT     H278705   9.820   7.572   5.015
26155WAT      O78706   6.885   3.204   5.356
26155WAT     H178707   6.892   3.245   5.265
26155WAT     H278708   6.910   3.272   5.425
26156WAT      O78709   8.574   8.476   7.886
26156WAT     H178710   8.481   8.490   7.853
26156WAT     H278711   8.571   8.443   7.981
26157WAT      O78712   9.877   0.864   1.450
26157WAT     H178713   9.857   0.962   1.458
26157WAT     H278714   9.881   0.823   1.542
26158WAT      O78715   1.140   5.921   2.141
26158WAT     H178716   1.152   5.834   2.092
26158WAT     H278717   1.044   5.931   2.168
26159WAT      O78718   2.886   6.314   0.791
26159WAT     H178719   2.805   6.340   0.738
26159WAT     H278720   2.917   6.392   0.845
26160WAT      O78721   2.498   9.556   2.507
26160WAT     H178722   2.494   9.535   2.604
26160WAT     H278723   2.532   9.650   2.494
26161WAT      O78724   8.826   9.146   2.540
26161WAT     H178725   8.742   9.097   2.518
26161WAT     H278726   8.899   9.119   2.477
26162WAT      O78727   9.445   8.391   7.692
26162WAT     H178728   9.394   8.343   7.763
26162WAT     H278729   9.387   8.405   7.612
26163WAT      O78730   2.349   9.205   2.198
26163WAT     H178731   2.299   9.217   2.285
26163WAT     H278732   2.296   9.146   2.138
26164WAT      O78733   2.902   8.581   5.354
26164WAT     H178734   2.917   8.487   5.322
26164WAT     H278735   2.901   8.582   5.454
26165WAT      O78736   1.114   2.137   6.395
26165WAT     H178737   1.088   2.185   6.479
26165WAT     H278738   1.036   2.136   6.333
26166WAT      O78739   6.575   9.627   8.272
26166WAT     H178740   6.612   9.558   8.334
26166WAT     H278741   6.591   9.598   8.177
26167WAT      O78742   1.609   0.236   3.619
26167WAT     H178743   1.707   0.219   3.614
26167WAT     H278744   1.565   0.164   3.673
26168WAT      O78745   0.904   2.882   4.339
26168WAT     H178746   0.807   2.861   4.328
26168WAT     H278747   0.950   2.806   4.386
26169WAT      O78748   1.876   1.220   7.010
26169WAT     H178749   1.871   1.262   6.919
26169WAT     H278750   1.795   1.244   7.063
26170WAT      O78751   5.996   3.373   0.254
26170WAT     H178752   6.069   3.349   0.318
26170WAT     H278753   5.915   3.399   0.305
26171WAT      O78754   3.770   2.291   4.996
26171WAT     H178755   3.704   2.225   4.959
26171WAT     H278756   3.761   2.378   4.947
26172WAT      O78757   1.158   0.555   3.722
26172WAT     H178758   1.110   0.474   3.756
26172WAT     H278759   1.212   0.595   3.796
26173WAT      O78760   2.639   7.797   4.105
26173WAT     H178761   2.708   7.867   4.124
26173WAT     H278762   2.629   7.736   4.184
26174WAT      O78763   8.650   0.322   8.644
26174WAT     H178764   8.743   0.285   8.641
26174WAT     H278765   8.652   0.412   8.689
26175WAT      O78766   9.417   4.826   4.715
26175WAT     H178767   9.498   4.870   4.677
26175WAT     H278768   9.404   4.855   4.810
26176WAT      O78769   5.363   2.059   5.358
26176WAT     H178770   5.412   2.123   5.417
26176WAT     H278771   5.353   2.099   5.267
26177WAT      O78772   0.853   4.127   7.957
26177WAT     H178773   0.807   4.054   7.906
26177WAT     H278774   0.924   4.088   8.015
26178WAT      O78775   1.046   2.934   3.027
26178WAT     H178776   1.133   2.888   3.005
26178WAT     H278777   1.055   2.982   3.115
26179WAT      O78778   3.144   1.484   5.742
26179WAT     H178779   3.102   1.474   5.832
26179WAT     H278780   3.238   1.517   5.753
26180WAT      O78781   0.880   7.303   5.952
26180WAT     H178782   0.914   7.319   6.045
26180WAT     H278783   0.940   7.239   5.905
26181WAT      O78784   8.170   0.414   3.568
26181WAT     H178785   8.215   0.329   3.540
26181WAT     H278786   8.145   0.467   3.487
26182WAT      O78787   7.741   6.539   5.936
26182WAT     H178788   7.641   6.532   5.930
26182WAT     H278789   7.768   6.551   6.032
26183WAT      O78790   6.733   5.182   1.741
26183WAT     H178791   6.724   5.277   1.769
26183WAT     H278792   6.746   5.177   1.642
26184WAT      O78793   8.464   2.281   0.415
26184WAT     H178794   8.403   2.208   0.445
26184WAT     H278795   8.418   2.369   0.424
26185WAT      O78796   0.556   2.580   3.326
26185WAT     H178797   0.552   2.480   3.334
26185WAT     H278798   0.534   2.606   3.232
26186WAT      O78799   0.270   0.311   1.399
26186WAT     H178800   0.310   0.393   1.358
26186WAT     H278801   0.299   0.230   1.347
26187WAT      O78802   7.355   9.459   4.740
26187WAT     H178803   7.328   9.553   4.759
26187WAT     H278804   7.366   9.447   4.641
26188WAT      O78805   9.787   1.859   3.529
26188WAT     H178806   9.809   1.869   3.626
26188WAT     H278807   9.714   1.791   3.519
26189WAT      O78808   5.438   5.448   3.742
26189WAT     H178809   5.400   5.539   3.729
26189WAT     H278810   5.501   5.427   3.667
26190WAT      O78811   9.439   4.314   6.459
26190WAT     H178812   9.464   4.405   6.425
26190WAT     H278813   9.368   4.274   6.401
26191WAT      O78814   2.156   8.340   9.569
26191WAT     H178815   2.165   8.249   9.528
26191WAT     H278816   2.246   8.381   9.579
26192WAT      O78817   3.386   0.903   3.613
26192WAT     H178818   3.461   0.908   3.548
26192WAT     H278819   3.410   0.841   3.687
26193WAT      O78820   6.870   1.849   1.596
26193WAT     H178821   6.785   1.877   1.643
26193WAT     H278822   6.874   1.750   1.592
26194WAT      O78823   7.716   7.388   3.934
26194WAT     H178824   7.639   7.378   3.871
26194WAT     H278825   7.802   7.368   3.887
26195WAT      O78826   4.098   8.720   6.703
26195WAT     H178827   4.113   8.806   6.752
26195WAT     H278828   4.001   8.700   6.700
26196WAT      O78829   8.626   6.442   1.308
26196WAT     H178830   8.611   6.540   1.323
26196WAT     H278831   8.541   6.393   1.323
26197WAT      O78832   6.952   4.656   8.869
26197WAT     H178833   6.994   4.745   8.884
26197WAT     H278834   6.858   4.668   8.835
26198WAT      O78835   7.861   9.225   3.324
26198WAT     H178836   7.896   9.220   3.417
26198WAT     H278837   7.882   9.315   3.286
26199WAT      O78838   7.998   6.596   6.545
26199WAT     H178839   8.015   6.590   6.644
26199WAT     H278840   7.939   6.520   6.517
26200WAT      O78841   5.906   5.847   4.904
26200WAT     H178842   5.960   5.788   4.844
26200WAT     H278843   5.847   5.792   4.961
26201WAT      O78844   8.336   4.041   8.939
26201WAT     H178845   8.273   4.090   8.999
26201WAT     H278846   8.307   3.945   8.931
26202WAT      O78847   8.239   0.352   2.826
26202WAT     H178848   8.240   0.313   2.735
26202WAT     H278849   8.316   0.415   2.836
26203WAT      O78850   0.527   8.357   5.461
26203WAT     H178851   0.583   8.390   5.537
26203WAT     H278852   0.584   8.305   5.398
26204WAT      O78853   2.926   0.824   6.010
26204WAT     H178854   2.849   0.797   6.068
26204WAT     H278855   2.968   0.742   5.970
26205WAT      O78856   1.708   6.821   5.692
26205WAT     H178857   1.687   6.726   5.713
26205WAT     H278858   1.671   6.880   5.764
26206WAT      O78859   1.735   4.162   5.702
26206WAT     H178860   1.784   4.218   5.769
26206WAT     H278861   1.801   4.110   5.647
26207WAT      O78862   0.126   2.427   2.046
26207WAT     H178863   0.184   2.404   2.124
26207WAT     H278864   0.100   2.343   1.998
26208WAT      O78865   2.028   9.591   9.023
26208WAT     H178866   2.108   9.647   9.001
26208WAT     H278867   1.950   9.622   8.969
26209WAT      O78868   7.012   1.432   4.997
26209WAT     H178869   6.981   1.343   4.963
26209WAT     H278870   6.937   1.476   5.047
26210WAT      O78871   8.589   3.630   1.500
26210WAT     H178872   8.599   3.697   1.426
26210WAT     H278873   8.578   3.677   1.587
26211WAT      O78874   7.212   4.875   0.659
26211WAT     H178875   7.225   4.884   0.758
26211WAT     H278876   7.117   4.898   0.636
26212WAT      O78877   6.569   0.490   3.823
26212WAT     H178878   6.583   0.509   3.726
26212WAT     H278879   6.483   0.439   3.833
26213WAT      O78880   9.649   1.959   3.056
26213WAT     H178881   9.618   1.927   2.966
26213WAT     H278882   9.734   1.912   3.080
26214WAT      O78883   8.897   7.926   5.817
26214WAT     H178884   8.864   7.865   5.745
26214WAT     H278885   8.847   8.012   5.813
26215WAT      O78886   6.289   9.465   2.839
26215WAT     H178887   6.254   9.440   2.929
26215WAT     H278888   6.357   9.398   2.809
26216WAT      O78889   8.057   2.423   1.809
26216WAT     H178890   8.102   2.511   1.823
26216WAT     H278891   8.105   2.371   1.738
26217WAT      O78892   6.847   1.819   7.781
26217WAT     H178893   6.847   1.907   7.827
26217WAT     H278894   6.824   1.831   7.685
26218WAT      O78895   7.788   2.712   6.937
26218WAT     H178896   7.861   2.688   6.873
26218WAT     H278897   7.702   2.724   6.887
26219WAT      O78898   6.014   2.633   9.506
26219WAT     H178899   6.070   2.552   9.522
26219WAT     H278900   5.934   2.631   9.566
26220WAT      O78901   1.799   7.840   0.400
26220WAT     H178902   1.766   7.907   0.466
26220WAT     H278903   1.865   7.779   0.445
26221WAT      O78904   8.180   1.857   9.663
26221WAT     H178905   8.209   1.903   9.747
26221WAT     H278906   8.260   1.839   9.605
26222WAT      O78907   4.728   2.717   2.476
26222WAT     H178908   4.744   2.702   2.574
26222WAT     H278909   4.700   2.811   2.461
26223WAT      O78910   5.327   3.533   0.245
26223WAT     H178911   5.235   3.495   0.247
26223WAT     H278912   5.344   3.584   0.330
26224WAT      O78913   2.219   9.139   5.921
26224WAT     H178914   2.173   9.135   5.832
26224WAT     H278915   2.214   9.232   5.956
26225WAT      O78916   9.402   9.612   1.592
26225WAT     H178917   9.343   9.531   1.588
26225WAT     H278918   9.360   9.687   1.541
26226WAT      O78919   7.961   5.525   4.516
26226WAT     H178920   8.027   5.551   4.445
26226WAT     H278921   7.966   5.591   4.591
26227WAT      O78922   5.428   2.363   3.891
26227WAT     H178923   5.349   2.353   3.830
26227WAT     H278924   5.475   2.276   3.900
26228WAT      O78925   7.490   5.555   2.143
26228WAT     H178926   7.509   5.542   2.046
26228WAT     H278927   7.527   5.479   2.196
26229WAT      O78928   3.283   6.144   8.454
26229WAT     H178929   3.188   6.174   8.451
26229WAT     H278930   3.302   6.084   8.375
26230WAT      O78931   6.337   8.067   6.124
26230WAT     H178932   6.324   8.150   6.069
26230WAT     H278933   6.355   8.093   6.219
26231WAT      O78934   1.496   3.633   0.291
26231WAT     H178935   1.466   3.615   0.197
26231WAT     H278936   1.501   3.732   0.306
26232WAT      O78937   6.510   2.756   5.679
26232WAT     H178938   6.516   2.799   5.589
26232WAT     H278939   6.443   2.804   5.735
26233WAT      O78940   1.173   0.322   1.782
26233WAT     H178941   1.136   0.411   1.810
26233WAT     H278942   1.176   0.316   1.683
26234WAT      O78943   5.164   3.558   2.915
26234WAT     H178944   5.124   3.586   2.828
26234WAT     H278945   5.102   3.585   2.990
26235WAT      O78946   8.740   7.797   5.621
26235WAT     H178947   8.729   7.801   5.522
26235WAT     H278948   8.664   7.748   5.662
26236WAT      O78949   1.943   4.629   0.110
26236WAT     H178950   1.900   4.719   0.102
26236WAT     H278951   1.946   4.601   0.206
26237WAT      O78952   0.998   1.361   8.205
26237WAT     H178953   1.030   1.270   8.229
26237WAT     H278954   1.039   1.389   8.118
26238WAT      O78955   5.935   7.025   7.441
26238WAT     H178956   5.867   7.014   7.367
26238WAT     H278957   5.896   6.992   7.527
26239WAT      O78958   9.606   1.547   9.358
26239WAT     H178959   9.546   1.472   9.385
26239WAT     H278960   9.586   1.572   9.263
26240WAT      O78961   7.451   6.327   9.380
26240WAT     H178962   7.387   6.309   9.305
26240WAT     H278963   7.515   6.399   9.353
26241WAT      O78964   5.849   6.703   0.760
26241WAT     H178965   5.784   6.779   0.760
26241WAT     H278966   5.821   6.636   0.830
26242WAT      O78967   7.524   1.916   0.323
26242WAT     H178968   7.606   1.973   0.314
26242WAT     H278969   7.522   1.849   0.248
26243WAT      O78970   6.430   1.981   8.177
26243WAT     H178971   6.516   2.032   8.168
26243WAT     H278972   6.389   2.001   8.266
26244WAT      O78973   9.838   6.549   2.859
26244WAT     H178974   9.815   6.610   2.784
26244WAT     H278975   9.925   6.504   2.841
26245WAT      O78976   5.661   0.942   3.339
26245WAT     H178977   5.596   0.984   3.276
26245WAT     H278978   5.714   1.013   3.386
26246WAT      O78979   5.521   0.624   4.752
26246WAT     H178980   5.533   0.593   4.657
26246WAT     H278981   5.459   0.702   4.753
26247WAT      O78982   3.812   2.289   6.466
26247WAT     H178983   3.774   2.361   6.523
26247WAT     H278984   3.829   2.207   6.521
26248WAT      O78985   2.993   7.667   6.025
26248WAT     H178986   2.911   7.637   6.072
26248WAT     H278987   3.074   7.631   6.072
26249WAT      O78988   0.955   8.624   7.879
26249WAT     H178989   0.887   8.593   7.946
26249WAT     H278990   0.938   8.720   7.856
26250WAT      O78991   3.592   2.956   7.265
26250WAT     H178992   3.660   2.885   7.250
26250WAT     H278993   3.621   3.041   7.221
26251WAT      O78994   8.277   4.444   8.521
26251WAT     H178995   8.334   4.436   8.602
26251WAT     H278996   8.313   4.516   8.462
26252WAT      O78997   4.935   0.911   2.687
26252WAT     H178998   4.895   0.982   2.630
26252WAT     H278999   5.033   0.927   2.696
26253WAT      O79000   1.527   3.498   5.036
26253WAT     H179001   1.532   3.557   4.955
26253WAT     H279002   1.466   3.540   5.104
26254WAT      O79003   0.673   5.417   4.146
26254WAT     H179004   0.654   5.474   4.226
26254WAT     H279005   0.590   5.369   4.119
26255WAT      O79006   4.733   6.361   0.243
26255WAT     H179007   4.739   6.452   0.284
26255WAT     H279008   4.701   6.295   0.311
26256WAT      O79009   1.634   2.342   3.998
26256WAT     H179010   1.614   2.290   3.914
26256WAT     H279011   1.549   2.385   4.031
26257WAT      O79012   1.061   6.195   8.540
26257WAT     H179013   1.138   6.218   8.481
26257WAT     H279014   0.993   6.269   8.537
26258WAT      O79015   4.673   8.030   5.845
26258WAT     H179016   4.705   7.936   5.855
26258WAT     H279017   4.578   8.030   5.814
26259WAT      O79018   1.559   7.835   3.738
26259WAT     H179019   1.637   7.780   3.766
26259WAT     H279020   1.509   7.788   3.665
26260WAT      O79021   4.684   2.107   5.311
26260WAT     H179022   4.690   2.036   5.240
26260WAT     H279023   4.756   2.175   5.297
26261WAT      O79024   8.682   9.701   2.448
26261WAT     H179025   8.662   9.657   2.361
26261WAT     H279026   8.683   9.800   2.435
26262WAT      O79027   3.712   9.716   6.384
26262WAT     H179028   3.802   9.725   6.425
26262WAT     H279029   3.675   9.625   6.403
26263WAT      O79030   8.162   1.197   9.034
26263WAT     H179031   8.188   1.102   9.018
26263WAT     H279032   8.164   1.248   8.948
26264WAT      O79033   3.744   1.200   7.249
26264WAT     H179034   3.698   1.265   7.310
26264WAT     H279035   3.804   1.249   7.186
26265WAT      O79036   8.599   0.631   7.184
26265WAT     H179037   8.586   0.535   7.212
26265WAT     H279038   8.614   0.687   7.266
26266WAT      O79039   0.411   2.457   9.231
26266WAT     H179040   0.341   2.415   9.174
26266WAT     H279041   0.461   2.385   9.281
26267WAT      O79042   2.051   2.139   3.292
26267WAT     H179043   2.121   2.113   3.358
26267WAT     H279044   2.078   2.107   3.201
26268WAT      O79045   0.256   9.596   6.326
26268WAT     H179046   0.227   9.649   6.245
26268WAT     H279047   0.249   9.654   6.407
26269WAT      O79048   8.130   1.837   2.020
26269WAT     H179049   8.057   1.775   2.048
26269WAT     H279050   8.140   1.834   1.920
26270WAT      O79051   0.104   4.974   1.106
26270WAT     H179052   0.009   4.984   1.135
26270WAT     H279053   0.163   4.966   1.186
26271WAT      O79054   6.823   4.940   6.389
26271WAT     H179055   6.780   4.876   6.325
26271WAT     H279056   6.849   5.023   6.340
26272WAT      O79057   1.206   8.505   6.051
26272WAT     H179058   1.212   8.412   6.089
26272WAT     H279059   1.246   8.570   6.116
26273WAT      O79060   3.285   3.956   6.123
26273WAT     H179061   3.244   3.913   6.042
26273WAT     H279062   3.238   3.924   6.205
26274WAT      O79063   7.358   3.407   0.177
26274WAT     H179064   7.360   3.471   0.101
26274WAT     H279065   7.317   3.453   0.257
26275WAT      O79066   9.120   3.007   7.794
26275WAT     H179067   9.057   3.078   7.825
26275WAT     H279068   9.133   3.014   7.695
26276WAT      O79069   2.281   4.712   1.000
26276WAT     H179070   2.326   4.785   1.051
26276WAT     H279071   2.191   4.742   0.970
26277WAT      O79072   8.050   0.822   1.190
26277WAT     H179073   8.088   0.759   1.122
26277WAT     H279074   7.980   0.775   1.244
26278WAT      O79075   5.514   6.855   3.130
26278WAT     H179076   5.452   6.799   3.184
26278WAT     H279077   5.607   6.844   3.164
26279WAT      O79078   3.896   2.031   1.101
26279WAT     H179079   3.940   2.058   1.016
26279WAT     H279080   3.965   1.999   1.166
26280WAT      O79081   4.293   7.529   0.924
26280WAT     H179082   4.261   7.621   0.947
26280WAT     H279083   4.293   7.471   1.005
26281WAT      O79084   2.645   9.179   4.754
26281WAT     H179085   2.658   9.085   4.786
26281WAT     H279086   2.675   9.186   4.658
26282WAT      O79087   3.195   9.017   6.750
26282WAT     H179088   3.259   8.947   6.720
26282WAT     H279089   3.130   9.038   6.677
26283WAT      O79090   2.506   6.108   0.892
26283WAT     H179091   2.498   6.198   0.934
26283WAT     H279092   2.557   6.047   0.953
26284WAT      O79093   4.448   3.000   0.411
26284WAT     H179094   4.405   2.933   0.473
26284WAT     H279095   4.445   2.965   0.318
26285WAT      O79096   4.110   8.771   9.859
26285WAT     H179097   4.118   8.697   9.792
26285WAT     H279098   4.030   8.755   9.917
26286WAT      O79099   3.901   1.447   4.496
26286WAT     H179100   3.891   1.362   4.549
26286WAT     H279101   3.811   1.482   4.471
26287WAT      O79102   0.806   1.820   4.907
26287WAT     H179103   0.845   1.880   4.837
26287WAT     H279104   0.725   1.864   4.947
26288WAT      O79105   5.550   4.162   9.805
26288WAT     H179106   5.613   4.092   9.771
26288WAT     H279107   5.516   4.136   9.895
26289WAT      O79108   8.081   0.854   5.037
26289WAT     H179109   8.027   0.811   4.964
26289WAT     H279110   8.020   0.904   5.098
26290WAT      O79111   4.474   5.771   3.429
26290WAT     H179112   4.409   5.822   3.373
26290WAT     H279113   4.482   5.815   3.519
26291WAT      O79114   2.238   2.773   5.884
26291WAT     H179115   2.162   2.829   5.918
26291WAT     H279116   2.295   2.745   5.962
26292WAT      O79117   8.734   8.754   4.786
26292WAT     H179118   8.732   8.725   4.690
26292WAT     H279119   8.676   8.834   4.798
26293WAT      O79120   5.555   9.016   5.542
26293WAT     H179121   5.573   8.967   5.456
26293WAT     H279122   5.489   9.089   5.526
26294WAT      O79123   0.107   9.273   5.402
26294WAT     H179124   0.172   9.325   5.346
26294WAT     H279125   0.089   9.323   5.486
26295WAT      O79126   3.000   6.427   8.139
26295WAT     H179127   3.098   6.428   8.161
26295WAT     H279128   2.949   6.394   8.218
26296WAT      O79129   7.077   1.596   9.469
26296WAT     H179130   6.998   1.545   9.434
26296WAT     H279131   7.130   1.633   9.393
26297WAT      O79132   3.445   6.850   4.468
26297WAT     H179133   3.420   6.753   4.470
26297WAT     H279134   3.539   6.860   4.435
26298WAT      O79135   2.140   0.744   7.591
26298WAT     H179136   2.062   0.778   7.539
26298WAT     H279137   2.180   0.665   7.545
26299WAT      O79138   8.102   6.903   7.042
26299WAT     H179139   8.078   6.920   7.138
26299WAT     H279140   8.179   6.840   7.037
26300WAT      O79141   9.399   9.796   9.420
26300WAT     H179142   9.443   9.756   9.500
26300WAT     H279143   9.351   9.879   9.447
26301WAT      O79144   7.079   3.763   1.833
26301WAT     H179145   7.132   3.829   1.780
26301WAT     H279146   6.988   3.752   1.792
26302WAT      O79147   5.418   9.120   5.273
26302WAT     H179148   5.462   9.073   5.197
26302WAT     H279149   5.346   9.181   5.237
26303WAT      O79150   2.344   0.363   4.305
26303WAT     H179151   2.411   0.303   4.348
26303WAT     H279152   2.297   0.415   4.376
26304WAT      O79153   6.172   2.434   1.888
26304WAT     H179154   6.269   2.421   1.906
26304WAT     H279155   6.145   2.528   1.910
26305WAT      O79156   0.245   7.349   2.089
26305WAT     H179157   0.217   7.445   2.086
26305WAT     H279158   0.199   7.299   2.016
26306WAT      O79159   8.062   8.694   9.563
26306WAT     H179160   7.993   8.666   9.497
26306WAT     H279161   8.020   8.754   9.632
26307WAT      O79162   1.597   0.188   4.676
26307WAT     H179163   1.540   0.269   4.696
26307WAT     H279164   1.550   0.131   4.608
26308WAT      O79165   0.390   1.627   2.079
26308WAT     H179166   0.454   1.621   2.155
26308WAT     H279167   0.302   1.660   2.111
26309WAT      O79168   7.593   6.291   5.442
26309WAT     H179169   7.673   6.293   5.382
26309WAT     H279170   7.609   6.223   5.515
26310WAT      O79171   1.587   9.315   5.550
26310WAT     H179172   1.577   9.221   5.582
26310WAT     H279173   1.612   9.374   5.626
26311WAT      O79174   0.846   7.516   2.223
26311WAT     H179175   0.776   7.487   2.288
26311WAT     H279176   0.911   7.441   2.209
26312WAT      O79177   4.993   2.604   1.286
26312WAT     H179178   4.901   2.566   1.277
26312WAT     H279179   5.016   2.656   1.203
26313WAT      O79180   4.973   9.556   4.848
26313WAT     H179181   4.944   9.639   4.895
26313WAT     H279182   5.073   9.549   4.850
26314WAT      O79183   0.253   8.026   0.827
26314WAT     H179184   0.321   8.078   0.879
26314WAT     H279185   0.234   8.073   0.741
26315WAT      O79186   4.193   6.079   1.686
26315WAT     H179187   4.253   6.148   1.725
26315WAT     H279188   4.110   6.122   1.651
26316WAT      O79189   1.037   7.833   1.106
26316WAT     H179190   0.975   7.910   1.094
26316WAT     H279191   1.082   7.813   1.019
26317WAT      O79192   2.364   7.593   1.032
26317WAT     H179193   2.382   7.513   0.975
26317WAT     H279194   2.431   7.598   1.106
26318WAT      O79195   3.619   7.907   8.506
26318WAT     H179196   3.564   7.850   8.567
26318WAT     H279197   3.558   7.970   8.456
26319WAT      O79198   9.533   1.341   7.419
26319WAT     H179199   9.585   1.378   7.496
26319WAT     H279200   9.576   1.257   7.388
26320WAT      O79201   4.884   2.775   7.334
26320WAT     H179202   4.862   2.872   7.335
26320WAT     H279203   4.852   2.735   7.248
26321WAT      O79204   1.757   8.379   5.067
26321WAT     H179205   1.848   8.383   5.028
26321WAT     H279206   1.728   8.471   5.094
26322WAT      O79207   7.018   2.066   5.068
26322WAT     H179208   7.004   1.990   5.005
26322WAT     H279209   7.110   2.102   5.057
26323WAT      O79210   7.412   9.346   9.733
26323WAT     H179211   7.400   9.391   9.644
26323WAT     H279212   7.340   9.279   9.747
26324WAT      O79213   6.040   2.082   8.128
26324WAT     H179214   6.063   1.984   8.131
26324WAT     H279215   5.970   2.102   8.197
26325WAT      O79216   6.509   6.028   9.634
26325WAT     H179217   6.518   5.943   9.582
26325WAT     H279218   6.420   6.030   9.680
26326WAT      O79219   9.815   2.949   9.219
26326WAT     H179220   9.892   2.974   9.279
26326WAT     H279221   9.814   2.850   9.207
26327WAT      O79222   3.301   0.504   4.006
26327WAT     H179223   3.240   0.424   4.001
26327WAT     H279224   3.395   0.474   3.993
26328WAT      O79225   2.867   9.403   4.361
26328WAT     H179226   2.858   9.413   4.262
26328WAT     H279227   2.964   9.400   4.386
26329WAT      O79228   3.709   3.988   8.654
26329WAT     H179229   3.653   3.949   8.728
26329WAT     H279230   3.802   4.004   8.688
26330WAT      O79231   1.824   3.692   2.741
26330WAT     H179232   1.773   3.725   2.662
26330WAT     H279233   1.761   3.651   2.807
26331WAT      O79234   6.219   7.263   4.772
26331WAT     H179235   6.187   7.357   4.760
26331WAT     H279236   6.223   7.217   4.683
26332WAT      O79237   4.383   0.469   7.926
26332WAT     H179238   4.359   0.497   8.019
26332WAT     H279239   4.474   0.428   7.926
26333WAT      O79240   4.983   4.475   7.608
26333WAT     H179241   4.987   4.494   7.510
26333WAT     H279242   5.025   4.550   7.659
26334WAT      O79243   5.106   7.802   1.371
26334WAT     H179244   5.115   7.730   1.302
26334WAT     H279245   5.174   7.788   1.444
26335WAT      O79246   1.602   8.912   6.552
26335WAT     H179247   1.517   8.919   6.500
26335WAT     H279248   1.580   8.909   6.650
26336WAT      O79249   9.046   8.419   4.307
26336WAT     H179250   9.085   8.494   4.255
26336WAT     H279251   9.020   8.345   4.244
26337WAT      O79252   7.504   4.094   3.129
26337WAT     H179253   7.439   4.018   3.135
26337WAT     H279254   7.545   4.111   3.218
26338WAT      O79255   4.961   7.270   3.417
26338WAT     H179256   5.056   7.244   3.399
26338WAT     H279257   4.951   7.369   3.410
26339WAT      O79258   4.012   5.716   5.929
26339WAT     H179259   4.059   5.779   5.991
26339WAT     H279260   4.080   5.669   5.872
26340WAT      O79261   4.721   4.427   4.908
26340WAT     H179262   4.777   4.506   4.883
26340WAT     H279263   4.723   4.360   4.834
26341WAT      O79264   0.926   1.404   1.189
26341WAT     H179265   0.932   1.487   1.245
26341WAT     H279266   0.996   1.406   1.118
26342WAT      O79267   8.696   2.369   0.544
26342WAT     H179268   8.662   2.322   0.462
26342WAT     H279269   8.741   2.454   0.517
26343WAT      O79270   0.890   2.151   2.885
26343WAT     H179271   0.919   2.238   2.926
26343WAT     H279272   0.816   2.111   2.940
26344WAT      O79273   8.357   7.111   5.153
26344WAT     H179274   8.357   7.012   5.165
26344WAT     H279275   8.326   7.155   5.238
26345WAT      O79276   4.049   5.646   3.590
26345WAT     H179277   4.027   5.739   3.560
26345WAT     H279278   4.146   5.640   3.612
26346WAT      O79279   2.953   0.404   7.876
26346WAT     H179280   2.961   0.472   7.803
26346WAT     H279281   3.043   0.390   7.918
26347WAT      O79282   6.775   5.788   5.832
26347WAT     H179283   6.866   5.827   5.821
26347WAT     H279284   6.709   5.844   5.782
26348WAT      O79285   0.957   6.296   1.513
26348WAT     H179286   0.894   6.262   1.442
26348WAT     H279287   0.951   6.396   1.518
26349WAT      O79288   1.859   3.890   1.919
26349WAT     H179289   1.791   3.817   1.926
26349WAT     H279290   1.905   3.903   2.007
26350WAT      O79291   0.967   2.421   6.312
26350WAT     H179292   0.979   2.435   6.214
26350WAT     H279293   0.869   2.422   6.334
26351WAT      O79294   8.068   8.987   2.560
26351WAT     H179295   8.057   9.036   2.646
26351WAT     H279296   7.977   8.967   2.521
26352WAT      O79297   1.438   0.868   3.794
26352WAT     H179298   1.405   0.780   3.830
26352WAT     H279299   1.519   0.895   3.845
26353WAT      O79300   7.491   5.993   9.737
26353WAT     H179301   7.546   5.962   9.660
26353WAT     H279302   7.491   6.093   9.740
26354WAT      O79303   8.827   5.722   2.951
26354WAT     H179304   8.905   5.779   2.979
26354WAT     H279305   8.790   5.756   2.865
26355WAT      O79306   5.999   6.264   2.907
26355WAT     H179307   6.006   6.228   3.000
26355WAT     H279308   6.048   6.351   2.901
26356WAT      O79309   2.423   2.110   1.279
26356WAT     H179310   2.462   2.021   1.260
26356WAT     H279311   2.380   2.109   1.370
26357WAT      O79312   3.531   5.927   0.444
26357WAT     H179313   3.443   5.974   0.447
26357WAT     H279314   3.605   5.994   0.442
26358WAT      O79315   0.050   3.313   9.006
26358WAT     H179316   0.101   3.366   9.075
26358WAT     H279317   0.002   3.376   8.945
26359WAT      O79318   7.697   3.814   2.417
26359WAT     H179319   7.751   3.855   2.343
26359WAT     H279320   7.758   3.785   2.491
26360WAT      O79321   5.151   6.535   4.188
26360WAT     H179322   5.182   6.626   4.160
26360WAT     H279323   5.172   6.521   4.285
26361WAT      O79324   5.775   6.124   4.858
26361WAT     H179325   5.710   6.148   4.930
26361WAT     H279326   5.826   6.043   4.886
26362WAT      O79327   7.859   2.177   5.660
26362WAT     H179328   7.797   2.250   5.632
26362WAT     H279329   7.953   2.211   5.659
26363WAT      O79330   1.602   6.485   8.969
26363WAT     H179331   1.519   6.435   8.994
26363WAT     H279332   1.596   6.516   8.875
26364WAT      O79333   1.649   3.859   5.016
26364WAT     H179334   1.704   3.820   5.090
26364WAT     H279335   1.646   3.958   5.025
26365WAT      O79336   5.355   6.866   5.235
26365WAT     H179337   5.444   6.834   5.203
26365WAT     H279338   5.285   6.841   5.169
26366WAT      O79339   2.288   9.208   1.445
26366WAT     H179340   2.211   9.270   1.461
26366WAT     H279341   2.349   9.248   1.375
26367WAT      O79342   1.297   2.433   7.929
26367WAT     H179343   1.361   2.357   7.918
26367WAT     H279344   1.204   2.398   7.934
26368WAT      O79345   9.250   8.026   0.765
26368WAT     H179346   9.295   8.098   0.818
26368WAT     H279347   9.196   7.969   0.827
26369WAT      O79348   3.835   4.461   2.551
26369WAT     H179349   3.764   4.517   2.593
26369WAT     H279350   3.921   4.473   2.600
26370WAT      O79351   3.039   2.687   0.850
26370WAT     H179352   3.046   2.592   0.818
26370WAT     H279353   3.130   2.721   0.872
26371WAT      O79354   3.922   3.149   5.540
26371WAT     H179355   3.964   3.224   5.489
26371WAT     H279356   3.856   3.102   5.482
26372WAT      O79357   3.730   8.899   8.129
26372WAT     H179358   3.795   8.969   8.160
26372WAT     H279359   3.665   8.939   8.065
26373WAT      O79360   6.857   8.812   1.594
26373WAT     H179361   6.812   8.761   1.668
26373WAT     H279362   6.808   8.798   1.508
26374WAT      O79363   0.046   8.783   6.715
26374WAT     H179364   0.001   8.832   6.790
26374WAT     H279365   0.109   8.715   6.753
26375WAT      O79366   0.671   9.572   0.119
26375WAT     H179367   0.707   9.653   0.073
26375WAT     H279368   0.697   9.490   0.068
26376WAT      O79369   0.862   0.601   0.874
26376WAT     H179370   0.912   0.625   0.790
26376WAT     H279371   0.835   0.684   0.922
26377WAT      O79372   0.896   3.469   6.996
26377WAT     H179373   0.986   3.466   7.040
26377WAT     H279374   0.902   3.525   6.913
26378WAT      O79375   9.286   7.515   7.295
26378WAT     H179376   9.218   7.549   7.360
26378WAT     H279377   9.286   7.574   7.214
26379WAT      O79378   3.178   6.862   4.237
26379WAT     H179379   3.118   6.865   4.157
26379WAT     H279380   3.273   6.855   4.207
26380WAT      O79381   8.029   1.784   2.418
26380WAT     H179382   7.950   1.842   2.397
26380WAT     H279383   8.112   1.828   2.386
26381WAT      O79384   5.786   0.700   3.614
26381WAT     H179385   5.716   0.632   3.594
26381WAT     H279386   5.746   0.774   3.667
26382WAT      O79387   3.569   8.141   5.075
26382WAT     H179388   3.613   8.055   5.051
26382WAT     H279389   3.639   8.206   5.105
26383WAT      O79390   9.394   0.728   1.333
26383WAT     H179391   9.412   0.812   1.283
26383WAT     H279392   9.480   0.688   1.364
26384WAT      O79393   3.986   1.930   6.354
26384WAT     H179394   3.911   1.968   6.408
26384WAT     H279395   4.071   1.977   6.377
26385WAT      O79396   7.124   8.286   8.379
26385WAT     H179397   7.070   8.360   8.338
26385WAT     H279398   7.072   8.244   8.453
26386WAT      O79399   5.090   4.618   1.853
26386WAT     H179400   5.175   4.566   1.861
26386WAT     H279401   5.047   4.598   1.765
26387WAT      O79402   4.381   1.398   0.512
26387WAT     H179403   4.461   1.453   0.487
26387WAT     H279404   4.342   1.432   0.597
26388WAT      O79405   4.278   7.111   6.136
26388WAT     H179406   4.377   7.103   6.120
26388WAT     H279407   4.257   7.202   6.170
26389WAT      O79408   8.683   8.702   9.585
26389WAT     H179409   8.670   8.798   9.611
26389WAT     H279410   8.780   8.684   9.570
26390WAT      O79411   0.673   0.951   1.852
26390WAT     H179412   0.648   0.942   1.755
26390WAT     H279413   0.708   0.864   1.885
26391WAT      O79414   5.759   0.331   2.200
26391WAT     H179415   5.729   0.399   2.133
26391WAT     H279416   5.842   0.364   2.246
26392WAT      O79417   6.523  -0.004   7.301
26392WAT     H179418   6.520   0.080   7.246
26392WAT     H279419   6.505   0.017   7.396
26393WAT      O79420   8.718   7.221   1.172
26393WAT     H179421   8.749   7.282   1.244
26393WAT     H279422   8.631   7.254   1.135
26394WAT      O79423   0.743   7.609   8.437
26394WAT     H179424   0.802   7.629   8.515
26394WAT     H279425   0.764   7.517   8.402
26395WAT      O79426   6.384   8.004   3.034
26395WAT     H179427   6.468   7.998   3.087
26395WAT     H279428   6.375   8.097   2.996
26396WAT      O79429   6.639   2.896   6.946
26396WAT     H179430   6.604   2.980   6.988
26396WAT     H279431   6.569   2.858   6.885
26397WAT      O79432   4.486   1.351   8.810
26397WAT     H179433   4.406   1.313   8.764
26397WAT     H279434   4.456   1.404   8.890
26398WAT      O79435   1.779   7.278   5.816
26398WAT     H179436   1.691   7.254   5.775
26398WAT     H279437   1.844   7.302   5.744
26399WAT      O79438   0.061   4.570   1.073
26399WAT     H179439   0.009   4.499   1.026
26399WAT     H279440   0.008   4.602   1.152
26400WAT      O79441   6.079   0.903   4.958
26400WAT     H179442   6.010   0.862   5.017
26400WAT     H279443   6.060   0.880   4.862
26401WAT      O79444   5.679   1.965   7.164
26401WAT     H179445   5.751   1.909   7.123
26401WAT     H279446   5.594   1.954   7.112
26402WAT      O79447   8.079   5.947   8.912
26402WAT     H179448   8.158   5.981   8.862
26402WAT     H279449   8.049   6.016   8.978
26403WAT      O79450   0.856   4.252   3.609
26403WAT     H179451   0.784   4.238   3.676
26403WAT     H279452   0.913   4.169   3.604
26404WAT      O79453   6.631   9.298   3.198
26404WAT     H179454   6.661   9.297   3.102
26404WAT     H279455   6.675   9.374   3.246
26405WAT      O79456   7.477   2.522   8.811
26405WAT     H179457   7.386   2.530   8.771
26405WAT     H279458   7.546   2.535   8.739
26406WAT      O79459   8.277   2.224   9.181
26406WAT     H179460   8.322   2.306   9.146
26406WAT     H279461   8.318   2.198   9.269
26407WAT      O79462   8.583   3.056   7.093
26407WAT     H179463   8.519   2.994   7.048
26407WAT     H279464   8.672   3.011   7.102
26408WAT      O79465   1.377   9.231   7.709
26408WAT     H179466   1.473   9.250   7.732
26408WAT     H279467   1.338   9.311   7.662
26409WAT      O79468   6.551   6.598   4.251
26409WAT     H179469   6.627   6.619   4.188
26409WAT     H279470   6.499   6.682   4.269
26410WAT      O79471   6.989   2.320   6.999
26410WAT     H179472   6.952   2.280   7.083
26410WAT     H279473   6.916   2.365   6.948
26411WAT      O79474   8.888   6.767   3.113
26411WAT     H179475   8.820   6.802   3.048
26411WAT     H279476   8.951   6.840   3.138
26412WAT      O79477   9.446   4.526   3.806
26412WAT     H179478   9.523   4.466   3.780
26412WAT     H279479   9.362   4.473   3.808
26413WAT      O79480   7.621   7.336   3.425
26413WAT     H179481   7.620   7.414   3.363
26413WAT     H279482   7.649   7.254   3.375
26414WAT      O79483   2.403   8.453   9.060
26414WAT     H179484   2.329   8.386   9.063
26414WAT     H279485   2.462   8.441   9.140
26415WAT      O79486   5.727   7.141   6.408
26415WAT     H179487   5.695   7.049   6.384
26415WAT     H279488   5.653   7.190   6.455
26416WAT      O79489   5.426   7.957   8.093
26416WAT     H179490   5.518   7.938   8.059
26416WAT     H279491   5.363   7.889   8.056
26417WAT      O79492   6.947   9.532   4.924
26417WAT     H179493   6.998   9.458   4.880
26417WAT     H279494   6.866   9.494   4.969
26418WAT      O79495   8.131   7.920   2.821
26418WAT     H179496   8.205   7.858   2.795
26418WAT     H279497   8.168   8.012   2.838
26419WAT      O79498   7.338   7.570   2.712
26419WAT     H179499   7.251   7.523   2.723
26419WAT     H279500   7.353   7.631   2.790
26420WAT      O79501   2.036   2.158   7.597
26420WAT     H179502   1.959   2.192   7.543
26420WAT     H279503   2.020   2.062   7.622
26421WAT      O79504   9.222   8.606   7.959
26421WAT     H179505   9.290   8.668   7.921
26421WAT     H279506   9.178   8.649   8.038
26422WAT      O79507   0.432   3.606   2.031
26422WAT     H179508   0.452   3.654   1.945
26422WAT     H279509   0.378   3.524   2.012
26423WAT      O79510   3.219   7.129   6.394
26423WAT     H179511   3.189   7.036   6.418
26423WAT     H279512   3.314   7.126   6.362
26424WAT      O79513   0.910   5.902   5.622
26424WAT     H179514   0.994   5.850   5.608
26424WAT     H279515   0.863   5.867   5.703
26425WAT      O79516   0.613   8.774   0.019
26425WAT     H179517   0.689   8.810  -0.034
26425WAT     H279518   0.548   8.729  -0.042
26426WAT      O79519   2.959   9.132   2.147
26426WAT     H179520   2.952   9.205   2.215
26426WAT     H279521   2.924   9.047   2.185
26427WAT      O79522   6.110   3.731   6.133
26427WAT     H179523   6.043   3.792   6.175
26427WAT     H279524   6.064   3.656   6.087
26428WAT      O79525   7.745   4.038   0.426
26428WAT     H179526   7.731   4.117   0.486
26428WAT     H279527   7.758   3.956   0.480
26429WAT      O79528   9.291   1.846   3.395
26429WAT     H179529   9.233   1.790   3.335
26429WAT     H279530   9.370   1.878   3.343
26430WAT      O79531   9.848   3.400   5.388
26430WAT     H179532   9.872   3.417   5.293
26430WAT     H279533   9.914   3.446   5.448
26431WAT      O79534   1.863   8.267   2.830
26431WAT     H179535   1.863   8.237   2.734
26431WAT     H279536   1.846   8.188   2.889
26432WAT      O79537   3.062   0.370   2.230
26432WAT     H179538   3.055   0.357   2.329
26432WAT     H279539   3.010   0.299   2.183
26433WAT      O79540   3.326   5.501   2.526
26433WAT     H179541   3.402   5.445   2.493
26433WAT     H279542   3.333   5.593   2.488
26434WAT      O79543   1.602   7.121   3.862
26434WAT     H179544   1.697   7.104   3.834
26434WAT     H279545   1.542   7.052   3.820
26435WAT      O79546   9.064   8.681   2.012
26435WAT     H179547   9.063   8.715   2.105
26435WAT     H279548   9.140   8.722   1.961
26436WAT      O79549   9.461   5.208   8.855
26436WAT     H179550   9.390   5.273   8.826
26436WAT     H279551   9.463   5.130   8.792
26437WAT      O79552   8.483   4.380   9.752
26437WAT     H179553   8.581   4.395   9.766
26437WAT     H279554   8.441   4.464   9.719
26438WAT      O79555   1.731   1.407   1.646
26438WAT     H179556   1.784   1.322   1.652
26438WAT     H279557   1.733   1.454   1.734
26439WAT      O79558   1.204   7.129   8.217
26439WAT     H179559   1.165   7.213   8.179
26439WAT     H279560   1.205   7.135   8.317
26440WAT      O79561   5.403   3.342   6.282
26440WAT     H179562   5.397   3.248   6.317
26440WAT     H279563   5.489   3.354   6.234
26441WAT      O79564   9.362   7.007   4.645
26441WAT     H179565   9.377   6.934   4.712
26441WAT     H279566   9.317   6.969   4.564
26442WAT      O79567   6.691   8.247   9.487
26442WAT     H179568   6.616   8.229   9.550
26442WAT     H279569   6.740   8.161   9.467
26443WAT      O79570   0.129   8.189   6.766
26443WAT     H179571   0.058   8.177   6.696
26443WAT     H279572   0.115   8.276   6.813
26444WAT      O79573   3.489   1.583   6.166
26444WAT     H179574   3.489   1.602   6.068
26444WAT     H279575   3.554   1.510   6.187
26445WAT      O79576   1.703   8.345   9.595
26445WAT     H179577   1.674   8.429   9.549
26445WAT     H279578   1.630   8.313   9.655
26446WAT      O79579   1.783   9.684   5.457
26446WAT     H179580   1.837   9.617   5.508
26446WAT     H279581   1.745   9.752   5.521
26447WAT      O79582   2.645   3.624   2.354
26447WAT     H179583   2.586   3.664   2.284
26447WAT     H279584   2.663   3.528   2.332
26448WAT      O79585   8.256   7.203   4.677
26448WAT     H179586   8.260   7.183   4.579
26448WAT     H279587   8.166   7.180   4.713
26449WAT      O79588   0.724   2.157   7.302
26449WAT     H179589   0.792   2.114   7.243
26449WAT     H279590   0.633   2.146   7.263
26450WAT      O79591   6.982   3.659   2.421
26450WAT     H179592   6.887   3.638   2.395
26450WAT     H279593   7.002   3.754   2.397
26451WAT      O79594   1.630   3.548   9.411
26451WAT     H179595   1.551   3.499   9.450
26451WAT     H279596   1.621   3.646   9.429
26452WAT      O79597   3.832   4.709   8.590
26452WAT     H179598   3.906   4.700   8.657
26452WAT     H279599   3.755   4.652   8.618
26453WAT      O79600   2.960   6.283   0.030
26453WAT     H179601   3.048   6.301  -0.012
26453WAT     H279602   2.917   6.204  -0.015
26454WAT      O79603   3.373   0.894   7.695
26454WAT     H179604   3.285   0.881   7.650
26454WAT     H279605   3.429   0.958   7.641
26455WAT      O79606   3.105   4.967   5.149
26455WAT     H179607   3.044   4.999   5.076
26455WAT     H279608   3.102   4.867   5.154
26456WAT      O79609   5.564   3.201   5.798
26456WAT     H179610   5.542   3.140   5.722
26456WAT     H279611   5.590   3.291   5.763
26457WAT      O79612   7.415   9.243   3.618
26457WAT     H179613   7.401   9.147   3.595
26457WAT     H279614   7.369   9.300   3.550
26458WAT      O79615   9.439   4.191   2.698
26458WAT     H179616   9.381   4.109   2.694
26458WAT     H279617   9.407   4.250   2.773
26459WAT      O79618   1.921   5.286   6.746
26459WAT     H179619   1.994   5.234   6.701
26459WAT     H279620   1.833   5.244   6.726
26460WAT      O79621   6.455   1.855   3.181
26460WAT     H179622   6.484   1.879   3.089
26460WAT     H279623   6.451   1.937   3.238
26461WAT      O79624   8.897   2.255   2.181
26461WAT     H179625   8.941   2.261   2.091
26461WAT     H279626   8.964   2.224   2.249
26462WAT      O79627   3.333   2.602   1.444
26462WAT     H179628   3.298   2.666   1.513
26462WAT     H279629   3.415   2.557   1.478
26463WAT      O79630   5.782   5.735   3.338
26463WAT     H179631   5.795   5.648   3.291
26463WAT     H279632   5.685   5.750   3.355
26464WAT      O79633   7.851   5.608   2.130
26464WAT     H179634   7.768   5.633   2.179
26464WAT     H279635   7.904   5.691   2.109
26465WAT      O79636   5.540   4.544   4.431
26465WAT     H179637   5.553   4.572   4.336
26465WAT     H279638   5.454   4.493   4.439
26466WAT      O79639   0.141   4.582   7.269
26466WAT     H179640   0.222   4.640   7.258
26466WAT     H279641   0.142   4.511   7.198
26467WAT      O79642   5.164   0.689   8.989
26467WAT     H179643   5.247   0.738   9.017
26467WAT     H279644   5.098   0.690   9.063
26468WAT      O79645   9.276   6.837   0.208
26468WAT     H179646   9.180   6.828   0.231
26468WAT     H279647   9.328   6.762   0.249
26469WAT      O79648   7.577   1.107   5.657
26469WAT     H179649   7.528   1.083   5.573
26469WAT     H279650   7.659   1.159   5.634
26470WAT      O79651   6.624   5.596   6.355
26470WAT     H179652   6.616   5.694   6.335
26470WAT     H279653   6.581   5.543   6.282
26471WAT      O79654   5.201   6.499   7.589
26471WAT     H179655   5.107   6.464   7.587
26471WAT     H279656   5.205   6.588   7.543
26472WAT      O79657   2.664   9.582   9.489
26472WAT     H179658   2.576   9.559   9.531
26472WAT     H279659   2.651   9.653   9.420
26473WAT      O79660   5.121   0.557   3.978
26473WAT     H179661   5.090   0.605   4.060
26473WAT     H279662   5.042   0.529   3.924
26474WAT      O79663   3.549   8.877   4.187
26474WAT     H179664   3.581   8.960   4.141
26474WAT     H279665   3.627   8.824   4.220
26475WAT      O79666   1.666   3.348   0.012
26475WAT     H179667   1.619   3.434   0.031
26475WAT     H279668   1.703   3.311   0.097
26476WAT      O79669   0.037   4.995   9.286
26476WAT     H179670   0.001   5.084   9.257
26476WAT     H279671  -0.020   4.922   9.249
26477WAT      O79672   9.233   3.359   3.641
26477WAT     H179673   9.184   3.426   3.585
26477WAT     H279674   9.243   3.393   3.734
26478WAT      O79675   2.367   3.936   7.049
26478WAT     H179676   2.373   4.028   7.009
26478WAT     H279677   2.288   3.889   7.011
26479WAT      O79678   6.745   3.803   1.054
26479WAT     H179679   6.702   3.765   0.971
26479WAT     H279680   6.686   3.785   1.132
26480WAT      O79681   4.491   4.077   7.251
26480WAT     H179682   4.562   4.007   7.253
26480WAT     H279683   4.532   4.167   7.256
26481WAT      O79684   2.384   2.167   5.197
26481WAT     H179685   2.350   2.073   5.197
26481WAT     H279686   2.481   2.168   5.220
26482WAT      O79687   6.478   6.310   5.110
26482WAT     H179688   6.517   6.402   5.107
26482WAT     H279689   6.402   6.303   5.046
26483WAT      O79690   6.775   1.585   3.266
26483WAT     H179691   6.857   1.600   3.211
26483WAT     H279692   6.746   1.671   3.307
26484WAT      O79693   2.792   6.886   3.036
26484WAT     H179694   2.814   6.797   3.078
26484WAT     H279695   2.862   6.908   2.967
26485WAT      O79696   7.099   4.231   8.606
26485WAT     H179697   7.144   4.277   8.530
26485WAT     H279698   7.055   4.299   8.666
26486WAT      O79699   9.072   6.773   5.471
26486WAT     H179700   9.088   6.725   5.557
26486WAT     H279701   9.157   6.818   5.442
26487WAT      O79702   6.670   5.289   3.996
26487WAT     H179703   6.573   5.273   3.978
26487WAT     H279704   6.695   5.381   3.968
26488WAT      O79705   9.817   8.417   8.443
26488WAT     H179706   9.794   8.426   8.346
26488WAT     H279707   9.738   8.443   8.499
26489WAT      O79708   7.754   0.064   7.323
26489WAT     H179709   7.721   0.125   7.395
26489WAT     H279710   7.807  -0.010   7.364
26490WAT      O79711   5.684   9.383   4.594
26490WAT     H179712   5.600   9.365   4.543
26490WAT     H279713   5.715   9.298   4.637
26491WAT      O79714   1.818   2.033   7.837
26491WAT     H179715   1.820   2.115   7.894
26491WAT     H279716   1.780   1.957   7.891
26492WAT      O79717   6.751   8.380   3.708
26492WAT     H179718   6.710   8.300   3.752
26492WAT     H279719   6.834   8.352   3.661
26493WAT      O79720   3.399   5.731   2.425
26493WAT     H179721   3.383   5.742   2.327
26493WAT     H279722   3.497   5.725   2.443
26494WAT      O79723   8.550   5.679   0.320
26494WAT     H179724   8.554   5.769   0.362
26494WAT     H279725   8.624   5.622   0.355
26495WAT      O79726   2.191   1.069   9.343
26495WAT     H179727   2.276   1.073   9.290
26495WAT     H279728   2.211   1.086   9.440
26496WAT      O79729   2.483   7.580   9.245
26496WAT     H179730   2.566   7.616   9.204
26496WAT     H279731   2.449   7.645   9.314
26497WAT      O79732   0.126   0.109   6.700
26497WAT     H179733   0.068   0.155   6.768
26497WAT     H279734   0.068   0.069   6.630
26498WAT      O79735   5.215   5.335   6.539
26498WAT     H179736   5.163   5.266   6.489
26498WAT     H279737   5.278   5.381   6.476
26499WAT      O79738   2.961   5.101   0.281
26499WAT     H179739   2.921   5.190   0.304
26499WAT     H279740   2.888   5.032   0.279
26500WAT      O79741   5.888   8.098   8.936
26500WAT     H179742   5.884   8.183   8.884
26500WAT     H279743   5.796   8.063   8.952
26501WAT      O79744   1.280   5.461   0.370
26501WAT     H179745   1.219   5.538   0.388
26501WAT     H279746   1.375   5.490   0.382
26502WAT      O79747   0.599   3.415   2.825
26502WAT     H179748   0.504   3.383   2.833
26502WAT     H279749   0.625   3.418   2.729
26503WAT      O79750   9.531   1.238   9.551
26503WAT     H179751   9.630   1.231   9.559
26503WAT     H279752   9.500   1.325   9.590
26504WAT      O79753   7.931   1.572   3.877
26504WAT     H179754   7.992   1.636   3.922
26504WAT     H279755   7.984   1.512   3.816
26505WAT      O79756   2.599   2.191   8.665
26505WAT     H179757   2.584   2.103   8.619
26505WAT     H279758   2.636   2.257   8.599
26506WAT      O79759   7.247   6.434   2.895
26506WAT     H179760   7.338   6.393   2.898
26506WAT     H279761   7.251   6.526   2.933
26507WAT      O79762   5.779   6.889   3.237
26507WAT     H179763   5.752   6.888   3.333
26507WAT     H279764   5.795   6.984   3.209
26508WAT      O79765   7.527   1.463   8.567
26508WAT     H179766   7.488   1.371   8.559
26508WAT     H279767   7.501   1.517   8.488
26509WAT      O79768   8.433   7.592   4.271
26509WAT     H179769   8.440   7.675   4.216
26509WAT     H279770   8.345   7.547   4.252
26510WAT      O79771   2.720   6.037   4.206
26510WAT     H179772   2.786   5.989   4.148
26510WAT     H279773   2.656   5.971   4.246
26511WAT      O79774   1.538   0.017   6.902
26511WAT     H179775   1.507   0.094   6.846
26511WAT     H279776   1.575   0.051   6.989
26512WAT      O79777   6.404   0.753   3.549
26512WAT     H179778   6.428   0.724   3.456
26512WAT     H279779   6.394   0.852   3.552
26513WAT      O79780   8.584   2.973   9.833
26513WAT     H179781   8.659   3.039   9.840
26513WAT     H279782   8.520   2.987   9.908
26514WAT      O79783   9.382   0.857   7.662
26514WAT     H179784   9.389   0.910   7.578
26514WAT     H279785   9.336   0.912   7.732
26515WAT      O79786   1.805   3.749   8.296
26515WAT     H179787   1.896   3.747   8.255
26515WAT     H279788   1.812   3.747   8.395
26516WAT      O79789   1.650   9.059   5.267
26516WAT     H179790   1.736   9.106   5.245
26516WAT     H279791   1.617   9.011   5.186
26517WAT      O79792   3.192   9.619   0.804
26517WAT     H179793   3.268   9.661   0.756
26517WAT     H279794   3.126   9.583   0.737
26518WAT      O79795   4.722   4.370   2.500
26518WAT     H179796   4.760   4.277   2.489
26518WAT     H279797   4.710   4.411   2.409
26519WAT      O79798   9.136   3.603   6.280
26519WAT     H179799   9.042   3.605   6.246
26519WAT     H279800   9.190   3.673   6.234
26520WAT      O79801   7.823   6.160   1.942
26520WAT     H179802   7.775   6.202   1.865
26520WAT     H279803   7.921   6.182   1.936
26521WAT      O79804   9.339   1.912   7.972
26521WAT     H179805   9.321   1.958   8.059
26521WAT     H279806   9.309   1.817   7.978
26522WAT      O79807   7.754   7.266   1.336
26522WAT     H179808   7.799   7.251   1.424
26522WAT     H279809   7.672   7.321   1.350
26523WAT      O79810   0.972   1.991   7.843
26523WAT     H179811   1.021   1.941   7.914
26523WAT     H279812   1.024   2.072   7.817
26524WAT      O79813   1.859   9.121   2.601
26524WAT     H179814   1.898   9.077   2.682
26524WAT     H279815   1.765   9.090   2.588
26525WAT      O79816   7.284   7.722   0.365
26525WAT     H179817   7.355   7.773   0.316
26525WAT     H279818   7.327   7.658   0.428
26526WAT      O79819   7.646   1.368   6.908
26526WAT     H179820   7.713   1.370   6.833
26526WAT     H279821   7.554   1.379   6.872
26527WAT      O79822   9.606   9.125   0.463
26527WAT     H179823   9.633   9.220   0.452
26527WAT     H279824   9.554   9.095   0.383
26528WAT      O79825   1.884   7.317   8.234
26528WAT     H179826   1.915   7.409   8.207
26528WAT     H279827   1.788   7.321   8.261
26529WAT      O79828   8.315   4.017   0.570
26529WAT     H179829   8.309   4.116   0.559
26529WAT     H279830   8.401   3.993   0.615
26530WAT      O79831   2.793   2.361   1.916
26530WAT     H179832   2.745   2.448   1.909
26530WAT     H279833   2.732   2.292   1.954
26531WAT      O79834   2.048   6.082   8.153
26531WAT     H179835   2.000   6.164   8.184
26531WAT     H279836   2.137   6.077   8.199
26532WAT      O79837   2.295   9.036   3.514
26532WAT     H179838   2.252   8.999   3.432
26532WAT     H279839   2.356   9.111   3.489
26533WAT      O79840   2.650   9.626   7.524
26533WAT     H179841   2.577   9.587   7.581
26533WAT     H279842   2.627   9.719   7.499
26534WAT      O79843   1.101   9.333   1.949
26534WAT     H179844   1.112   9.250   2.004
26534WAT     H279845   1.022   9.322   1.889
26535WAT      O79846   9.799   1.714   2.730
26535WAT     H179847   9.790   1.615   2.733
26535WAT     H279848   9.895   1.739   2.735
26536WAT      O79849   7.767   4.130   3.920
26536WAT     H179850   7.818   4.044   3.923
26536WAT     H279851   7.830   4.206   3.903
26537WAT      O79852   2.104   8.114   3.417
26537WAT     H179853   2.160   8.137   3.337
26537WAT     H279854   2.047   8.193   3.441
26538WAT      O79855   0.286   3.397   7.193
26538WAT     H179856   0.282   3.496   7.188
26538WAT     H279857   0.205   3.362   7.238
26539WAT      O79858   5.767   6.230   6.809
26539WAT     H179859   5.753   6.170   6.731
26539WAT     H279860   5.864   6.232   6.833
26540WAT      O79861   0.111   1.661   7.170
26540WAT     H179862   0.185   1.697   7.114
26540WAT     H279863   0.024   1.668   7.120
26541WAT      O79864   7.278   6.676   9.214
26541WAT     H179865   7.344   6.719   9.275
26541WAT     H279866   7.325   6.608   9.157
26542WAT      O79867   5.360   6.383   1.181
26542WAT     H179868   5.406   6.304   1.140
26542WAT     H279869   5.429   6.449   1.211
26543WAT      O79870   9.202   5.445   9.109
26543WAT     H179871   9.280   5.413   9.162
26543WAT     H279872   9.209   5.412   9.015
26544WAT      O79873   4.589   4.420   5.437
26544WAT     H179874   4.620   4.511   5.408
26544WAT     H279875   4.573   4.363   5.356
26545WAT      O79876   6.941   6.480   3.513
26545WAT     H179877   6.956   6.388   3.477
26545WAT     H279878   6.977   6.547   3.449
26546WAT      O79879   0.675   9.450   5.184
26546WAT     H179880   0.615   9.395   5.242
26546WAT     H279881   0.621   9.519   5.135
26547WAT      O79882   8.344   1.371   6.045
26547WAT     H179883   8.403   1.350   5.966
26547WAT     H279884   8.276   1.439   6.018
26548WAT      O79885   2.802   0.795   1.137
26548WAT     H179886   2.800   0.892   1.112
26548WAT     H279887   2.821   0.786   1.235
26549WAT      O79888   0.509   1.776   0.478
26549WAT     H179889   0.462   1.716   0.542
26549WAT     H279890   0.559   1.847   0.529
26550WAT      O79891   5.007   7.027   0.084
26550WAT     H179892   5.020   7.126   0.081
26550WAT     H279893   5.024   6.988  -0.006
26551WAT      O79894   8.042   1.354   5.277
26551WAT     H179895   8.041   1.355   5.177
26551WAT     H279896   8.052   1.260   5.309
26552WAT      O79897   2.814   1.943   6.460
26552WAT     H179898   2.860   1.943   6.371
26552WAT     H279899   2.851   2.017   6.516
26553WAT      O79900   6.029   7.902   8.292
26553WAT     H179901   5.990   7.990   8.267
26553WAT     H279902   5.969   7.856   8.358
26554WAT      O79903   2.386   7.901   8.832
26554WAT     H179904   2.332   7.966   8.778
26554WAT     H279905   2.483   7.919   8.817
26555WAT      O79906   2.411   6.099   5.398
26555WAT     H179907   2.395   6.008   5.359
26555WAT     H279908   2.326   6.132   5.440
26556WAT      O79909   1.969   9.393   3.907
26556WAT     H179910   1.963   9.405   4.007
26556WAT     H279911   2.044   9.449   3.871
26557WAT      O79912   9.105   0.273   5.595
26557WAT     H179913   9.038   0.347   5.596
26557WAT     H279914   9.137   0.258   5.501
26558WAT      O79915   8.762   1.493   1.742
26558WAT     H179916   8.845   1.524   1.788
26558WAT     H279917   8.704   1.446   1.808
26559WAT      O79918   2.002   5.017   6.318
26559WAT     H179919   1.953   5.084   6.374
26559WAT     H279920   2.033   4.942   6.376
26560WAT      O79921   3.712   4.261   1.629
26560WAT     H179922   3.755   4.204   1.559
26560WAT     H279923   3.777   4.331   1.659
26561WAT      O79924   4.358   4.667   5.979
26561WAT     H179925   4.420   4.694   6.053
26561WAT     H279926   4.382   4.717   5.896
26562WAT      O79927   8.130   8.916   1.367
26562WAT     H179928   8.085   8.969   1.295
26562WAT     H279929   8.229   8.918   1.354
26563WAT      O79930   9.597   4.859   8.008
26563WAT     H179931   9.618   4.837   7.913
26563WAT     H279932   9.520   4.924   8.011
26564WAT      O79933   4.267   3.977   0.230
26564WAT     H179934   4.204   4.045   0.192
26564WAT     H279935   4.268   3.985   0.330
26565WAT      O79936   4.702   1.130   8.580
26565WAT     H179937   4.653   1.119   8.666
26565WAT     H279938   4.782   1.070   8.579
26566WAT      O79939   5.794   2.599   6.614
26566WAT     H179940   5.814   2.575   6.519
26566WAT     H279941   5.878   2.624   6.661
26567WAT      O79942   6.563   2.343   4.571
26567WAT     H179943   6.575   2.442   4.566
26567WAT     H279944   6.595   2.310   4.660
26568WAT      O79945   3.972   2.741   0.914
26568WAT     H179946   4.047   2.675   0.918
26568WAT     H279947   4.008   2.834   0.921
26569WAT      O79948   5.407   4.469   7.696
26569WAT     H179949   5.389   4.395   7.630
26569WAT     H279950   5.423   4.430   7.786
26570WAT      O79951   4.244   2.088   9.886
26570WAT     H179952   4.304   2.157   9.845
26570WAT     H279953   4.259   2.000   9.841
26571WAT      O79954   4.452   8.765   6.836
26571WAT     H179955   4.411   8.724   6.754
26571WAT     H279956   4.551   8.771   6.825
26572WAT      O79957   0.611   4.898   9.885
26572WAT     H179958   0.609   4.924   9.981
26572WAT     H279959   0.572   4.807   9.874
26573WAT      O79960   6.635   4.827   7.170
26573WAT     H179961   6.687   4.910   7.148
26573WAT     H279962   6.577   4.844   7.250
26574WAT      O79963   6.503   5.557   3.687
26574WAT     H179964   6.599   5.582   3.700
26574WAT     H279965   6.454   5.568   3.774
26575WAT      O79966   2.377   0.171   9.788
26575WAT     H179967   2.381   0.104   9.714
26575WAT     H279968   2.375   0.124   9.876
26576WAT      O79969   6.594   7.403   3.698
26576WAT     H179970   6.572   7.358   3.611
26576WAT     H279971   6.602   7.334   3.769
26577WAT      O79972   6.570   7.285   4.258
26577WAT     H179973   6.515   7.250   4.334
26577WAT     H279974   6.550   7.232   4.175
26578WAT      O79975   2.881   7.286   2.881
26578WAT     H179976   2.968   7.321   2.916
26578WAT     H279977   2.863   7.196   2.919
26579WAT      O79978   6.567   4.753   3.276
26579WAT     H179979   6.521   4.837   3.306
26579WAT     H279980   6.666   4.763   3.291
26580WAT      O79981   1.199   8.132   1.918
26580WAT     H179982   1.144   8.066   1.969
26580WAT     H279983   1.259   8.084   1.855
26581WAT      O79984   9.315   1.804   2.717
26581WAT     H179985   9.219   1.830   2.727
26581WAT     H279986   9.344   1.817   2.623
26582WAT      O79987   4.455   0.877   6.482
26582WAT     H179988   4.369   0.908   6.440
26582WAT     H279989   4.524   0.866   6.411
26583WAT      O79990   7.621   7.031   4.515
26583WAT     H179991   7.584   7.026   4.608
26583WAT     H279992   7.718   7.008   4.516
26584WAT      O79993   3.483   3.055   8.527
26584WAT     H179994   3.540   2.974   8.537
26584WAT     H279995   3.388   3.028   8.514
26585WAT      O79996   2.602   0.179   1.749
26585WAT     H179997   2.558   0.169   1.839
26585WAT     H279998   2.579   0.100   1.692
26586WAT      O79999   4.021   5.333   0.409
26586WAT     H180000   4.097   5.381   0.454
26586WAT     H280001   3.938   5.389   0.415
26587WAT      O80002   8.014   0.628   8.332
26587WAT     H180003   7.951   0.661   8.402
26587WAT     H280004   7.983   0.659   8.242
26588WAT      O80005   7.214   2.268   6.621
26588WAT     H180006   7.159   2.209   6.680
26588WAT     H280007   7.311   2.247   6.634
26589WAT      O80008   6.751   8.340   1.488
26589WAT     H180009   6.697   8.260   1.466
26589WAT     H280010   6.848   8.322   1.468
26590WAT      O80011   8.636   7.427   0.395
26590WAT     H180012   8.564   7.362   0.422
26590WAT     H280013   8.615   7.517   0.432
26591WAT      O80014   0.424   8.479   8.918
26591WAT     H180015   0.417   8.380   8.908
26591WAT     H280016   0.520   8.505   8.928
26592WAT      O80017   1.312   9.212   8.397
26592WAT     H180018   1.240   9.143   8.395
26592WAT     H280019   1.392   9.178   8.346
26593WAT      O80020   8.119   0.773   2.155
26593WAT     H180021   8.089   0.812   2.241
26593WAT     H280022   8.212   0.804   2.135
26594WAT      O80023   5.627   4.613   1.249
26594WAT     H180024   5.669   4.623   1.159
26594WAT     H280025   5.538   4.659   1.249
26595WAT      O80026   1.313   5.328   7.763
26595WAT     H180027   1.331   5.313   7.860
26595WAT     H280028   1.268   5.247   7.725
26596WAT      O80029   5.265   8.808   5.417
26596WAT     H180030   5.277   8.724   5.364
26596WAT     H280031   5.310   8.884   5.370
26597WAT      O80032   8.238   9.023   0.841
26597WAT     H180033   8.247   8.977   0.930
26597WAT     H280034   8.176   8.971   0.783
26598WAT      O80035   2.106   4.421   4.999
26598WAT     H180036   2.190   4.451   5.045
26598WAT     H280037   2.030   4.424   5.064
26599WAT      O80038   0.888   2.491   9.711
26599WAT     H180039   0.879   2.427   9.787
26599WAT     H280040   0.848   2.580   9.736
26600WAT      O80041   4.695   2.749   6.574
26600WAT     H180042   4.715   2.815   6.502
26600WAT     H280043   4.693   2.657   6.534
26601WAT      O80044   6.871   4.342   0.749
26601WAT     H180045   6.896   4.249   0.774
26601WAT     H280046   6.953   4.394   0.727
26602WAT      O80047   0.642   9.401   1.933
26602WAT     H180048   0.607   9.383   2.025
26602WAT     H280049   0.691   9.320   1.900
26603WAT      O80050   4.186   3.366   2.213
26603WAT     H180051   4.249   3.443   2.212
26603WAT     H280052   4.193   3.316   2.126
26604WAT      O80053   1.335   1.782   5.436
26604WAT     H180054   1.424   1.820   5.461
26604WAT     H280055   1.303   1.721   5.508
26605WAT      O80056   1.848   9.133   9.881
26605WAT     H180057   1.939   9.175   9.879
26605WAT     H280058   1.837   9.081   9.966
26606WAT      O80059   4.718   0.653   0.768
26606WAT     H180060   4.810   0.692   0.771
26606WAT     H280061   4.701   0.601   0.852
26607WAT      O80062   7.930   9.748   4.176
26607WAT     H180063   7.927   9.723   4.273
26607WAT     H280064   7.857   9.814   4.156
26608WAT      O80065   5.095   7.689   7.308
26608WAT     H180066   5.131   7.637   7.231
26608WAT     H280067   5.036   7.763   7.273
26609WAT      O80068   6.308   8.923   8.900
26609WAT     H180069   6.300   8.930   8.801
26609WAT     H280070   6.227   8.879   8.938
26610WAT      O80071   0.518   7.146   8.777
26610WAT     H180072   0.446   7.199   8.821
26610WAT     H280073   0.538   7.065   8.832
26611WAT      O80074   5.672   7.250   1.286
26611WAT     H180075   5.659   7.325   1.350
26611WAT     H280076   5.757   7.201   1.308
26612WAT      O80077   1.798   8.507   6.745
26612WAT     H180078   1.868   8.481   6.678
26612WAT     H280079   1.738   8.429   6.761
26613WAT      O80080   6.641   3.610   9.060
26613WAT     H180081   6.739   3.595   9.051
26613WAT     H280082   6.623   3.675   9.134
26614WAT      O80083   0.599   0.233   3.161
26614WAT     H180084   0.534   0.171   3.206
26614WAT     H280085   0.583   0.233   3.063
26615WAT      O80086   5.888   2.695   8.517
26615WAT     H180087   5.894   2.794   8.515
26615WAT     H280088   5.964   2.655   8.465
26616WAT      O80089   9.349   5.412   5.973
26616WAT     H180090   9.366   5.508   5.951
26616WAT     H280091   9.250   5.395   5.974
26617WAT      O80092   8.179   5.786   7.263
26617WAT     H180093   8.209   5.878   7.238
26617WAT     H280094   8.080   5.784   7.273
26618WAT      O80095   7.919   3.704   7.241
26618WAT     H180096   8.010   3.669   7.263
26618WAT     H280097   7.916   3.733   7.146
26619WAT      O80098   1.668   2.810   1.666
26619WAT     H180099   1.659   2.847   1.758
26619WAT     H280100   1.734   2.865   1.615
26620WAT      O80101   0.151   6.031   7.717
26620WAT     H180102   0.217   5.976   7.769
26620WAT     H280103   0.118   5.978   7.638
26621WAT      O80104   1.049   8.625   8.786
26621WAT     H180105   1.058   8.724   8.794
26621WAT     H280106   1.019   8.601   8.694
26622WAT      O80107   9.834   2.430   9.366
26622WAT     H180108   9.814   2.360   9.298
26622WAT     H280109   9.845   2.519   9.321
26623WAT      O80110   6.848   6.884   2.412
26623WAT     H180111   6.936   6.863   2.454
26623WAT     H280112   6.779   6.818   2.442
26624WAT      O80113   5.658   8.033   9.583
26624WAT     H180114   5.707   7.953   9.547
26624WAT     H280115   5.581   8.054   9.523
26625WAT      O80116   7.260   0.182   1.325
26625WAT     H180117   7.355   0.210   1.343
26625WAT     H280118   7.248   0.086   1.349
26626WAT      O80119   4.720   2.449   1.831
26626WAT     H180120   4.655   2.524   1.814
26626WAT     H280121   4.735   2.399   1.745
26627WAT      O80122   0.255   0.460   5.618
26627WAT     H180123   0.215   0.535   5.671
26627WAT     H280124   0.302   0.397   5.679
26628WAT      O80125   7.403   6.149   0.895
26628WAT     H180126   7.417   6.247   0.905
26628WAT     H280127   7.308   6.131   0.872
26629WAT      O80128   6.084   5.732   4.277
26629WAT     H180129   6.029   5.725   4.360
26629WAT     H280130   6.025   5.754   4.200
26630WAT      O80131   2.678   0.666   4.928
26630WAT     H180132   2.671   0.571   4.960
26630WAT     H280133   2.755   0.711   4.973
26631WAT      O80134   0.891   8.558   4.599
26631WAT     H180135   0.870   8.560   4.502
26631WAT     H280136   0.908   8.651   4.632
26632WAT      O80137   6.710   4.446   7.735
26632WAT     H180138   6.626   4.450   7.789
26632WAT     H280139   6.783   4.496   7.783
26633WAT      O80140   3.191   6.155   1.016
26633WAT     H180141   3.161   6.132   0.923
26633WAT     H280142   3.138   6.234   1.049
26634WAT      O80143   3.547   3.967   7.787
26634WAT     H180144   3.615   3.894   7.778
26634WAT     H280145   3.525   4.005   7.698
26635WAT      O80146   3.192   6.084   9.299
26635WAT     H180147   3.266   6.086   9.366
26635WAT     H280148   3.229   6.101   9.208
26636WAT      O80149   7.036   5.390   8.291
26636WAT     H180150   6.990   5.313   8.246
26636WAT     H280151   7.000   5.399   8.384
26637WAT      O80152   4.728   8.553   3.740
26637WAT     H180153   4.778   8.631   3.776
26637WAT     H280154   4.773   8.520   3.657
26638WAT      O80155   2.104   3.834   8.681
26638WAT     H180156   2.174   3.776   8.641
26638WAT     H280157   2.147   3.901   8.741
26639WAT      O80158   1.909   1.896   2.654
26639WAT     H180159   1.821   1.860   2.684
26639WAT     H280160   1.949   1.835   2.586
26640WAT      O80161   0.929   2.309   5.448
26640WAT     H180162   0.979   2.277   5.367
26640WAT     H280163   0.868   2.237   5.481
26641WAT      O80164   9.511   0.723   5.645
26641WAT     H180165   9.456   0.804   5.670
26641WAT     H280166   9.455   0.661   5.589
26642WAT      O80167   1.376   5.509   2.627
26642WAT     H180168   1.304   5.578   2.622
26642WAT     H280169   1.374   5.464   2.717
26643WAT      O80170   8.404   7.864   6.749
26643WAT     H180171   8.461   7.822   6.679
26643WAT     H280172   8.462   7.917   6.812
26644WAT      O80173   1.861   8.324   7.145
26644WAT     H180174   1.773   8.277   7.149
26644WAT     H280175   1.870   8.370   7.057
26645WAT      O80176   0.502   1.100   5.562
26645WAT     H180177   0.464   1.150   5.485
26645WAT     H280178   0.433   1.091   5.634
26646WAT      O80179   3.935   1.526   2.296
26646WAT     H180180   3.963   1.561   2.386
26646WAT     H280181   4.009   1.473   2.256
26647WAT      O80182   4.689   0.869   6.339
26647WAT     H180183   4.693   0.854   6.241
26647WAT     H280184   4.737   0.795   6.386
26648WAT      O80185   5.504   2.374   2.794
26648WAT     H180186   5.524   2.458   2.844
26648WAT     H280187   5.443   2.394   2.717
26649WAT      O80188   6.834   7.366   5.351
26649WAT     H180189   6.914   7.409   5.309
26649WAT     H280190   6.864   7.302   5.421
26650WAT      O80191   7.014   5.158   0.746
26650WAT     H180192   6.937   5.193   0.694
26650WAT     H280193   7.082   5.230   0.760
26651WAT      O80194   2.443   4.045   9.614
26651WAT     H180195   2.394   3.971   9.660
26651WAT     H280196   2.521   4.073   9.670
26652WAT      O80197   0.977   7.135   3.738
26652WAT     H180198   1.023   7.046   3.749
26652WAT     H280199   1.006   7.197   3.811
26653WAT      O80200   2.928   1.873   3.647
26653WAT     H180201   2.933   1.947   3.581
26653WAT     H280202   2.968   1.903   3.734
26654WAT      O80203   2.306   3.824   9.786
26654WAT     H180204   2.285   3.733   9.751
26654WAT     H280205   2.386   3.819   9.845
26655WAT      O80206   2.289   3.239   3.441
26655WAT     H180207   2.384   3.228   3.413
26655WAT     H280208   2.256   3.154   3.483
26656WAT      O80209   4.708   0.128   9.761
26656WAT     H180210   4.780   0.150   9.694
26656WAT     H280211   4.705   0.200   9.831
26657WAT      O80212   0.874   4.366   1.885
26657WAT     H180213   0.892   4.385   1.982
26657WAT     H280214   0.958   4.333   1.842
26658WAT      O80215   3.738   0.468   0.743
26658WAT     H180216   3.713   0.448   0.648
26658WAT     H280217   3.657   0.462   0.801
26659WAT      O80218   3.603   6.408   2.911
26659WAT     H180219   3.587   6.502   2.941
26659WAT     H280220   3.678   6.368   2.964
26660WAT      O80221   6.069   0.633   2.903
26660WAT     H180222   6.122   0.715   2.881
26660WAT     H280223   6.066   0.572   2.823
26661WAT      O80224   9.610   3.852   9.710
26661WAT     H180225   9.645   3.787   9.777
26661WAT     H280226   9.665   3.846   9.626
26662WAT      O80227   7.818   6.281   9.540
26662WAT     H180228   7.741   6.271   9.603
26662WAT     H280229   7.899   6.238   9.580
26663WAT      O80230   4.679   3.390   5.970
26663WAT     H180231   4.664   3.467   6.031
26663WAT     H280232   4.621   3.399   5.889
26664WAT      O80233   0.839   8.036   7.770
26664WAT     H180234   0.923   8.002   7.810
26664WAT     H280235   0.762   7.979   7.800
26665WAT      O80236   8.366   2.028   8.867
26665WAT     H180237   8.430   2.004   8.941
26665WAT     H280238   8.336   2.123   8.879
26666WAT      O80239   4.107   6.592   4.442
26666WAT     H180240   4.110   6.553   4.534
26666WAT     H280241   4.055   6.678   4.444
26667WAT      O80242   1.270   9.576   6.742
26667WAT     H180243   1.190   9.518   6.726
26667WAT     H280244   1.240   9.665   6.776
26668WAT      O80245   7.269   9.412   2.689
26668WAT     H180246   7.347   9.355   2.662
26668WAT     H280247   7.235   9.381   2.778
26669WAT      O80248   3.162   6.512   0.333
26669WAT     H180249   3.122   6.462   0.410
26669WAT     H280250   3.125   6.605   0.332
26670WAT      O80251   1.376   6.051   5.887
26670WAT     H180252   1.417   6.060   5.796
26670WAT     H280253   1.418   6.117   5.949
26671WAT      O80254   9.369   4.726   2.491
26671WAT     H180255   9.383   4.792   2.565
26671WAT     H280256   9.389   4.634   2.524
26672WAT      O80257   1.533   0.851   4.625
26672WAT     H180258   1.508   0.763   4.585
26672WAT     H280259   1.583   0.836   4.710
26673WAT      O80260   0.461   4.247   6.242
26673WAT     H180261   0.421   4.323   6.190
26673WAT     H280262   0.462   4.271   6.339
26674WAT      O80263   2.399   3.083   9.083
26674WAT     H180264   2.446   3.103   9.170
26674WAT     H280265   2.387   2.984   9.075
26675WAT      O80266   0.620   9.475   4.476
26675WAT     H180267   0.712   9.461   4.513
26675WAT     H280268   0.590   9.569   4.496
26676WAT      O80269   4.437   3.531   0.523
26676WAT     H180270   4.495   3.603   0.483
26676WAT     H280271   4.348   3.531   0.477
26677WAT      O80272   9.761   5.432   3.659
26677WAT     H180273   9.760   5.472   3.567
26677WAT     H280274   9.855   5.408   3.683
26678WAT      O80275   5.994   5.575   0.083
26678WAT     H180276   5.994   5.636   0.162
26678WAT     H280277   6.088   5.549   0.062
26679WAT      O80278   0.931   8.334   1.076
26679WAT     H180279   0.973   8.349   0.986
26679WAT     H280280   0.841   8.378   1.078
26680WAT      O80281   8.172   7.726   0.517
26680WAT     H180282   8.200   7.666   0.442
26680WAT     H280283   8.253   7.754   0.569
26681WAT      O80284   3.388   6.033   6.830
26681WAT     H180285   3.288   6.037   6.825
26681WAT     H280286   3.422   6.122   6.862
26682WAT      O80287   6.385   9.326   5.766
26682WAT     H180288   6.382   9.274   5.681
26682WAT     H280289   6.395   9.423   5.746
26683WAT      O80290   8.789   0.296   3.331
26683WAT     H180291   8.882   0.313   3.364
26683WAT     H280292   8.788   0.211   3.277
26684WAT      O80293   6.547   1.401   8.753
26684WAT     H180294   6.490   1.462   8.697
26684WAT     H280295   6.499   1.315   8.768
26685WAT      O80296   1.763   0.889   9.386
26685WAT     H180297   1.861   0.875   9.370
26685WAT     H280298   1.742   0.871   9.482
26686WAT      O80299   6.860   3.522   1.669
26686WAT     H180300   6.880   3.620   1.677
26686WAT     H280301   6.781   3.509   1.608
26687WAT      O80302   1.885   8.966   3.893
26687WAT     H180303   1.897   8.943   3.990
26687WAT     H280304   1.791   8.945   3.866
26688WAT      O80305   4.165   1.373   2.252
26688WAT     H180306   4.177   1.339   2.346
26688WAT     H280307   4.236   1.441   2.233
26689WAT      O80308   2.256   0.350   1.568
26689WAT     H180309   2.350   0.351   1.533
26689WAT     H280310   2.197   0.402   1.506
26690WAT      O80311   6.952   4.904   0.530
26690WAT     H180312   6.862   4.948   0.534
26690WAT     H280313   7.017   4.964   0.483
26691WAT      O80314   5.186   7.812   4.919
26691WAT     H180315   5.201   7.716   4.896
26691WAT     H280316   5.184   7.823   5.018
26692WAT      O80317   6.762   7.277   0.837
26692WAT     H180318   6.734   7.190   0.877
26692WAT     H280319   6.847   7.308   0.881
26693WAT      O80320   4.519   0.222   3.277
26693WAT     H180321   4.599   0.219   3.218
26693WAT     H280322   4.527   0.299   3.341
26694WAT      O80323   8.437   4.536   5.174
26694WAT     H180324   8.497   4.517   5.252
26694WAT     H280325   8.475   4.611   5.121
26695WAT      O80326   0.637   8.493   0.123
26695WAT     H180327   0.549   8.458   0.093
26695WAT     H280328   0.637   8.593   0.115
26696WAT      O80329   8.106   8.039   1.717
26696WAT     H180330   8.059   8.006   1.799
26696WAT     H280331   8.185   8.093   1.744
26697WAT      O80332   5.180   4.838   8.220
26697WAT     H180333   5.105   4.897   8.251
26697WAT     H280334   5.250   4.894   8.176
26698WAT      O80335   0.071   7.575   9.818
26698WAT     H180336   0.050   7.524   9.901
26698WAT     H280337   0.048   7.519   9.738
26699WAT      O80338   4.452   9.840   4.479
26699WAT     H180339   4.506   9.756   4.482
26699WAT     H280340   4.477   9.893   4.398
26700WAT      O80341   9.555   4.339   8.347
26700WAT     H180342   9.480   4.403   8.366
26700WAT     H280343   9.525   4.273   8.278
26701WAT      O80344   0.886   2.442   0.475
26701WAT     H180345   0.793   2.418   0.449
26701WAT     H280346   0.888   2.464   0.573
26702WAT      O80347   9.507   7.773   7.344
26702WAT     H180348   9.408   7.775   7.360
26702WAT     H280349   9.555   7.811   7.424
26703WAT      O80350   6.227   9.777   8.081
26703WAT     H180351   6.316   9.806   8.118
26703WAT     H280352   6.229   9.782   7.981
26704WAT      O80353   6.990   7.675   4.593
26704WAT     H180354   6.892   7.654   4.586
26704WAT     H280355   7.020   7.719   4.509
26705WAT      O80356   2.672   1.983   4.087
26705WAT     H180357   2.661   2.074   4.047
26705WAT     H280358   2.714   1.922   4.019
26706WAT      O80359   2.816   3.240   9.845
26706WAT     H180360   2.817   3.328   9.894
26706WAT     H280361   2.885   3.180   9.883
26707WAT      O80362   7.495   5.070   8.764
26707WAT     H180363   7.486   5.168   8.775
26707WAT     H280364   7.544   5.032   8.843
26708WAT      O80365   5.876   3.809   7.939
26708WAT     H180366   5.866   3.765   8.028
26708WAT     H280367   5.786   3.838   7.907
26709WAT      O80368   9.289   1.909   3.978
26709WAT     H180369   9.258   1.895   3.884
26709WAT     H280370   9.218   1.955   4.031
26710WAT      O80371   3.274   6.009   0.386
26710WAT     H180372   3.271   5.936   0.318
26710WAT     H280373   3.187   6.057   0.388
26711WAT      O80374   8.367   3.172   1.363
26711WAT     H180375   8.412   3.166   1.274
26711WAT     H280376   8.420   3.230   1.424
26712WAT      O80377   0.139   4.825   2.374
26712WAT     H180378   0.061   4.830   2.437
26712WAT     H280379   0.198   4.749   2.399
26713WAT      O80380   4.371   0.711   3.517
26713WAT     H180381   4.353   0.623   3.471
26713WAT     H280382   4.374   0.784   3.449
26714WAT      O80383   6.410   0.067   9.730
26714WAT     H180384   6.406  -0.033   9.730
26714WAT     H280385   6.364   0.102   9.649
26715WAT      O80386   2.033   8.416   5.026
26715WAT     H180387   2.065   8.507   4.998
26715WAT     H280388   2.094   8.347   4.988
26716WAT      O80389   1.482   2.046   8.457
26716WAT     H180390   1.534   1.975   8.504
26716WAT     H280391   1.384   2.031   8.473
26717WAT      O80392   2.313   3.782   1.733
26717WAT     H180393   2.242   3.830   1.681
26717WAT     H280394   2.403   3.820   1.711
26718WAT      O80395   0.211   0.982   7.618
26718WAT     H180396   0.291   1.025   7.660
26718WAT     H280397   0.134   0.983   7.683
26719WAT      O80398   0.070   1.389   2.067
26719WAT     H180399  -0.024   1.386   2.034
26719WAT     H280400   0.098   1.484   2.079
26720WAT      O80401   5.117   1.830   9.756
26720WAT     H180402   5.051   1.816   9.682
26720WAT     H280403   5.114   1.752   9.818
26721WAT      O80404   7.760   1.224   5.876
26721WAT     H180405   7.834   1.255   5.936
26721WAT     H280406   7.788   1.232   5.781
26722WAT      O80407   9.394   5.408   1.222
26722WAT     H180408   9.321   5.373   1.163
26722WAT     H280409   9.479   5.360   1.202
26723WAT      O80410   3.061   1.466   4.128
26723WAT     H180411   3.154   1.487   4.155
26723WAT     H280412   3.062   1.394   4.059
26724WAT      O80413   8.016   0.224   8.489
26724WAT     H180414   8.032   0.246   8.393
26724WAT     H280415   8.104   0.213   8.536
26725WAT      O80416   8.800   8.035   9.081
26725WAT     H180417   8.713   7.997   9.112
26725WAT     H280418   8.873   8.006   9.144
26726WAT      O80419   7.398   0.058   6.618
26726WAT     H180420   7.353   0.140   6.652
26726WAT     H280421   7.422   0.070   6.522
26727WAT      O80422   5.870   9.389   3.560
26727WAT     H180423   5.904   9.481   3.580
26727WAT     H280424   5.913   9.323   3.622
26728WAT      O80425   7.502   4.023   2.052
26728WAT     H180426   7.514   3.941   1.995
26728WAT     H280427   7.411   4.022   2.092
26729WAT      O80428   6.790   2.504   6.592
26729WAT     H180429   6.741   2.421   6.565
26729WAT     H280430   6.882   2.480   6.624
26730WAT      O80431   4.753   5.008   6.506
26730WAT     H180432   4.767   5.042   6.598
26730WAT     H280433   4.695   4.926   6.509
26731WAT      O80434   9.765   4.272   9.842
26731WAT     H180435   9.766   4.287   9.743
26731WAT     H280436   9.692   4.207   9.864
26732WAT      O80437   6.952   5.542   1.585
26732WAT     H180438   7.027   5.560   1.522
26732WAT     H280439   6.960   5.449   1.621
26733WAT      O80440   8.708   2.893   4.330
26733WAT     H180441   8.701   2.885   4.430
26733WAT     H280442   8.640   2.958   4.297
26734WAT      O80443   7.011   7.590   5.323
26734WAT     H180444   7.052   7.544   5.401
26734WAT     H280445   7.078   7.596   5.249
26735WAT      O80446   0.620   5.517   7.050
26735WAT     H180447   0.614   5.588   7.119
26735WAT     H280448   0.716   5.492   7.037
26736WAT      O80449   6.317   6.845   5.414
26736WAT     H180450   6.375   6.916   5.374
26736WAT     H280451   6.221   6.863   5.390
26737WAT      O80452   2.696   0.862   8.752
26737WAT     H180453   2.714   0.957   8.727
26737WAT     H280454   2.598   0.844   8.745
26738WAT      O80455   4.451   4.429   5.857
26738WAT     H180456   4.398   4.494   5.912
26738WAT     H280457   4.514   4.379   5.916
26739WAT      O80458   8.897   0.968   2.140
26739WAT     H180459   8.990   0.992   2.168
26739WAT     H280460   8.885   0.869   2.144
26740WAT      O80461   7.448   6.441   5.637
26740WAT     H180462   7.356   6.405   5.621
26740WAT     H280463   7.513   6.394   5.577
26741WAT      O80464   2.182   5.324   0.342
26741WAT     H180465   2.168   5.225   0.350
26741WAT     H280466   2.104   5.366   0.297
26742WAT      O80467   6.512   4.751   1.600
26742WAT     H180468   6.471   4.841   1.587
26742WAT     H280469   6.476   4.710   1.684
26743WAT      O80470   6.459   5.926   3.466
26743WAT     H180471   6.439   6.021   3.443
26743WAT     H280472   6.557   5.915   3.482
26744WAT      O80473   2.188   8.574   0.979
26744WAT     H180474   2.164   8.496   0.919
26744WAT     H280475   2.105   8.610   1.021
26745WAT      O80476   2.462   8.688   3.811
26745WAT     H180477   2.444   8.589   3.816
26745WAT     H280478   2.378   8.735   3.784
26746WAT      O80479   4.529   6.547   4.375
26746WAT     H180480   4.477   6.587   4.300
26746WAT     H280481   4.627   6.551   4.354
26747WAT      O80482   6.207   5.896   3.751
26747WAT     H180483   6.114   5.886   3.716
26747WAT     H280484   6.267   5.829   3.709
26748WAT      O80485   5.991   8.423   0.156
26748WAT     H180486   5.916   8.399   0.094
26748WAT     H280487   6.051   8.344   0.168
26749WAT      O80488   7.720   7.254   0.636
26749WAT     H180489   7.713   7.231   0.539
26749WAT     H280490   7.675   7.182   0.690
26750WAT      O80491   8.490   0.412   8.160
26750WAT     H180492   8.501   0.505   8.126
26750WAT     H280493   8.546   0.349   8.105
26751WAT      O80494   0.394   6.780   5.149
26751WAT     H180495   0.478   6.729   5.133
26751WAT     H280496   0.363   6.765   5.243
26752WAT      O80497   5.106   4.313   7.976
26752WAT     H180498   5.203   4.333   7.967
26752WAT     H280499   5.053   4.397   7.967
26753WAT      O80500   0.957   0.150   4.410
26753WAT     H180501   1.048   0.153   4.452
26753WAT     H280502   0.906   0.072   4.445
26754WAT      O80503   6.308   7.474   0.391
26754WAT     H180504   6.235   7.533   0.358
26754WAT     H280505   6.370   7.526   0.448
26755WAT      O80506   5.714   1.986   4.694
26755WAT     H180507   5.755   1.941   4.774
26755WAT     H280508   5.718   1.923   4.615
26756WAT      O80509   0.028   9.819   7.869
26756WAT     H180510   0.008   9.898   7.928
26756WAT     H280511   0.104   9.841   7.808
26757WAT      O80512   1.857   5.408   1.698
26757WAT     H180513   1.857   5.508   1.706
26757WAT     H280514   1.952   5.375   1.694
26758WAT      O80515   5.610   1.327   4.455
26758WAT     H180516   5.557   1.319   4.540
26758WAT     H280517   5.679   1.399   4.466
26759WAT      O80518   1.591   1.984   1.585
26759WAT     H180519   1.590   1.940   1.675
26759WAT     H280520   1.627   1.920   1.517
26760WAT      O80521   1.075   7.691   0.838
26760WAT     H180522   1.042   7.612   0.889
26760WAT     H280523   1.010   7.714   0.766
26761WAT      O80524   0.680   2.115   5.224
26761WAT     H180525   0.655   2.207   5.192
26761WAT     H280526   0.660   2.108   5.322
26762WAT      O80527   8.290   6.238   5.543
26762WAT     H180528   8.279   6.237   5.444
26762WAT     H280529   8.222   6.299   5.583
26763WAT      O80530   3.244   1.557   3.565
26763WAT     H180531   3.233   1.593   3.657
26763WAT     H280532   3.342   1.547   3.544
26764WAT      O80533   7.878   7.692   1.988
26764WAT     H180534   7.780   7.703   2.002
26764WAT     H280535   7.898   7.695   1.891
26765WAT      O80536   1.304   3.542   4.713
26765WAT     H180537   1.341   3.469   4.656
26765WAT     H280538   1.380   3.591   4.757
26766WAT      O80539   2.010   3.437   5.249
26766WAT     H180540   1.915   3.467   5.259
26766WAT     H280541   2.063   3.467   5.328
26767WAT      O80542   2.168   2.180   7.327
26767WAT     H180543   2.152   2.178   7.426
26767WAT     H280544   2.251   2.129   7.305
26768WAT      O80545   4.674   4.679   5.447
26768WAT     H180546   4.626   4.767   5.454
26768WAT     H280547   4.667   4.630   5.534
26769WAT      O80548   6.481   4.238   2.500
26769WAT     H180549   6.486   4.312   2.568
26769WAT     H280550   6.567   4.188   2.500
26770WAT      O80551   1.627   9.729   8.702
26770WAT     H180552   1.668   9.674   8.628
26770WAT     H280553   1.536   9.759   8.675
26771WAT      O80554   4.845   0.825   5.967
26771WAT     H180555   4.870   0.887   5.892
26771WAT     H280556   4.763   0.859   6.012
26772WAT      O80557   2.369   3.616   5.634
26772WAT     H180558   2.421   3.668   5.567
26772WAT     H280559   2.428   3.548   5.677
26773WAT      O80560   4.711   9.398   1.536
26773WAT     H180561   4.636   9.341   1.503
26773WAT     H280562   4.741   9.460   1.464
26774WAT      O80563   4.510   1.682   5.869
26774WAT     H180564   4.522   1.583   5.857
26774WAT     H280565   4.458   1.700   5.952
26775WAT      O80566   2.387   2.109   8.816
26775WAT     H180567   2.464   2.134   8.757
26775WAT     H280568   2.361   2.186   8.873
26776WAT      O80569   4.578   1.074   8.794
26776WAT     H180570   4.531   1.162   8.809
26776WAT     H280571   4.580   1.023   8.880
26777WAT      O80572   1.012   6.520   3.708
26777WAT     H180573   1.112   6.524   3.706
26777WAT     H280574   0.980   6.450   3.644
26778WAT      O80575   7.199   4.221   7.717
26778WAT     H180576   7.158   4.130   7.709
26778WAT     H280577   7.192   4.269   7.629
26779WAT      O80578   9.310   7.089   1.691
26779WAT     H180579   9.350   7.064   1.603
26779WAT     H280580   9.247   7.017   1.720
26780WAT      O80581   6.151   0.951   7.560
26780WAT     H180582   6.221   0.894   7.602
26780WAT     H280583   6.187   0.991   7.476
26781WAT      O80584   3.285   6.344   7.156
26781WAT     H180585   3.198   6.342   7.107
26781WAT     H280586   3.358   6.312   7.096
26782WAT      O80587   3.221   0.936   6.115
26782WAT     H180588   3.193   0.897   6.027
26782WAT     H280589   3.163   1.015   6.136
26783WAT      O80590   8.399   1.228   7.360
26783WAT     H180591   8.428   1.274   7.444
26783WAT     H280592   8.394   1.130   7.375
26784WAT      O80593   2.752   9.069   5.448
26784WAT     H180594   2.759   9.137   5.375
26784WAT     H280595   2.832   9.076   5.508
26785WAT      O80596   2.998   2.194   4.388
26785WAT     H180597   3.042   2.129   4.326
26785WAT     H280598   2.903   2.167   4.402
26786WAT      O80599   2.975   1.943   0.735
26786WAT     H180600   3.042   1.920   0.665
26786WAT     H280601   2.953   2.041   0.729
26787WAT      O80602   2.666   2.635   4.174
26787WAT     H180603   2.580   2.635   4.224
26787WAT     H280604   2.650   2.665   4.080
26788WAT      O80605   9.518   1.837   2.519
26788WAT     H180606   9.556   1.926   2.545
26788WAT     H280607   9.514   1.830   2.419
26789WAT      O80608   6.803   1.935   9.855
26789WAT     H180609   6.745   1.991   9.913
26789WAT     H280610   6.823   1.984   9.770
26790WAT      O80611   3.325   8.075   8.206
26790WAT     H180612   3.244   8.070   8.264
26790WAT     H280613   3.377   7.990   8.216
26791WAT      O80614   2.358   7.137   8.161
26791WAT     H180615   2.386   7.106   8.070
26791WAT     H280616   2.271   7.187   8.153
26792WAT      O80617   0.351   2.164   7.869
26792WAT     H180618   0.375   2.089   7.931
26792WAT     H280619   0.389   2.249   7.906
26793WAT      O80620   2.949   4.485   2.885
26793WAT     H180621   2.992   4.444   2.966
26793WAT     H280622   3.012   4.480   2.808
26794WAT      O80623   7.230   5.337   0.793
26794WAT     H180624   7.203   5.433   0.785
26794WAT     H280625   7.280   5.309   0.711
26795WAT      O80626   2.938   3.054   4.383
26795WAT     H180627   3.020   3.101   4.350
26795WAT     H280628   2.902   2.997   4.310
26796WAT      O80629   4.313   4.995   3.916
26796WAT     H180630   4.363   5.021   3.999
26796WAT     H280631   4.294   5.076   3.861
26797WAT      O80632   2.455   5.362   4.911
26797WAT     H180633   2.515   5.314   4.975
26797WAT     H280634   2.367   5.381   4.956
26798WAT      O80635   0.073   2.574   1.495
26798WAT     H180636   0.107   2.667   1.513
26798WAT     H280637   0.056   2.528   1.582
26799WAT      O80638   8.018   8.364   8.026
26799WAT     H180639   8.064   8.435   8.078
26799WAT     H280640   8.007   8.282   8.083
26800WAT      O80641   1.118   9.145   2.124
26800WAT     H180642   1.196   9.082   2.126
26800WAT     H280643   1.033   9.092   2.131
26801WAT      O80644   2.060   7.367   3.906
26801WAT     H180645   2.119   7.334   3.832
26801WAT     H280646   2.115   7.416   3.973
26802WAT      O80647   2.306   6.153   8.907
26802WAT     H180648   2.323   6.192   8.816
26802WAT     H280649   2.208   6.161   8.928
26803WAT      O80650   9.865   0.335   7.666
26803WAT     H180651   9.950   0.310   7.713
26803WAT     H280652   9.855   0.435   7.667
26804WAT      O80653   0.457   6.656   3.154
26804WAT     H180654   0.389   6.613   3.214
26804WAT     H280655   0.446   6.621   3.061
26805WAT      O80656   8.050   4.103   7.318
26805WAT     H180657   8.088   4.040   7.251
26805WAT     H280658   8.062   4.197   7.286
26806WAT      O80659   5.311   2.643   1.341
26806WAT     H180660   5.217   2.677   1.339
26806WAT     H280661   5.373   2.717   1.318
26807WAT      O80662   6.758   3.930   4.055
26807WAT     H180663   6.689   3.862   4.030
26807WAT     H280664   6.836   3.923   3.993
26808WAT      O80665   5.519   0.942   0.436
26808WAT     H180666   5.565   0.920   0.522
26808WAT     H280667   5.587   0.977   0.370
26809WAT      O80668   6.539   7.919   7.003
26809WAT     H180669   6.519   7.932   6.906
26809WAT     H280670   6.509   7.828   7.031
26810WAT      O80671   3.352   3.644   9.085
26810WAT     H180672   3.392   3.715   9.026
26810WAT     H280673   3.346   3.558   9.033
26811WAT      O80674   1.252   8.801   1.276
26811WAT     H180675   1.200   8.872   1.323
26811WAT     H280676   1.196   8.719   1.265
26812WAT      O80677   2.569   5.698   0.062
26812WAT     H180678   2.654   5.695   0.009
26812WAT     H280679   2.588   5.733   0.153
26813WAT      O80680   4.161   8.260   3.767
26813WAT     H180681   4.145   8.187   3.833
26813WAT     H280682   4.183   8.220   3.678
26814WAT      O80683   3.780   5.282   3.863
26814WAT     H180684   3.727   5.197   3.854
26814WAT     H280685   3.771   5.316   3.957
26815WAT      O80686   9.737   8.865   9.603
26815WAT     H180687   9.703   8.797   9.668
26815WAT     H280688   9.716   8.957   9.638
26816WAT      O80689   8.924   0.506   5.536
26816WAT     H180690   8.988   0.572   5.574
26816WAT     H280691   8.850   0.489   5.601
26817WAT      O80692   4.260   1.237   0.793
26817WAT     H180693   4.181   1.186   0.757
26817WAT     H280694   4.259   1.330   0.757
26818WAT      O80695   7.908   3.570   1.934
26818WAT     H180696   7.872   3.662   1.948
26818WAT     H280697   7.899   3.545   1.838
26819WAT      O80698   6.385   6.774   0.562
26819WAT     H180699   6.366   6.707   0.490
26819WAT     H280700   6.304   6.785   0.619
26820WAT      O80701   8.785   9.735   0.393
26820WAT     H180702   8.693   9.762   0.420
26820WAT     H280703   8.852   9.791   0.443
26821WAT      O80704   2.529   2.738   3.551
26821WAT     H180705   2.475   2.667   3.596
26821WAT     H280706   2.535   2.818   3.612
26822WAT      O80707   8.727   4.651   8.006
26822WAT     H180708   8.660   4.589   8.047
26822WAT     H280709   8.800   4.670   8.071
26823WAT      O80710   2.108   5.862   8.686
26823WAT     H180711   2.101   5.885   8.588
26823WAT     H280712   2.201   5.881   8.718
26824WAT      O80713   4.175   4.460   7.066
26824WAT     H180714   4.117   4.383   7.092
26824WAT     H280715   4.121   4.545   7.069
26825WAT      O80716   1.346   6.309   4.576
26825WAT     H180717   1.441   6.278   4.576
26825WAT     H280718   1.316   6.322   4.671
26826WAT      O80719   7.647   2.464   7.015
26826WAT     H180720   7.655   2.422   6.924
26826WAT     H280721   7.706   2.545   7.020
26827WAT      O80722   5.921   5.350   5.695
26827WAT     H180723   5.935   5.419   5.624
26827WAT     H280724   5.872   5.272   5.656
26828WAT      O80725   9.402   7.051   0.139
26828WAT     H180726   9.343   7.130   0.151
26828WAT     H280727   9.357   6.969   0.175
26829WAT      O80728   7.599   0.281   8.057
26829WAT     H180729   7.631   0.310   7.967
26829WAT     H280730   7.643   0.195   8.082
26830WAT      O80731   7.498   2.536   5.741
26830WAT     H180732   7.547   2.622   5.756
26830WAT     H280733   7.442   2.544   5.659
26831WAT      O80734   6.417   4.284   7.675
26831WAT     H180735   6.328   4.249   7.702
26831WAT     H280736   6.418   4.384   7.684
26832WAT      O80737   6.305   5.140   6.812
26832WAT     H180738   6.220   5.133   6.760
26832WAT     H280739   6.334   5.049   6.842
26833WAT      O80740   4.047   1.053   3.717
26833WAT     H180741   4.006   1.142   3.698
26833WAT     H280742   4.020   1.022   3.808
26834WAT      O80743   3.868   5.425   7.161
26834WAT     H180744   3.905   5.367   7.089
26834WAT     H280745   3.880   5.380   7.249
26835WAT      O80746   5.510   8.384   4.403
26835WAT     H180747   5.448   8.462   4.403
26835WAT     H280748   5.548   8.372   4.495
26836WAT      O80749   2.122   0.913   5.430
26836WAT     H180750   2.086   0.931   5.522
26836WAT     H280751   2.098   0.820   5.403
26837WAT      O80752   0.206   1.730   3.762
26837WAT     H180753   0.252   1.662   3.818
26837WAT     H280754   0.171   1.804   3.820
26838WAT      O80755   4.985   3.172   4.149
26838WAT     H180756   4.999   3.101   4.080
26838WAT     H280757   4.981   3.129   4.240
26839WAT      O80758   1.154   8.614   5.204
26839WAT     H180759   1.170   8.709   5.229
26839WAT     H280760   1.080   8.577   5.260
26840WAT      O80761   1.415   1.741   1.461
26840WAT     H180762   1.455   1.673   1.400
26840WAT     H280763   1.316   1.729   1.465
26841WAT      O80764   2.550   6.305   8.040
26841WAT     H180765   2.585   6.238   8.105
26841WAT     H280766   2.549   6.265   7.948
26842WAT      O80767   6.369   0.802   2.441
26842WAT     H180768   6.449   0.856   2.416
26842WAT     H280769   6.347   0.739   2.367
26843WAT      O80770   9.473   6.645   3.670
26843WAT     H180771   9.476   6.662   3.769
26843WAT     H280772   9.507   6.553   3.651
26844WAT      O80773   8.214   3.275   9.083
26844WAT     H180774   8.135   3.334   9.066
26844WAT     H280775   8.287   3.299   9.019
26845WAT      O80776   4.064   5.170   3.120
26845WAT     H180777   4.162   5.181   3.139
26845WAT     H280778   4.011   5.205   3.197
26846WAT      O80779   3.643   5.680   3.771
26846WAT     H180780   3.736   5.689   3.808
26846WAT     H280781   3.647   5.683   3.671
26847WAT      O80782   3.797   7.422   0.724
26847WAT     H180783   3.782   7.445   0.628
26847WAT     H280784   3.893   7.433   0.747
26848WAT      O80785   1.715   7.665   9.269
26848WAT     H180786   1.804   7.705   9.290
26848WAT     H280787   1.651   7.685   9.343
26849WAT      O80788   5.776   2.676   3.368
26849WAT     H180789   5.834   2.730   3.428
26849WAT     H280790   5.833   2.617   3.310
26850WAT      O80791   0.476   9.429   8.049
26850WAT     H180792   0.508   9.401   7.958
26850WAT     H280793   0.461   9.349   8.105
26851WAT      O80794   4.522   4.807   6.879
26851WAT     H180795   4.447   4.784   6.817
26851WAT     H280796   4.494   4.790   6.974
26852WAT      O80797   6.940   0.884   4.298
26852WAT     H180798   6.899   0.874   4.208
26852WAT     H280799   6.965   0.979   4.314
26853WAT      O80800   5.816   3.380   1.150
26853WAT     H180801   5.767   3.372   1.063
26853WAT     H280802   5.891   3.314   1.151
26854WAT      O80803   8.298   1.221   0.492
26854WAT     H180804   8.263   1.129   0.480
26854WAT     H280805   8.246   1.285   0.436
26855WAT      O80806   6.821   7.276   9.653
26855WAT     H180807   6.826   7.204   9.723
26855WAT     H280808   6.881   7.252   9.576
26856WAT      O80809   0.399   2.743   4.010
26856WAT     H180810   0.355   2.753   3.921
26856WAT     H280811   0.493   2.776   4.005
26857WAT      O80812   7.028   4.677   4.021
26857WAT     H180813   7.061   4.685   4.115
26857WAT     H280814   7.056   4.758   3.969
26858WAT      O80815   9.714   9.219   1.277
26858WAT     H180816   9.803   9.253   1.305
26858WAT     H280817   9.724   9.154   1.202
26859WAT      O80818   4.202   7.517   7.784
26859WAT     H180819   4.133   7.459   7.826
26859WAT     H280820   4.244   7.576   7.853
26860WAT      O80821   8.938   5.740   6.614
26860WAT     H180822   8.988   5.810   6.665
26860WAT     H280823   8.905   5.779   6.528
26861WAT      O80824   3.025   8.389   4.840
26861WAT     H180825   3.125   8.396   4.845
26861WAT     H280826   2.983   8.454   4.903
26862WAT      O80827   9.500   9.015   1.371
26862WAT     H180828   9.465   9.088   1.429
26862WAT     H280829   9.451   8.930   1.390
26863WAT      O80830   7.967   0.931   4.020
26863WAT     H180831   7.912   1.012   4.037
26863WAT     H280832   8.036   0.921   4.092
26864WAT      O80833   0.927   5.708   0.684
26864WAT     H180834   1.001   5.670   0.740
26864WAT     H280835   0.839   5.678   0.720
26865WAT      O80836   0.791   7.643   3.607
26865WAT     H180837   0.852   7.566   3.589
26865WAT     H280838   0.734   7.623   3.687
26866WAT      O80839   1.027   3.707   4.031
26866WAT     H180840   0.938   3.748   4.050
26866WAT     H280841   1.099   3.774   4.051
26867WAT      O80842   2.716   6.906   4.077
26867WAT     H180843   2.644   6.973   4.057
26867WAT     H280844   2.680   6.835   4.137
26868WAT      O80845   6.036   0.104   3.720
26868WAT     H180846   6.084   0.152   3.647
26868WAT     H280847   6.097   0.035   3.761
26869WAT      O80848   0.391   9.153   0.281
26869WAT     H180849   0.417   9.237   0.329
26869WAT     H280850   0.399   9.167   0.182
26870WAT      O80851   9.414   9.438   7.745
26870WAT     H180852   9.457   9.527   7.758
26870WAT     H280853   9.421   9.385   7.829
26871WAT      O80854   1.156   3.487   8.818
26871WAT     H180855   1.237   3.445   8.776
26871WAT     H280856   1.162   3.478   8.918
26872WAT      O80857   3.267   6.955   2.586
26872WAT     H180858   3.283   6.975   2.683
26872WAT     H280859   3.251   7.041   2.537
26873WAT      O80860   3.541   2.995   2.956
26873WAT     H180861   3.541   3.032   2.863
26873WAT     H280862   3.552   3.069   3.022
26874WAT      O80863   5.581   2.895   0.822
26874WAT     H180864   5.626   2.844   0.749
26874WAT     H280865   5.493   2.853   0.843
26875WAT      O80866   2.262   2.790   6.817
26875WAT     H180867   2.348   2.748   6.844
26875WAT     H280868   2.268   2.819   6.721
26876WAT      O80869   8.469   5.284   4.322
26876WAT     H180870   8.382   5.323   4.291
26876WAT     H280871   8.472   5.186   4.301
26877WAT      O80872   9.327   7.915   2.162
26877WAT     H180873   9.329   8.014   2.178
26877WAT     H280874   9.235   7.888   2.132
26878WAT      O80875   7.531   3.477   6.989
26878WAT     H180876   7.500   3.564   6.951
26878WAT     H280877   7.598   3.494   7.061
26879WAT      O80878   3.796   8.064   3.103
26879WAT     H180879   3.873   8.005   3.128
26879WAT     H280880   3.761   8.110   3.184
26880WAT      O80881   5.304   3.110   2.741
26880WAT     H180882   5.241   3.035   2.761
26880WAT     H280883   5.383   3.104   2.801
26881WAT      O80884   3.579   5.954   3.825
26881WAT     H180885   3.661   6.001   3.789
26881WAT     H280886   3.602   5.860   3.847
26882WAT      O80887   7.725   1.613   3.422
26882WAT     H180888   7.775   1.535   3.460
26882WAT     H280889   7.651   1.639   3.485
26883WAT      O80890   5.681   8.816   9.256
26883WAT     H180891   5.596   8.763   9.255
26883WAT     H280892   5.708   8.836   9.162
26884WAT      O80893   5.532   7.277   7.640
26884WAT     H180894   5.508   7.186   7.606
26884WAT     H280895   5.602   7.318   7.582
26885WAT      O80896   4.415   8.914   5.432
26885WAT     H180897   4.483   8.881   5.497
26885WAT     H280898   4.338   8.850   5.428
26886WAT      O80899   3.472   2.103   8.804
26886WAT     H180900   3.446   2.034   8.737
26886WAT     H280901   3.561   2.079   8.843
26887WAT      O80902   7.785   5.261   1.040
26887WAT     H180903   7.749   5.290   1.129
26887WAT     H280904   7.875   5.220   1.052
26888WAT      O80905   2.265   9.489   2.366
26888WAT     H180906   2.357   9.504   2.404
26888WAT     H280907   2.224   9.409   2.410
26889WAT      O80908   5.697   1.706   1.928
26889WAT     H180909   5.681   1.608   1.936
26889WAT     H280910   5.787   1.729   1.964
26890WAT      O80911   6.556   1.038   4.240
26890WAT     H180912   6.575   1.132   4.270
26890WAT     H280913   6.490   1.039   4.165
26891WAT      O80914   9.852   2.894   0.330
26891WAT     H180915   9.854   2.797   0.352
26891WAT     H280916   9.777   2.913   0.267
26892WAT      O80917   5.049   5.325   6.258
26892WAT     H180918   5.142   5.295   6.237
26892WAT     H280919   4.998   5.249   6.298
26893WAT      O80920   1.904   0.277   1.943
26893WAT     H180921   1.951   0.270   1.855
26893WAT     H280922   1.907   0.372   1.975
26894WAT      O80923   1.459   2.407   7.351
26894WAT     H180924   1.367   2.405   7.390
26894WAT     H280925   1.482   2.317   7.314
26895WAT      O80926   2.384   4.277   3.890
26895WAT     H180927   2.307   4.236   3.938
26895WAT     H280928   2.350   4.347   3.826
26896WAT      O80929   8.731   6.746   8.236
26896WAT     H180930   8.790   6.763   8.157
26896WAT     H280931   8.733   6.826   8.296
26897WAT      O80932   8.882   4.131   1.434
26897WAT     H180933   8.917   4.049   1.389
26897WAT     H280934   8.959   4.190   1.459
26898WAT      O80935   2.702   0.060   7.870
26898WAT     H180936   2.688   0.055   7.771
26898WAT     H280937   2.618   0.093   7.914
26899WAT      O80938   9.226   1.313   5.137
26899WAT     H180939   9.162   1.388   5.118
26899WAT     H280940   9.179   1.225   5.124
26900WAT      O80941   6.002   6.164   2.202
26900WAT     H180942   5.906   6.188   2.209
26900WAT     H280943   6.045   6.168   2.292
26901WAT      O80944   9.421   8.806   8.114
26901WAT     H180945   9.325   8.822   8.138
26901WAT     H280946   9.426   8.757   8.027
26902WAT      O80947   7.583   1.468   0.893
26902WAT     H180948   7.586   1.533   0.969
26902WAT     H280949   7.489   1.457   0.861
26903WAT      O80950   3.577   3.472   8.651
26903WAT     H180951   3.632   3.555   8.653
26903WAT     H280952   3.480   3.496   8.645
26904WAT      O80953   9.825   1.802   1.705
26904WAT     H180954   9.773   1.862   1.644
26904WAT     H280955   9.799   1.707   1.688
26905WAT      O80956   6.539   9.355   1.949
26905WAT     H180957   6.462   9.323   1.894
26905WAT     H280958   6.610   9.285   1.952
26906WAT      O80959   4.500   0.763   0.621
26906WAT     H180960   4.555   0.719   0.692
26906WAT     H280961   4.419   0.707   0.603
26907WAT      O80962   2.988   6.305   6.293
26907WAT     H180963   3.080   6.338   6.269
26907WAT     H280964   2.924   6.333   6.222
26908WAT      O80965   0.357   4.466   2.949
26908WAT     H180966   0.398   4.435   2.863
26908WAT     H280967   0.301   4.393   2.988
26909WAT      O80968   7.223   2.936   1.957
26909WAT     H180969   7.135   2.922   2.002
26909WAT     H280970   7.293   2.879   2.000
26910WAT      O80971   7.160   4.575   5.356
26910WAT     H180972   7.191   4.547   5.447
26910WAT     H280973   7.142   4.495   5.300
26911WAT      O80974   2.365   8.150   9.275
26911WAT     H180975   2.414   8.081   9.223
26911WAT     H280976   2.419   8.177   9.355
26912WAT      O80977   2.268   8.181   1.028
26912WAT     H180978   2.360   8.209   1.053
26912WAT     H280979   2.237   8.109   1.090
26913WAT      O80980   6.165   1.000   7.842
26913WAT     H180981   6.232   1.072   7.858
26913WAT     H280982   6.144   0.996   7.744
26914WAT      O80983   0.314   9.726   4.129
26914WAT     H180984   0.395   9.751   4.076
26914WAT     H280985   0.342   9.677   4.212
26915WAT      O80986   4.691   7.780   0.937
26915WAT     H180987   4.645   7.863   0.904
26915WAT     H280988   4.626   7.705   0.940
26916WAT      O80989   1.938   0.116   2.196
26916WAT     H180990   2.026   0.140   2.238
26916WAT     H280991   1.929   0.162   2.108
26917WAT      O80992   9.750   2.815   3.129
26917WAT     H180993   9.707   2.902   3.151
26917WAT     H280994   9.820   2.829   3.059
26918WAT      O80995   9.031   3.392   9.672
26918WAT     H180996   9.077   3.313   9.711
26918WAT     H280997   8.941   3.366   9.638
26919WAT      O80998   8.520   7.253   0.091
26919WAT     H180999   8.580   7.219   0.163
26919WAT     H281000   8.427   7.263   0.127
26920WAT      O81001   8.304   8.142   0.282
26920WAT     H181002   8.373   8.078   0.250
26920WAT     H281003   8.258   8.184   0.204
26921WAT      O81004   8.064   6.841   5.905
26921WAT     H181005   7.997   6.878   5.969
26921WAT     H281006   8.068   6.899   5.823
26922WAT      O81007   6.079   0.366   0.148
26922WAT     H181008   5.990   0.334   0.181
26922WAT     H281009   6.115   0.300   0.082
26923WAT      O81010   1.431   0.638   7.481
26923WAT     H181011   1.520   0.669   7.447
26923WAT     H281012   1.402   0.558   7.429
26924WAT      O81013   5.938   7.874   0.697
26924WAT     H181014   6.037   7.873   0.716
26924WAT     H281015   5.896   7.793   0.739
26925WAT      O81016   5.201   7.535   2.464
26925WAT     H181017   5.296   7.503   2.454
26925WAT     H281018   5.163   7.499   2.549
26926WAT      O81019   0.135   8.046   7.110
26926WAT     H181020   0.231   8.027   7.128
26926WAT     H281021   0.113   8.020   7.016
26927WAT      O81022   5.891   7.298   5.522
26927WAT     H181023   5.989   7.277   5.518
26927WAT     H281024   5.852   7.292   5.430
26928WAT      O81025   7.703   3.835   8.333
26928WAT     H181026   7.671   3.930   8.329
26928WAT     H281027   7.680   3.796   8.422
26929WAT      O81028   2.130   8.328   0.845
26929WAT     H181029   2.043   8.279   0.852
26929WAT     H281030   2.195   8.288   0.910
26930WAT      O81031   0.105   2.941   0.113
26930WAT     H181032   0.065   2.934   0.205
26930WAT     H281033   0.033   2.928   0.045
26931WAT      O81034   7.796   8.435   7.402
26931WAT     H181035   7.873   8.424   7.339
26931WAT     H281036   7.784   8.351   7.454
26932WAT      O81037   7.821   3.096   7.555
26932WAT     H181038   7.833   3.003   7.592
26932WAT     H281039   7.846   3.163   7.625
26933WAT      O81040   6.055   4.515   3.371
26933WAT     H181041   6.120   4.550   3.438
26933WAT     H281042   6.077   4.550   3.280
26934WAT      O81043   4.486   4.508   6.707
26934WAT     H181044   4.535   4.492   6.622
26934WAT     H281045   4.442   4.598   6.704
26935WAT      O81046   0.793   0.890   0.627
26935WAT     H181047   0.756   0.900   0.535
26935WAT     H281048   0.864   0.819   0.627
26936WAT      O81049   6.499   3.796   0.589
26936WAT     H181050   6.533   3.764   0.677
26936WAT     H281051   6.424   3.860   0.604
26937WAT      O81052   6.717   3.281   3.258
26937WAT     H181053   6.809   3.272   3.218
26937WAT     H281054   6.717   3.247   3.352
26938WAT      O81055   2.766   4.021   2.792
26938WAT     H181056   2.702   4.053   2.862
26938WAT     H281057   2.766   4.086   2.715
26939WAT      O81058   2.480   8.464   9.315
26939WAT     H181059   2.471   8.384   9.374
26939WAT     H281060   2.393   8.513   9.312
26940WAT      O81061   3.077   3.529   4.548
26940WAT     H181062   2.996   3.494   4.594
26940WAT     H281063   3.055   3.548   4.452
26941WAT      O81064   5.516   1.412   6.245
26941WAT     H181065   5.582   1.369   6.306
26941WAT     H281066   5.495   1.504   6.277
26942WAT      O81067   8.593   1.690   4.086
26942WAT     H181068   8.584   1.591   4.077
26942WAT     H281069   8.654   1.712   4.163
26943WAT      O81070   5.694   9.345   7.274
26943WAT     H181071   5.619   9.293   7.233
26943WAT     H281072   5.675   9.443   7.266
26944WAT      O81073   8.403   3.987   3.669
26944WAT     H181074   8.336   4.061   3.667
26944WAT     H281075   8.455   3.991   3.755
26945WAT      O81076   2.752   5.824   1.370
26945WAT     H181077   2.741   5.804   1.467
26945WAT     H281078   2.718   5.916   1.350
26946WAT      O81079   1.580   0.463   3.512
26946WAT     H181080   1.588   0.373   3.554
26946WAT     H281081   1.484   0.490   3.509
26947WAT      O81082   2.453   1.956   3.159
26947WAT     H181083   2.353   1.958   3.162
26947WAT     H281084   2.486   2.021   3.090
26948WAT      O81085   7.622   3.824   6.547
26948WAT     H181086   7.581   3.904   6.504
26948WAT     H281087   7.689   3.853   6.616
26949WAT      O81088   4.818   3.638   8.312
26949WAT     H181089   4.837   3.730   8.276
26949WAT     H281090   4.720   3.622   8.311
26950WAT      O81091   0.131   8.024   3.926
26950WAT     H181092   0.109   7.938   3.972
26950WAT     H281093   0.213   8.064   3.966
26951WAT      O81094   3.456   3.752   1.090
26951WAT     H181095   3.487   3.723   0.999
26951WAT     H281096   3.514   3.710   1.160
26952WAT      O81097   4.815   6.265   6.458
26952WAT     H181098   4.890   6.280   6.523
26952WAT     H281099   4.763   6.184   6.485
26953WAT      O81100   3.123   5.938   1.280
26953WAT     H181101   3.135   5.843   1.253
26953WAT     H281102   3.209   5.987   1.265
26954WAT      O81103   9.018   6.263   1.568
26954WAT     H181104   8.938   6.304   1.610
26954WAT     H281105   9.097   6.274   1.629
26955WAT      O81106   1.962   7.300   4.916
26955WAT     H181107   1.901   7.345   4.850
26955WAT     H281108   1.950   7.201   4.910
26956WAT      O81109   3.163   1.995   1.082
26956WAT     H181110   3.065   1.991   1.102
26956WAT     H281111   3.212   1.934   1.143
26957WAT      O81112   1.305   5.739   8.997
26957WAT     H181113   1.275   5.652   8.957
26957WAT     H281114   1.256   5.814   8.952
26958WAT      O81115   1.818   7.433   9.128
26958WAT     H181116   1.830   7.334   9.124
26958WAT     H281117   1.767   7.456   9.212
26959WAT      O81118   9.594   5.848   5.534
26959WAT     H181119   9.618   5.885   5.624
26959WAT     H281120   9.663   5.877   5.467
26960WAT      O81121   1.304   4.502   9.305
26960WAT     H181122   1.371   4.457   9.246
26960WAT     H281123   1.217   4.452   9.302
26961WAT      O81124   5.353   0.231   0.528
26961WAT     H181125   5.452   0.233   0.518
26961WAT     H281126   5.310   0.207   0.441
26962WAT      O81127   0.583   9.689   1.218
26962WAT     H181128   0.550   9.595   1.224
26962WAT     H281129   0.606   9.722   1.310
26963WAT      O81130   8.549   7.814   6.498
26963WAT     H181131   8.647   7.797   6.488
26963WAT     H281132   8.527   7.907   6.468
26964WAT      O81133   6.650   1.773   6.882
26964WAT     H181134   6.661   1.675   6.866
26964WAT     H281135   6.566   1.805   6.838
26965WAT      O81136   5.145   2.969   9.232
26965WAT     H181137   5.070   3.032   9.211
26965WAT     H281138   5.230   3.021   9.242
26966WAT      O81139   1.124   5.917   8.912
26966WAT     H181140   1.148   5.971   8.831
26966WAT     H281141   1.079   5.976   8.979
26967WAT      O81142   7.548   8.299   1.254
26967WAT     H181143   7.505   8.300   1.164
26967WAT     H281144   7.621   8.367   1.257
26968WAT      O81145   8.301   5.171   9.275
26968WAT     H181146   8.224   5.207   9.329
26968WAT     H281147   8.369   5.131   9.337
26969WAT      O81148   5.207   9.086   7.133
26969WAT     H181149   5.232   9.074   7.037
26969WAT     H281150   5.108   9.098   7.140
26970WAT      O81151   5.727   5.328   0.986
26970WAT     H181152   5.640   5.285   0.963
26970WAT     H281153   5.802   5.280   0.941
26971WAT      O81154   9.084   6.923   8.620
26971WAT     H181155   8.994   6.919   8.666
26971WAT     H281156   9.100   6.837   8.572
26972WAT      O81157   6.677   7.899   3.789
26972WAT     H181158   6.740   7.822   3.799
26972WAT     H281159   6.586   7.864   3.765
26973WAT      O81160   5.409   3.303   1.841
26973WAT     H181161   5.484   3.368   1.856
26973WAT     H281162   5.325   3.354   1.821
26974WAT      O81163   1.115   7.366   8.097
26974WAT     H181164   1.111   7.426   8.177
26974WAT     H281165   1.133   7.421   8.016
26975WAT      O81166   9.082   1.638   9.648
26975WAT     H181167   8.998   1.692   9.641
26975WAT     H281168   9.073   1.571   9.721
26976WAT      O81169   7.105   8.037   5.714
26976WAT     H181170   7.116   8.114   5.652
26976WAT     H281171   7.035   8.058   5.781
26977WAT      O81172   1.497   1.970   7.994
26977WAT     H181173   1.440   1.923   8.062
26977WAT     H281174   1.533   1.904   7.929
26978WAT      O81175   3.822   6.757   7.089
26978WAT     H181176   3.902   6.754   7.151
26978WAT     H281177   3.743   6.716   7.135
26979WAT      O81178   6.887   9.832   6.862
26979WAT     H181179   6.980   9.854   6.832
26979WAT     H281180   6.856   9.902   6.926
26980WAT      O81181   6.531   0.627   1.275
26980WAT     H181182   6.604   0.682   1.316
26980WAT     H281183   6.485   0.679   1.203
26981WAT      O81184   4.403   4.736   6.361
26981WAT     H181185   4.457   4.766   6.282
26981WAT     H281186   4.461   4.737   6.442
26982WAT      O81187   2.538   6.350   3.034
26982WAT     H181188   2.440   6.342   3.021
26982WAT     H281189   2.583   6.263   3.013
26983WAT      O81190   9.689   9.430   5.102
26983WAT     H181191   9.739   9.516   5.105
26983WAT     H281192   9.591   9.448   5.107
26984WAT      O81193   6.314   0.265   0.591
26984WAT     H181194   6.364   0.253   0.506
26984WAT     H281195   6.370   0.236   0.668
26985WAT      O81196   4.199   5.773   5.093
26985WAT     H181197   4.226   5.866   5.070
26985WAT     H281198   4.100   5.769   5.105
26986WAT      O81199   7.525   1.348   7.505
26986WAT     H181200   7.432   1.364   7.471
26986WAT     H281201   7.572   1.286   7.443
26987WAT      O81202   5.638   1.406   1.299
26987WAT     H181203   5.722   1.419   1.353
26987WAT     H281204   5.650   1.447   1.209
26988WAT      O81205   4.236   4.193   6.452
26988WAT     H181206   4.330   4.225   6.450
26988WAT     H281207   4.198   4.194   6.359
26989WAT      O81208   4.736   2.940   5.620
26989WAT     H181209   4.682   2.957   5.702
26989WAT     H281210   4.832   2.926   5.645
26990WAT      O81211   7.936   4.487   2.143
26990WAT     H181212   7.885   4.455   2.063
26990WAT     H281213   7.897   4.574   2.175
26991WAT      O81214   9.644   9.650   3.419
26991WAT     H181215   9.742   9.651   3.402
26991WAT     H281216   9.624   9.692   3.507
26992WAT      O81217   0.730   0.380   7.127
26992WAT     H181218   0.716   0.464   7.180
26992WAT     H281219   0.817   0.339   7.153
26993WAT      O81220   8.825   0.797   3.481
26993WAT     H181221   8.904   0.741   3.506
26993WAT     H281222   8.813   0.796   3.381
26994WAT      O81223   3.494   8.678   9.352
26994WAT     H181224   3.489   8.767   9.397
26994WAT     H281225   3.459   8.608   9.414
26995WAT      O81226   3.856   7.026   5.611
26995WAT     H181227   3.915   7.086   5.558
26995WAT     H281228   3.871   7.041   5.708
26996WAT      O81229   3.200   5.338   8.251
26996WAT     H181230   3.169   5.433   8.248
26996WAT     H281231   3.144   5.287   8.316
26997WAT      O81232   1.796   4.877   9.637
26997WAT     H181233   1.810   4.974   9.616
26997WAT     H281234   1.737   4.868   9.717
26998WAT      O81235   1.026   1.566   9.308
26998WAT     H181236   0.992   1.631   9.376
26998WAT     H281237   0.949   1.520   9.264
26999WAT      O81238   4.417   9.559   6.693
26999WAT     H181239   4.390   9.639   6.747
26999WAT     H281240   4.449   9.487   6.754
27000WAT      O81241   6.876   0.473   9.683
27000WAT     H181242   6.798   0.512   9.633
27000WAT     H281243   6.945   0.443   9.618
27001WAT      O81244   2.868   3.525   9.151
27001WAT     H181245   2.957   3.569   9.146
27001WAT     H281246   2.862   3.454   9.080
27002WAT      O81247   9.451   1.945   0.990
27002WAT     H181248   9.356   1.934   0.959
27002WAT     H281249   9.470   1.878   1.062
27003WAT      O81250   2.233   9.750   8.901
27003WAT     H181251   2.181   9.834   8.915
27003WAT     H281252   2.286   9.757   8.816
27004WAT      O81253   3.949   7.136   0.955
27004WAT     H181254   3.893   7.194   1.014
27004WAT     H281255   3.896   7.058   0.924
27005WAT      O81256   1.739   6.585   7.977
27005WAT     H181257   1.760   6.497   7.934
27005WAT     H281258   1.651   6.619   7.945
27006WAT      O81259   7.691   1.890   9.702
27006WAT     H181260   7.653   1.982   9.700
27006WAT     H281261   7.784   1.891   9.664
27007WAT      O81262   4.824   1.122   2.558
27007WAT     H181263   4.738   1.091   2.518
27007WAT     H281264   4.811   1.211   2.602
27008WAT      O81265   2.621   0.702   0.361
27008WAT     H181266   2.609   0.604   0.347
27008WAT     H281267   2.718   0.726   0.352
27009WAT      O81268   4.590   2.421   8.794
27009WAT     H181269   4.627   2.361   8.722
27009WAT     H281270   4.501   2.387   8.823
27010WAT      O81271   3.294   4.243   1.755
27010WAT     H181272   3.223   4.283   1.812
27010WAT     H281273   3.310   4.148   1.782
27011WAT      O81274   2.668   6.900   7.171
27011WAT     H181275   2.587   6.957   7.159
27011WAT     H281276   2.743   6.935   7.115
27012WAT      O81277   8.562   8.187   6.594
27012WAT     H181278   8.519   8.262   6.645
27012WAT     H281279   8.632   8.144   6.651
27013WAT      O81280   1.326   0.497   7.228
27013WAT     H181281   1.247   0.551   7.200
27013WAT     H281282   1.331   0.414   7.174
27014WAT      O81283   7.409   1.596   5.181
27014WAT     H181284   7.317   1.558   5.191
27014WAT     H281285   7.444   1.574   5.090
27015WAT      O81286   7.900   0.144   2.211
27015WAT     H181287   7.847   0.206   2.268
27015WAT     H281288   7.996   0.171   2.212
27016WAT      O81289   5.799   4.780   7.897
27016WAT     H181290   5.710   4.745   7.929
27016WAT     H281291   5.840   4.714   7.835
27017WAT      O81292   2.345   5.092   5.398
27017WAT     H181293   2.401   5.121   5.320
27017WAT     H281294   2.375   5.141   5.480
27018WAT      O81295   2.742   5.201   7.563
27018WAT     H181296   2.669   5.201   7.632
27018WAT     H281297   2.722   5.269   7.493
27019WAT      O81298   3.450   5.632   3.013
27019WAT     H181299   3.419   5.601   2.923
27019WAT     H281300   3.392   5.707   3.045
27020WAT      O81301   8.605   5.783   8.435
27020WAT     H181302   8.649   5.737   8.359
27020WAT     H281303   8.516   5.741   8.453
27021WAT      O81304   8.837   8.580   4.388
27021WAT     H181305   8.900   8.521   4.338
27021WAT     H281306   8.835   8.554   4.484
27022WAT      O81307   0.182   3.809   6.195
27022WAT     H181308   0.158   3.839   6.287
27022WAT     H281309   0.175   3.887   6.132
27023WAT      O81310   0.616   4.233   2.401
27023WAT     H181311   0.647   4.301   2.468
27023WAT     H281312   0.694   4.181   2.368
27024WAT      O81313   6.718   2.845   0.438
27024WAT     H181314   6.813   2.862   0.463
27024WAT     H281315   6.714   2.795   0.351
27025WAT      O81316   4.879   0.162   3.940
27025WAT     H181317   4.917   0.113   3.862
27025WAT     H281318   4.935   0.145   4.021
27026WAT      O81319   3.227   8.926   2.699
27026WAT     H181320   3.300   8.965   2.642
27026WAT     H281321   3.264   8.906   2.790
27027WAT      O81322   6.634   9.499   3.834
27027WAT     H181323   6.594   9.575   3.886
27027WAT     H281324   6.726   9.524   3.805
27028WAT      O81325   0.709   5.242   6.831
27028WAT     H181326   0.619   5.250   6.875
27028WAT     H281327   0.732   5.328   6.787
27029WAT      O81328   0.360   2.857   0.007
27029WAT     H181329   0.269   2.880   0.040
27029WAT     H281330   0.363   2.760  -0.017
27030WAT      O81331   1.733   4.011   9.060
27030WAT     H181332   1.728   4.027   8.962
27030WAT     H281333   1.746   3.913   9.077
27031WAT      O81334   9.648   2.620   6.171
27031WAT     H181335   9.742   2.620   6.206
27031WAT     H281336   9.623   2.712   6.141
27032WAT      O81337   0.286   3.425   6.089
27032WAT     H181338   0.252   3.413   5.996
27032WAT     H281339   0.352   3.352   6.110
27033WAT      O81340   7.421   7.883   6.258
27033WAT     H181341   7.403   7.864   6.161
27033WAT     H281342   7.501   7.831   6.288
27034WAT      O81343   8.424   5.775   5.657
27034WAT     H181344   8.517   5.745   5.681
27034WAT     H281345   8.360   5.700   5.673
27035WAT      O81346   6.327   5.729   3.583
27035WAT     H181347   6.393   5.661   3.617
27035WAT     H281348   6.376   5.809   3.550
27036WAT      O81349   2.462   6.555   8.345
27036WAT     H181350   2.403   6.475   8.357
27036WAT     H281351   2.406   6.634   8.323
27037WAT      O81352   5.057   0.883   9.453
27037WAT     H181353   5.122   0.944   9.498
27037WAT     H281354   4.999   0.935   9.390
27038WAT      O81355   2.200   0.290   9.521
27038WAT     H181356   2.198   0.194   9.492
27038WAT     H281357   2.235   0.295   9.615
27039WAT      O81358   3.914   8.971   5.369
27039WAT     H181359   3.828   8.933   5.404
27039WAT     H281360   3.966   9.010   5.445
27040WAT      O81361   0.358   8.538   0.395
27040WAT     H181362   0.297   8.464   0.368
27040WAT     H281363   0.339   8.619   0.339
27041WAT      O81364   5.744   7.244   0.002
27041WAT     H181365   5.769   7.210   0.092
27041WAT     H281366   5.697   7.332   0.012
27042WAT      O81367   9.753   4.219   2.229
27042WAT     H181368   9.803   4.305   2.218
27042WAT     H281369   9.710   4.216   2.319
27043WAT      O81370   1.570   5.563   5.074
27043WAT     H181371   1.520   5.487   5.033
27043WAT     H281372   1.633   5.528   5.144
27044WAT      O81373   5.297   7.734   5.541
27044WAT     H181374   5.202   7.755   5.563
27044WAT     H281375   5.302   7.648   5.490
27045WAT      O81376   0.454   5.915   3.156
27045WAT     H181377   0.524   5.945   3.220
27045WAT     H281378   0.398   5.993   3.128
27046WAT      O81379   8.800   5.594   4.224
27046WAT     H181380   8.735   5.652   4.175
27046WAT     H281381   8.795   5.500   4.190
27047WAT      O81382   8.923   2.698   3.604
27047WAT     H181383   8.983   2.732   3.676
27047WAT     H281384   8.892   2.606   3.627
27048WAT      O81385   7.090   5.413   7.019
27048WAT     H181386   7.018   5.456   6.965
27048WAT     H281387   7.112   5.324   6.980
27049WAT      O81388   0.445   7.515   3.224
27049WAT     H181389   0.436   7.441   3.158
27049WAT     H281390   0.450   7.476   3.317
27050WAT      O81391   7.093   9.088   2.560
27050WAT     H181392   7.013   9.146   2.545
27050WAT     H281393   7.088   9.008   2.500
27051WAT      O81394   4.797   3.616   2.373
27051WAT     H181395   4.795   3.555   2.293
27051WAT     H281396   4.712   3.668   2.377
27052WAT      O81397   8.742   0.852   2.383
27052WAT     H181398   8.794   0.822   2.303
27052WAT     H281399   8.795   0.836   2.466
27053WAT      O81400   9.620   6.135   2.091
27053WAT     H181401   9.590   6.080   2.013
27053WAT     H281402   9.554   6.127   2.165
27054WAT      O81403   6.819   7.167   4.879
27054WAT     H181404   6.749   7.239   4.889
27054WAT     H281405   6.774   7.079   4.867
27055WAT      O81406   2.558   7.211   2.328
27055WAT     H181407   2.491   7.278   2.359
27055WAT     H281408   2.549   7.128   2.383
27056WAT      O81409   8.389   0.314   9.167
27056WAT     H181410   8.301   0.338   9.207
27056WAT     H281411   8.388   0.219   9.137
27057WAT      O81412   5.603   8.790   2.237
27057WAT     H181413   5.576   8.886   2.231
27057WAT     H281414   5.595   8.748   2.147
27058WAT      O81415   6.264   9.691   4.313
27058WAT     H181416   6.254   9.721   4.218
27058WAT     H281417   6.212   9.753   4.372
27059WAT      O81418   0.995   9.234   2.476
27059WAT     H181419   1.086   9.213   2.511
27059WAT     H281420   1.002   9.272   2.383
27060WAT      O81421   3.550   0.817   4.332
27060WAT     H181422   3.650   0.816   4.325
27060WAT     H281423   3.515   0.724   4.332
27061WAT      O81424   1.569   7.768   3.316
27061WAT     H181425   1.511   7.690   3.338
27061WAT     H281426   1.614   7.753   3.228
27062WAT      O81427   2.829   0.309   5.810
27062WAT     H181428   2.782   0.393   5.783
27062WAT     H281429   2.913   0.332   5.859
27063WAT      O81430   4.945   6.512   9.101
27063WAT     H181431   4.915   6.607   9.109
27063WAT     H281432   4.875   6.452   9.140
27064WAT      O81433   5.158   3.336   9.764
27064WAT     H181434   5.087   3.388   9.716
27064WAT     H281435   5.195   3.266   9.703
27065WAT      O81436   2.940   2.705   5.338
27065WAT     H181437   2.989   2.629   5.294
27065WAT     H281438   2.868   2.738   5.278
27066WAT      O81439   9.053   8.199   4.132
27066WAT     H181440   9.077   8.112   4.174
27066WAT     H281441   8.983   8.184   4.062
27067WAT      O81442   3.862   7.062   7.892
27067WAT     H181443   3.796   7.093   7.960
27067WAT     H281444   3.834   6.973   7.856
27068WAT      O81445   2.459   8.210   2.785
27068WAT     H181446   2.485   8.258   2.869
27068WAT     H281447   2.359   8.210   2.777
27069WAT      O81448   6.819   5.012   8.744
27069WAT     H181449   6.913   4.994   8.773
27069WAT     H281450   6.818   5.048   8.651
27070WAT      O81451   0.249   6.541   1.094
27070WAT     H181452   0.279   6.612   1.157
27070WAT     H281453   0.156   6.511   1.118
27071WAT      O81454   8.369   5.257   2.697
27071WAT     H181455   8.387   5.330   2.632
27071WAT     H281456   8.366   5.169   2.648
27072WAT      O81457   6.764   5.113   6.889
27072WAT     H181458   6.713   5.199   6.882
27072WAT     H281459   6.719   5.043   6.834
27073WAT      O81460   8.058   0.756   7.745
27073WAT     H181461   8.127   0.723   7.681
27073WAT     H281462   8.062   0.855   7.751
27074WAT      O81463   4.168   3.639   9.491
27074WAT     H181464   4.231   3.679   9.558
27074WAT     H281465   4.149   3.544   9.517
27075WAT      O81466   9.860   8.465   2.716
27075WAT     H181467   9.768   8.497   2.693
27075WAT     H281468   9.902   8.424   2.635
27076WAT      O81469   8.139   3.267   7.590
27076WAT     H181470   8.124   3.233   7.497
27076WAT     H281471   8.226   3.233   7.625
27077WAT      O81472   6.654   3.184   6.082
27077WAT     H181473   6.706   3.136   6.153
27077WAT     H281474   6.690   3.277   6.071
27078WAT      O81475   3.157   7.468   5.198
27078WAT     H181476   3.134   7.477   5.295
27078WAT     H281477   3.234   7.527   5.176
27079WAT      O81478   2.488   5.215   1.331
27079WAT     H181479   2.560   5.149   1.351
27079WAT     H281480   2.452   5.197   1.240
27080WAT      O81481   5.562   7.001   1.252
27080WAT     H181482   5.562   6.985   1.351
27080WAT     H281483   5.582   7.097   1.233
27081WAT      O81484   1.473   4.445   9.787
27081WAT     H181485   1.450   4.498   9.705
27081WAT     H281486   1.570   4.457   9.808
27082WAT      O81487   6.554   2.630   4.528
27082WAT     H181488   6.462   2.644   4.564
27082WAT     H281489   6.609   2.712   4.545
27083WAT      O81490   4.471   6.460   0.226
27083WAT     H181491   4.569   6.444   0.218
27083WAT     H281492   4.442   6.447   0.321
27084WAT      O81493   7.225   3.279   8.768
27084WAT     H181494   7.127   3.259   8.759
27084WAT     H281495   7.264   3.296   8.678
27085WAT      O81496   3.423   7.141   0.124
27085WAT     H181497   3.366   7.101   0.052
27085WAT     H281498   3.366   7.192   0.188
27086WAT      O81499   7.515   4.310   0.383
27086WAT     H181500   7.555   4.345   0.298
27086WAT     H281501   7.588   4.288   0.448
27087WAT      O81502   5.526   9.736   8.939
27087WAT     H181503   5.572   9.824   8.926
27087WAT     H281504   5.474   9.714   8.857
27088WAT      O81505   0.725   4.680   1.511
27088WAT     H181506   0.746   4.742   1.435
27088WAT     H281507   0.634   4.701   1.547
27089WAT      O81508   2.412   1.460   1.875
27089WAT     H181509   2.383   1.371   1.840
27089WAT     H281510   2.434   1.453   1.972
27090WAT      O81511   5.816   3.769   9.195
27090WAT     H181512   5.750   3.728   9.259
27090WAT     H281513   5.908   3.744   9.222
27091WAT      O81514   3.121   5.508   2.709
27091WAT     H181515   3.065   5.579   2.667
27091WAT     H281516   3.206   5.498   2.657
27092WAT      O81517   7.067   0.412   7.901
27092WAT     H181518   7.154   0.447   7.935
27092WAT     H281519   7.081   0.321   7.861
27093WAT      O81520   9.643   5.301   1.183
27093WAT     H181521   9.721   5.362   1.201
27093WAT     H281522   9.676   5.216   1.143
27094WAT      O81523   4.255   5.020   7.087
27094WAT     H181524   4.252   5.053   6.993
27094WAT     H281525   4.256   5.098   7.150
27095WAT      O81526   5.446   5.707   5.253
27095WAT     H181527   5.491   5.621   5.277
27095WAT     H281528   5.515   5.779   5.241
27096WAT      O81529   0.622   4.760   9.114
27096WAT     H181530   0.609   4.834   9.048
27096WAT     H281531   0.713   4.769   9.155
27097WAT      O81532   6.511   0.060   3.144
27097WAT     H181533   6.470   0.131   3.087
27097WAT     H281534   6.480  -0.030   3.113
27098WAT      O81535   2.769   3.102   8.637
27098WAT     H181536   2.673   3.077   8.650
27098WAT     H281537   2.827   3.022   8.647
27099WAT      O81538   1.785   8.239   1.275
27099WAT     H181539   1.847   8.313   1.247
27099WAT     H281540   1.839   8.161   1.307
27100WAT      O81541   4.809   3.129   3.709
27100WAT     H181542   4.724   3.109   3.759
27100WAT     H281543   4.827   3.227   3.713
27101WAT      O81544   7.972   1.203   8.357
27101WAT     H181545   7.955   1.113   8.318
27101WAT     H281546   7.893   1.232   8.411
27102WAT      O81547   5.090   6.741   1.288
27102WAT     H181548   5.158   6.747   1.361
27102WAT     H281549   5.134   6.713   1.203
27103WAT      O81550   5.760   4.706   0.974
27103WAT     H181551   5.807   4.791   0.998
27103WAT     H281552   5.828   4.636   0.952
27104WAT      O81553   2.265   9.125   4.452
27104WAT     H181554   2.206   9.048   4.479
27104WAT     H281555   2.307   9.164   4.534
27105WAT      O81556   4.032   8.700   8.015
27105WAT     H181557   4.094   8.728   7.942
27105WAT     H281558   3.937   8.707   7.983
27106WAT      O81559   6.648   6.683   2.411
27106WAT     H181560   6.554   6.660   2.390
27106WAT     H281561   6.693   6.606   2.456
27107WAT      O81562   1.094   0.006   8.307
27107WAT     H181563   1.068  -0.002   8.210
27107WAT     H281564   1.121  -0.083   8.342
27108WAT      O81565   1.122   2.937   4.545
27108WAT     H181566   1.040   2.944   4.488
27108WAT     H281567   1.203   2.926   4.487
27109WAT      O81568   7.609   5.149   9.065
27109WAT     H181569   7.648   5.218   9.126
27109WAT     H281570   7.536   5.191   9.011
27110WAT      O81571   9.751   8.016   3.120
27110WAT     H181572   9.675   8.079   3.106
27110WAT     H281573   9.783   7.984   3.031
27111WAT      O81574   1.579   6.455   6.819
27111WAT     H181575   1.639   6.452   6.738
27111WAT     H281576   1.544   6.364   6.837
27112WAT      O81577   5.560   7.946   1.623
27112WAT     H181578   5.568   7.852   1.589
27112WAT     H281579   5.566   7.946   1.723
27113WAT      O81580   6.954   7.216   6.830
27113WAT     H181581   6.869   7.188   6.876
27113WAT     H281582   6.941   7.209   6.731
27114WAT      O81583   7.026   7.629   6.053
27114WAT     H181584   6.994   7.558   6.117
27114WAT     H281585   7.022   7.593   5.960
27115WAT      O81586   3.269   7.002   9.838
27115WAT     H181587   3.198   7.033   9.775
27115WAT     H281588   3.340   6.954   9.787
27116WAT      O81589   3.286   3.248   7.887
27116WAT     H181590   3.367   3.300   7.859
27116WAT     H281591   3.314   3.158   7.921
27117WAT      O81592   6.114   9.470   1.868
27117WAT     H181593   6.176   9.542   1.838
27117WAT     H281594   6.020   9.497   1.847
27118WAT      O81595   3.196   9.034   4.747
27118WAT     H181596   3.154   8.945   4.764
27118WAT     H281597   3.219   9.078   4.834
27119WAT      O81598   9.013   2.448   0.634
27119WAT     H181599   9.007   2.539   0.675
27119WAT     H281600   8.953   2.385   0.684
27120WAT      O81601   3.825   6.660   6.851
27120WAT     H181602   3.845   6.690   6.944
27120WAT     H281603   3.807   6.739   6.793
27121WAT      O81604   3.056   7.207   5.737
27121WAT     H181605   2.974   7.152   5.724
27121WAT     H281606   3.127   7.179   5.673
27122WAT      O81607   7.747   4.862   8.294
27122WAT     H181608   7.770   4.870   8.391
27122WAT     H281609   7.826   4.830   8.243
27123WAT      O81610   3.038   7.899   6.394
27123WAT     H181611   2.976   7.953   6.337
27123WAT     H281612   3.050   7.944   6.483
27124WAT      O81613   9.815   7.826   5.994
27124WAT     H181614   9.734   7.772   6.013
27124WAT     H281615   9.836   7.823   5.896
27125WAT      O81616   4.191   9.522   7.850
27125WAT     H181617   4.171   9.574   7.933
27125WAT     H281618   4.285   9.541   7.820
27126WAT      O81619   1.228   7.071   4.929
27126WAT     H181620   1.296   7.126   4.978
27126WAT     H281621   1.270   6.984   4.901
27127WAT      O81622   3.416   0.325   2.850
27127WAT     H181623   3.504   0.298   2.889
27127WAT     H281624   3.403   0.281   2.762
27128WAT      O81625   0.525   9.403   6.561
27128WAT     H181626   0.485   9.449   6.640
27128WAT     H281627   0.620   9.429   6.552
27129WAT      O81628   6.607   8.195   5.491
27129WAT     H181629   6.545   8.234   5.423
27129WAT     H281630   6.556   8.134   5.552
27130WAT      O81631   6.297   9.398   0.950
27130WAT     H181632   6.221   9.403   1.015
27130WAT     H281633   6.260   9.397   0.857
27131WAT      O81634   8.544   6.363   1.658
27131WAT     H181635   8.535   6.265   1.640
27131WAT     H281636   8.640   6.389   1.650
27132WAT      O81637   3.454   5.022   2.843
27132WAT     H181638   3.426   4.998   2.936
27132WAT     H281639   3.495   5.113   2.843
27133WAT      O81640   8.187   7.020   3.027
27133WAT     H181641   8.198   6.924   3.056
27133WAT     H281642   8.157   7.022   2.931
27134WAT      O81643   7.270   7.788   7.766
27134WAT     H181644   7.320   7.839   7.835
27134WAT     H281645   7.215   7.852   7.711
27135WAT      O81646   5.244   5.805   7.872
27135WAT     H181647   5.327   5.771   7.826
27135WAT     H281648   5.164   5.780   7.817
27136WAT      O81649   9.403   2.978   2.865
27136WAT     H181650   9.382   2.921   2.944
27136WAT     H281651   9.486   2.944   2.821
27137WAT      O81652   5.723   8.245   3.940
27137WAT     H181653   5.679   8.201   4.018
27137WAT     H281654   5.671   8.327   3.914
27138WAT      O81655   0.728   2.602   6.042
27138WAT     H181656   0.820   2.642   6.035
27138WAT     H281657   0.666   2.668   6.083
27139WAT      O81658   7.706   2.515   7.754
27139WAT     H181659   7.720   2.523   7.655
27139WAT     H281660   7.776   2.455   7.793
27140WAT      O81661   1.964   4.995   8.807
27140WAT     H181662   1.892   4.977   8.740
27140WAT     H281663   1.937   5.071   8.866
27141WAT      O81664   7.904   4.106   8.596
27141WAT     H181665   7.911   4.205   8.598
27141WAT     H281666   7.994   4.066   8.580
27142WAT      O81667   4.372   3.971   9.266
27142WAT     H181668   4.314   3.998   9.342
27142WAT     H281669   4.334   4.006   9.180
27143WAT      O81670   4.414   4.766   1.300
27143WAT     H181671   4.457   4.696   1.243
27143WAT     H281672   4.405   4.851   1.248
27144WAT      O81673   3.664   8.336   9.237
27144WAT     H181674   3.731   8.277   9.282
27144WAT     H281675   3.688   8.432   9.253
27145WAT      O81676   4.718   1.558   1.458
27145WAT     H181677   4.684   1.543   1.366
27145WAT     H281678   4.709   1.473   1.512
27146WAT      O81679   0.860   2.453   3.950
27146WAT     H181680   0.809   2.399   3.882
27146WAT     H281681   0.817   2.443   4.040
27147WAT      O81682   1.440   0.894   1.780
27147WAT     H181683   1.357   0.948   1.766
27147WAT     H281684   1.440   0.816   1.718
27148WAT      O81685   6.467   0.081   4.328
27148WAT     H181686   6.454  -0.004   4.378
27148WAT     H281687   6.541   0.133   4.370
27149WAT      O81688   1.618   6.160   8.842
27149WAT     H181689   1.709   6.200   8.845
27149WAT     H281690   1.608   6.103   8.760
27150WAT      O81691   3.380   3.270   4.826
27150WAT     H181692   3.295   3.285   4.775
27150WAT     H281693   3.362   3.206   4.902
27151WAT      O81694   7.681   3.451   4.396
27151WAT     H181695   7.595   3.426   4.442
27151WAT     H281696   7.691   3.398   4.312
27152WAT      O81697   3.452   3.621   0.823
27152WAT     H181698   3.402   3.632   0.737
27152WAT     H281699   3.549   3.610   0.804
27153WAT      O81700   8.214   7.860   4.156
27153WAT     H181701   8.257   7.828   4.071
27153WAT     H281702   8.286   7.884   4.222
27154WAT      O81703   4.090   1.189   4.671
27154WAT     H181704   4.053   1.097   4.657
27154WAT     H281705   4.019   1.248   4.709
27155WAT      O81706   7.652   0.387   3.385
27155WAT     H181707   7.634   0.331   3.304
27155WAT     H281708   7.621   0.480   3.369
27156WAT      O81709   2.195   6.541   6.524
27156WAT     H181710   2.216   6.600   6.446
27156WAT     H281711   2.277   6.488   6.548
27157WAT      O81712   0.275   4.175   7.183
27157WAT     H181713   0.326   4.261   7.187
27157WAT     H281714   0.291   4.130   7.095
27158WAT      O81715   2.155   2.397   0.471
27158WAT     H181716   2.058   2.381   0.490
27158WAT     H281717   2.196   2.444   0.549
27159WAT      O81718   0.080   4.386   3.952
27159WAT     H181719  -0.007   4.363   3.908
27159WAT     H281720   0.137   4.304   3.959
27160WAT      O81721   4.585   6.436   0.757
27160WAT     H181722   4.641   6.517   0.742
27160WAT     H281723   4.642   6.354   0.752
27161WAT      O81724   9.594   7.386   0.955
27161WAT     H181725   9.675   7.445   0.963
27161WAT     H281726   9.517   7.440   0.922
27162WAT      O81727   9.153   5.035   1.405
27162WAT     H181728   9.106   5.099   1.466
27162WAT     H281729   9.252   5.045   1.416
27163WAT      O81730   3.427   9.652   9.412
27163WAT     H181731   3.447   9.557   9.389
27163WAT     H281732   3.445   9.710   9.332
27164WAT      O81733   3.364   8.355   9.216
27164WAT     H181734   3.397   8.417   9.287
27164WAT     H281735   3.356   8.263   9.254
27165WAT      O81736   4.819   6.964   0.289
27165WAT     H181737   4.890   6.972   0.219
27165WAT     H281738   4.743   6.909   0.253
27166WAT      O81739   8.806   6.693   2.652
27166WAT     H181740   8.857   6.610   2.634
27166WAT     H281741   8.754   6.684   2.737
27167WAT      O81742   3.392   4.694   7.795
27167WAT     H181743   3.454   4.684   7.873
27167WAT     H281744   3.433   4.754   7.727
27168WAT      O81745   1.624   9.791   6.564
27168WAT     H181746   1.693   9.844   6.614
27168WAT     H281747   1.658   9.698   6.549
27169WAT      O81748   3.274   8.870   2.282
27169WAT     H181749   3.222   8.835   2.204
27169WAT     H281750   3.213   8.919   2.344
27170WAT      O81751   4.447   5.536   3.889
27170WAT     H181752   4.446   5.504   3.983
27170WAT     H281753   4.464   5.459   3.827
27171WAT      O81754   7.012   5.699   0.976
27171WAT     H181755   7.062   5.668   0.895
27171WAT     H281756   7.056   5.664   1.058
27172WAT      O81757   6.067   0.317   9.316
27172WAT     H181758   5.976   0.290   9.349
27172WAT     H281759   6.072   0.417   9.310
27173WAT      O81760   4.451   1.229   0.308
27173WAT     H181761   4.512   1.153   0.330
27173WAT     H281762   4.420   1.272   0.393
27174WAT      O81763   4.554   7.809   8.565
27174WAT     H181764   4.645   7.795   8.605
27174WAT     H281765   4.562   7.872   8.487
27175WAT      O81766   2.187   3.565   1.663
27175WAT     H181767   2.175   3.581   1.565
27175WAT     H281768   2.238   3.642   1.702
27176WAT      O81769   0.261   7.098   4.267
27176WAT     H181770   0.254   7.088   4.366
27176WAT     H281771   0.342   7.153   4.245
27177WAT      O81772   4.628   3.102   9.354
27177WAT     H181773   4.542   3.124   9.400
27177WAT     H281774   4.659   3.012   9.382
27178WAT      O81775   0.981   4.584   2.701
27178WAT     H181776   0.897   4.558   2.653
27178WAT     H281777   0.996   4.682   2.691
27179WAT      O81778   8.064   3.397   3.575
27179WAT     H181779   8.094   3.413   3.481
27179WAT     H281780   8.021   3.479   3.612
27180WAT      O81781   8.898   3.473   4.359
27180WAT     H181782   8.898   3.373   4.357
27180WAT     H281783   8.979   3.505   4.409
27181WAT      O81784   1.792   4.457   7.641
27181WAT     H181785   1.722   4.417   7.700
27181WAT     H281786   1.867   4.492   7.696
27182WAT      O81787   4.077   4.822   5.767
27182WAT     H181788   4.000   4.768   5.734
27182WAT     H281789   4.157   4.763   5.778
27183WAT      O81790   7.410   3.916   3.998
27183WAT     H181791   7.503   3.915   4.036
27183WAT     H281792   7.390   4.008   3.964
27184WAT      O81793   6.897   0.662   3.091
27184WAT     H181794   6.939   0.648   3.001
27184WAT     H281795   6.968   0.654   3.162
27185WAT      O81796   5.142   4.547   8.200
27185WAT     H181797   5.170   4.642   8.187
27185WAT     H281798   5.081   4.541   8.279
27186WAT      O81799   9.047   5.765   8.008
27186WAT     H181800   9.123   5.791   7.948
27186WAT     H281801   8.973   5.832   7.997
27187WAT      O81802   3.736   5.092   0.369
27187WAT     H181803   3.794   5.087   0.451
27187WAT     H281804   3.793   5.098   0.288
27188WAT      O81805   3.747   9.623   0.623
27188WAT     H181806   3.698   9.667   0.699
27188WAT     H281807   3.751   9.525   0.640
27189WAT      O81808   1.769   5.679   0.238
27189WAT     H181809   1.740   5.586   0.215
27189WAT     H281810   1.781   5.686   0.337
27190WAT      O81811   0.992   3.292   6.485
27190WAT     H181812   1.045   3.209   6.467
27190WAT     H281813   0.925   3.274   6.556
27191WAT      O81814   5.420   0.413   4.880
27191WAT     H181815   5.470   0.480   4.825
27191WAT     H281816   5.328   0.448   4.898
27192WAT      O81817   4.913   1.967   0.836
27192WAT     H181818   4.816   1.960   0.861
27192WAT     H281819   4.927   2.050   0.782
27193WAT      O81820   5.726   4.645   9.689
27193WAT     H181821   5.729   4.670   9.592
27193WAT     H281822   5.730   4.545   9.697
27194WAT      O81823   4.010   9.835   6.813
27194WAT     H181824   4.005   9.906   6.743
27194WAT     H281825   4.043   9.875   6.899
27195WAT      O81826   1.821   9.800   0.247
27195WAT     H181827   1.742   9.852   0.280
27195WAT     H281828   1.895   9.806   0.315
27196WAT      O81829   0.849   6.552   9.379
27196WAT     H181830   0.836   6.522   9.285
27196WAT     H281831   0.934   6.603   9.387
27197WAT      O81832   3.665   2.622   3.669
27197WAT     H181833   3.641   2.599   3.575
27197WAT     H281834   3.705   2.714   3.672
27198WAT      O81835   1.325   7.103   1.929
27198WAT     H181836   1.281   7.159   1.999
27198WAT     H281837   1.305   7.007   1.945
27199WAT      O81838   7.446   6.030   3.385
27199WAT     H181839   7.540   6.029   3.420
27199WAT     H281840   7.392   6.096   3.437
27200WAT      O81841   9.044   1.106   5.120
27200WAT     H181842   9.008   1.196   5.141
27200WAT     H281843   8.969   1.039   5.120
27201WAT      O81844   2.788   2.995   8.109
27201WAT     H181845   2.817   2.993   8.204
27201WAT     H281846   2.837   3.068   8.060
27202WAT      O81847   0.636   4.971   0.853
27202WAT     H181848   0.538   4.992   0.850
27202WAT     H281849   0.688   5.049   0.817
27203WAT      O81850   8.571   6.738   4.467
27203WAT     H181851   8.518   6.662   4.502
27203WAT     H281852   8.510   6.807   4.428
27204WAT      O81853   3.033   7.562   7.772
27204WAT     H181854   2.941   7.572   7.809
27204WAT     H281855   3.085   7.646   7.788
27205WAT      O81856   0.327   0.740   5.444
27205WAT     H181857   0.247   0.722   5.502
27205WAT     H281858   0.355   0.656   5.399
27206WAT      O81859   1.307   5.554   4.154
27206WAT     H181860   1.380   5.505   4.202
27206WAT     H281861   1.237   5.489   4.125
27207WAT      O81862   7.082   0.257   3.608
27207WAT     H181863   6.999   0.250   3.665
27207WAT     H281864   7.069   0.326   3.538
27208WAT      O81865   7.761   2.875   9.465
27208WAT     H181866   7.764   2.786   9.419
27208WAT     H281867   7.823   2.938   9.420
27209WAT      O81868   6.478   5.813   1.547
27209WAT     H181869   6.439   5.854   1.465
27209WAT     H281870   6.558   5.757   1.521
27210WAT      O81871   2.371   6.106   0.408
27210WAT     H181872   2.382   6.122   0.506
27210WAT     H281873   2.404   6.185   0.357
27211WAT      O81874   6.982   5.056   2.466
27211WAT     H181875   7.056   5.023   2.406
27211WAT     H281876   6.906   4.991   2.464
27212WAT      O81877   4.842   2.476   0.886
27212WAT     H181878   4.905   2.499   0.959
27212WAT     H281879   4.884   2.498   0.798
27213WAT      O81880   0.419   9.744   4.664
27213WAT     H181881   0.399   9.647   4.675
27213WAT     H281882   0.502   9.766   4.716
27214WAT      O81883   6.730   6.929   5.144
27214WAT     H181884   6.675   6.886   5.072
27214WAT     H281885   6.741   6.866   5.220
27215WAT      O81886   3.643   4.257   4.881
27215WAT     H181887   3.697   4.260   4.966
27215WAT     H281888   3.705   4.249   4.803
27216WAT      O81889   8.428   1.328   2.402
27216WAT     H181890   8.473   1.245   2.436
27216WAT     H281891   8.331   1.310   2.387
27217WAT      O81892   1.117   7.478   3.204
27217WAT     H181893   1.061   7.398   3.222
27217WAT     H281894   1.214   7.453   3.206
27218WAT      O81895   7.214   4.590   6.632
27218WAT     H181896   7.118   4.619   6.640
27218WAT     H281897   7.266   4.661   6.585
27219WAT      O81898   8.858   9.095   7.565
27219WAT     H181899   8.827   9.181   7.607
27219WAT     H281900   8.779   9.043   7.535
27220WAT      O81901   6.159   4.122   9.561
27220WAT     H181902   6.161   4.157   9.654
27220WAT     H281903   6.128   4.195   9.499
27221WAT      O81904   4.940   2.166   5.846
27221WAT     H181905   4.983   2.205   5.928
27221WAT     H281906   5.011   2.129   5.786
27222WAT      O81907   8.825   4.613   8.734
27222WAT     H181908   8.872   4.701   8.742
27222WAT     H281909   8.732   4.628   8.699
27223WAT      O81910   3.742   9.137   2.289
27223WAT     H181911   3.720   9.201   2.216
27223WAT     H281912   3.667   9.072   2.300
27224WAT      O81913   9.249   0.948   3.793
27224WAT     H181914   9.263   1.032   3.740
27224WAT     H281915   9.335   0.919   3.834
27225WAT      O81916   7.615   1.350   9.055
27225WAT     H181917   7.710   1.320   9.053
27225WAT     H281918   7.573   1.321   9.141
27226WAT      O81919   5.930   6.062   3.884
27226WAT     H181920   5.915   6.096   3.792
27226WAT     H281921   5.843   6.033   3.924
27227WAT      O81922   1.565   2.944   1.908
27227WAT     H181923   1.658   2.981   1.910
27227WAT     H281924   1.563   2.855   1.954
27228WAT      O81925   4.716   7.301   9.571
27228WAT     H181926   4.618   7.297   9.594
27228WAT     H281927   4.736   7.235   9.499
27229WAT      O81928   7.491   7.593   7.700
27229WAT     H181929   7.408   7.643   7.680
27229WAT     H281930   7.547   7.646   7.764
27230WAT      O81931   9.271   3.065   0.505
27230WAT     H181932   9.308   3.100   0.591
27230WAT     H281933   9.283   2.965   0.503
27231WAT      O81934   8.055   3.454   6.099
27231WAT     H181935   8.057   3.553   6.109
27231WAT     H281936   8.000   3.429   6.019
27232WAT      O81937   7.121   8.281   2.682
27232WAT     H181938   7.039   8.335   2.669
27232WAT     H281939   7.200   8.341   2.697
27233WAT      O81940   2.363   7.995   0.853
27233WAT     H181941   2.457   8.003   0.817
27233WAT     H281942   2.342   8.074   0.910
27234WAT      O81943   0.630   5.318   4.762
27234WAT     H181944   0.623   5.373   4.845
27234WAT     H281945   0.564   5.243   4.767
27235WAT      O81946   6.954   9.369   6.228
27235WAT     H181947   6.904   9.363   6.141
27235WAT     H281948   7.029   9.303   6.228
27236WAT      O81949   7.512   8.636   3.787
27236WAT     H181950   7.583   8.704   3.768
27236WAT     H281951   7.422   8.680   3.783
27237WAT      O81952   4.957   9.676   1.969
27237WAT     H181953   4.964   9.579   1.943
27237WAT     H281954   4.863   9.697   1.993
27238WAT      O81955   0.115   3.561   1.967
27238WAT     H181956   0.124   3.573   2.065
27238WAT     H281957   0.198   3.521   1.930
27239WAT      O81958   2.743   3.089   2.636
27239WAT     H181959   2.684   3.109   2.714
27239WAT     H281960   2.826   3.145   2.642
27240WAT      O81961   8.230   1.730   5.102
27240WAT     H181962   8.323   1.710   5.069
27240WAT     H281963   8.236   1.782   5.188
27241WAT      O81964   0.078   6.026   2.666
27241WAT     H181965   0.103   5.997   2.759
27241WAT     H281966   0.032   5.950   2.619
27242WAT      O81967   6.890   5.403   3.215
27242WAT     H181968   6.958   5.410   3.288
27242WAT     H281969   6.866   5.495   3.184
27243WAT      O81970   5.922   6.671   6.217
27243WAT     H181971   5.980   6.631   6.287
27243WAT     H281972   5.842   6.613   6.201
27244WAT      O81973   8.415   8.841   1.399
27244WAT     H181974   8.430   8.932   1.359
27244WAT     H281975   8.485   8.778   1.366
27245WAT      O81976   1.977   7.695   2.338
27245WAT     H181977   1.923   7.641   2.402
27245WAT     H281978   1.991   7.787   2.375
27246WAT      O81979   8.752   4.565   3.286
27246WAT     H181980   8.690   4.614   3.348
27246WAT     H281981   8.841   4.610   3.284
27247WAT      O81982   1.283   6.859   6.074
27247WAT     H181983   1.329   6.928   6.130
27247WAT     H281984   1.347   6.785   6.054
27248WAT      O81985   6.906   4.294   1.894
27248WAT     H181986   6.937   4.341   1.977
27248WAT     H281987   6.985   4.275   1.835
27249WAT      O81988   0.402   6.102   0.564
27249WAT     H181989   0.363   6.013   0.541
27249WAT     H281990   0.471   6.127   0.496
27250WAT      O81991   8.679   6.620   4.206
27250WAT     H181992   8.612   6.560   4.250
27250WAT     H281993   8.757   6.634   4.267
27251WAT      O81994   6.645   3.324   2.265
27251WAT     H181995   6.664   3.422   2.276
27251WAT     H281996   6.647   3.280   2.355
27252WAT      O81997   2.729   9.831   8.484
27252WAT     H181998   2.780   9.817   8.399
27252WAT     H281999   2.658   9.899   8.469
27253WAT      O82000   4.960   2.167   1.112
27253WAT     H182001   5.001   2.154   1.022
27253WAT     H282002   5.023   2.134   1.182
27254WAT      O82003   1.644   7.619   0.074
27254WAT     H182004   1.669   7.543   0.014
27254WAT     H282005   1.711   7.627   0.148
27255WAT      O82006   7.491   6.317   0.532
27255WAT     H182007   7.523   6.382   0.601
27255WAT     H282008   7.430   6.250   0.574
27256WAT      O82009   9.420   1.304   5.516
27256WAT     H182010   9.404   1.370   5.442
27256WAT     H282011   9.374   1.218   5.494
27257WAT      O82012   5.759   9.391   6.690
27257WAT     H182013   5.835   9.456   6.678
27257WAT     H282014   5.690   9.432   6.749
27258WAT      O82015   3.337   0.843   4.823
27258WAT     H182016   3.360   0.869   4.730
27258WAT     H282017   3.362   0.747   4.838
27259WAT      O82018   5.781   8.275   9.601
27259WAT     H182019   5.742   8.185   9.584
27259WAT     H282020   5.875   8.265   9.634
27260WAT      O82021   1.461   5.285   6.492
27260WAT     H182022   1.403   5.340   6.551
27260WAT     H282023   1.415   5.197   6.474
27261WAT      O82024   6.714   9.515   5.088
27261WAT     H182025   6.750   9.487   5.178
27261WAT     H282026   6.623   9.476   5.076
27262WAT      O82027   3.408   3.357   8.404
27262WAT     H182028   3.371   3.366   8.497
27262WAT     H282029   3.441   3.446   8.373
27263WAT      O82030   2.860   8.230   1.890
27263WAT     H182031   2.859   8.158   1.959
27263WAT     H282032   2.947   8.279   1.893
27264WAT      O82033   4.302   2.682   7.935
27264WAT     H182034   4.338   2.714   7.848
27264WAT     H282035   4.378   2.661   7.997
27265WAT      O82036   4.465   0.929   3.974
27265WAT     H182037   4.427   0.975   3.894
27265WAT     H282038   4.563   0.948   3.980
27266WAT      O82039   5.875   9.304   7.457
27266WAT     H182040   5.833   9.321   7.547
27266WAT     H282041   5.805   9.313   7.386
27267WAT      O82042   2.398   6.415   2.401
27267WAT     H182043   2.319   6.355   2.415
27267WAT     H282044   2.478   6.377   2.449
27268WAT      O82045   3.347   5.733   7.070
27268WAT     H182046   3.412   5.713   7.144
27268WAT     H282047   3.366   5.824   7.033
27269WAT      O82048   4.131   2.836   9.560
27269WAT     H182049   4.042   2.864   9.523
27269WAT     H282050   4.196   2.823   9.485
27270WAT      O82051   7.225   8.501   7.619
27270WAT     H182052   7.161   8.520   7.544
27270WAT     H282053   7.203   8.558   7.698
27271WAT      O82054   5.447   6.426   7.279
27271WAT     H182055   5.486   6.342   7.318
27271WAT     H282056   5.371   6.402   7.219
27272WAT      O82057   0.057   9.351   7.711
27272WAT     H182058  -0.032   9.336   7.754
27272WAT     H282059   0.129   9.323   7.774
27273WAT      O82060   8.011   6.346   0.159
27273WAT     H182061   8.092   6.394   0.126
27273WAT     H282062   7.932   6.372   0.104
27274WAT      O82063   4.717   6.977   2.169
27274WAT     H182064   4.788   6.986   2.099
27274WAT     H282065   4.759   6.984   2.259
27275WAT      O82066   0.188   7.163   9.409
27275WAT     H182067   0.178   7.188   9.313
27275WAT     H282068   0.284   7.171   9.436
27276WAT      O82069   0.094   5.943   8.429
27276WAT     H182070   0.009   5.893   8.444
27276WAT     H282071   0.109   5.953   8.330
27277WAT      O82072   6.698   4.938   6.638
27277WAT     H182073   6.620   4.877   6.652
27277WAT     H282074   6.740   4.917   6.550
27278WAT      O82075   1.738   9.479   1.986
27278WAT     H182076   1.827   9.510   2.020
27278WAT     H282077   1.752   9.400   1.926
27279WAT      O82078   1.208   6.093   2.356
27279WAT     H182079   1.186   6.029   2.282
27279WAT     H282080   1.195   6.186   2.323
27280WAT      O82081   9.002   5.072   3.385
27280WAT     H182082   8.920   5.031   3.345
27280WAT     H282083   8.975   5.147   3.446
27281WAT      O82084   0.195   8.585   7.826
27281WAT     H182085   0.284   8.630   7.814
27281WAT     H282086   0.147   8.627   7.903
27282WAT      O82087   1.066   4.077   2.677
27282WAT     H182088   1.004   4.006   2.647
27282WAT     H282089   1.033   4.166   2.646
27283WAT      O82090   8.560   5.625   8.867
27283WAT     H182091   8.549   5.577   8.954
27283WAT     H282092   8.640   5.685   8.871
27284WAT      O82093   3.428   6.338   0.507
27284WAT     H182094   3.525   6.356   0.525
27284WAT     H282095   3.411   6.346   0.409
27285WAT      O82096   7.057   0.819   7.142
27285WAT     H182097   7.030   0.817   7.046
27285WAT     H282098   7.003   0.888   7.191
27286WAT      O82099   4.491   6.098   0.128
27286WAT     H182100   4.542   6.140   0.204
27286WAT     H282101   4.394   6.095   0.150
27287WAT      O82102   6.991   3.304   5.918
27287WAT     H182103   7.030   3.221   5.877
27287WAT     H282104   7.065   3.368   5.938
27288WAT      O82105   7.494   2.543   8.332
27288WAT     H182106   7.552   2.564   8.410
27288WAT     H282107   7.404   2.584   8.345
27289WAT      O82108   7.504   5.090   7.922
27289WAT     H182109   7.437   5.143   7.871
27289WAT     H282110   7.517   5.001   7.878
27290WAT      O82111   4.240   4.175   8.108
27290WAT     H182112   4.246   4.103   8.178
27290WAT     H282113   4.181   4.144   8.034
27291WAT      O82114   8.059   6.243   9.726
27291WAT     H182115   8.144   6.238   9.778
27291WAT     H282116   7.991   6.182   9.767
27292WAT      O82117   4.986   4.086   7.189
27292WAT     H182118   4.922   4.023   7.146
27292WAT     H282119   4.964   4.180   7.161
27293WAT      O82120   5.312   0.690   6.302
27293WAT     H182121   5.224   0.737   6.308
27293WAT     H282122   5.372   0.739   6.239
27294WAT      O82123   2.721   8.002   5.065
27294WAT     H182124   2.815   7.971   5.069
27294WAT     H282125   2.719   8.102   5.062
27295WAT      O82126   3.744   8.724   8.326
27295WAT     H182127   3.734   8.786   8.248
27295WAT     H282128   3.820   8.661   8.308
27296WAT      O82129   7.055   2.960   9.854
27296WAT     H182130   6.974   2.935   9.908
27296WAT     H282131   7.046   3.054   9.821
27297WAT      O82132   7.715   3.735   5.258
27297WAT     H182133   7.737   3.710   5.164
27297WAT     H282134   7.663   3.661   5.301
27298WAT      O82135   0.579   2.286   1.420
27298WAT     H182136   0.624   2.372   1.444
27298WAT     H282137   0.480   2.295   1.429
27299WAT      O82138   3.338   0.028   8.784
27299WAT     H182139   3.383  -0.017   8.861
27299WAT     H282140   3.268   0.090   8.818
27300WAT      O82141   9.793   4.904   5.067
27300WAT     H182142   9.801   4.918   4.968
27300WAT     H282143   9.884   4.910   5.109
27301WAT      O82144   0.222   1.036   2.099
27301WAT     H182145   0.134   0.998   2.071
27301WAT     H282146   0.294   0.968   2.083
27302WAT      O82147   3.196   6.939   1.514
27302WAT     H182148   3.257   6.986   1.450
27302WAT     H282149   3.142   7.007   1.565
27303WAT      O82150   9.817   3.137   6.131
27303WAT     H182151   9.842   3.230   6.105
27303WAT     H282152   9.810   3.080   6.048
27304WAT      O82153   3.631   2.270   3.347
27304WAT     H182154   3.689   2.295   3.270
27304WAT     H282155   3.595   2.178   3.332
27305WAT      O82156   8.863   2.449   3.670
27305WAT     H182157   8.949   2.400   3.686
27305WAT     H282158   8.808   2.400   3.602
27306WAT      O82159   0.315   5.311   3.151
27306WAT     H182160   0.258   5.342   3.227
27306WAT     H282161   0.411   5.310   3.180
27307WAT      O82162   5.894   2.142   8.357
27307WAT     H182163   5.825   2.144   8.430
27307WAT     H282164   5.984   2.160   8.396
27308WAT      O82165   9.868   0.289   9.849
27308WAT     H182166   9.808   0.210   9.857
27308WAT     H282167   9.884   0.328   9.940
27309WAT      O82168   8.602   5.442   2.692
27309WAT     H182169   8.654   5.478   2.615
27309WAT     H282170   8.663   5.428   2.770
27310WAT      O82171   7.121   6.522   7.827
27310WAT     H182172   7.188   6.591   7.856
27310WAT     H282173   7.130   6.505   7.729
27311WAT      O82174   8.160   9.135   9.621
27311WAT     H182175   8.236   9.073   9.641
27311WAT     H282176   8.178   9.183   9.535
27312WAT      O82177   8.873   3.032   7.137
27312WAT     H182178   8.932   3.006   7.060
27312WAT     H282179   8.890   2.970   7.214
27313WAT      O82180   8.199   8.429   6.778
27313WAT     H182181   8.101   8.428   6.794
27313WAT     H282182   8.247   8.441   6.866
27314WAT      O82183   4.433   5.998   9.723
27314WAT     H182184   4.437   6.040   9.813
27314WAT     H282185   4.417   5.899   9.733
27315WAT      O82186   9.021   2.919   9.000
27315WAT     H182187   9.003   3.018   8.999
27315WAT     H282188   9.023   2.887   9.094
27316WAT      O82189   6.642   2.255   6.606
27316WAT     H182190   6.627   2.248   6.705
27316WAT     H282191   6.628   2.166   6.564
27317WAT      O82192   3.485   9.136   2.885
27317WAT     H182193   3.503   9.133   2.984
27317WAT     H282194   3.405   9.194   2.868
27318WAT      O82195   7.135   9.133   2.231
27318WAT     H182196   7.203   9.156   2.301
27318WAT     H282197   7.172   9.061   2.172
27319WAT      O82198   5.289   5.246   9.789
27319WAT     H182199   5.309   5.270   9.884
27319WAT     H282200   5.286   5.330   9.734
27320WAT      O82201   3.785   1.597   9.761
27320WAT     H182202   3.763   1.620   9.666
27320WAT     H282203   3.703   1.563   9.807
27321WAT      O82204   8.089   9.347   8.876
27321WAT     H182205   8.172   9.295   8.854
27321WAT     H282206   8.115   9.439   8.905
27322WAT      O82207   9.357   9.712   7.293
27322WAT     H182208   9.301   9.781   7.339
27322WAT     H282209   9.366   9.632   7.352
27323WAT      O82210   2.768   1.982   8.216
27323WAT     H182211   2.810   1.986   8.307
27323WAT     H282212   2.744   2.075   8.187
27324WAT      O82213   7.150   0.033   9.630
27324WAT     H182214   7.196   0.041   9.718
27324WAT     H282215   7.136  -0.064   9.608
27325WAT      O82216   4.771   9.541   1.289
27325WAT     H182217   4.727   9.624   1.322
27325WAT     H282218   4.865   9.562   1.261
27326WAT      O82219   5.622   2.737   5.916
27326WAT     H182220   5.569   2.675   5.973
27326WAT     H282221   5.640   2.821   5.967
27327WAT      O82222   2.761   3.988   9.189
27327WAT     H182223   2.771   4.087   9.193
27327WAT     H282224   2.814   3.952   9.112
27328WAT      O82225   1.844   5.639   9.731
27328WAT     H182226   1.840   5.721   9.788
27328WAT     H282227   1.814   5.661   9.639
27329WAT      O82228   1.704   3.315   1.491
27329WAT     H182229   1.656   3.398   1.464
27329WAT     H282230   1.733   3.322   1.587
27330WAT      O82231   5.713   9.229   8.181
27330WAT     H182232   5.673   9.140   8.163
27330WAT     H282233   5.651   9.301   8.150
27331WAT      O82234   6.372   9.149   2.220
27331WAT     H182235   6.290   9.139   2.277
27331WAT     H282236   6.390   9.246   2.203
27332WAT      O82237   2.345   6.617   5.356
27332WAT     H182238   2.386   6.666   5.279
27332WAT     H282239   2.379   6.523   5.357
27333WAT      O82240   9.856   4.850   7.642
27333WAT     H182241   9.840   4.890   7.551
27333WAT     H282242   9.788   4.779   7.660
27334WAT      O82243   8.806   1.919   3.293
27334WAT     H182244   8.866   1.998   3.306
27334WAT     H282245   8.841   1.842   3.346
27335WAT      O82246   7.406   1.195   9.866
27335WAT     H182247   7.497   1.159   9.845
27335WAT     H282248   7.368   1.147   9.945
27336WAT      O82249   5.011   9.780   9.753
27336WAT     H182250   4.936   9.779   9.687
27336WAT     H282251   5.098   9.764   9.706
27337WAT      O82252   1.637   8.165   4.257
27337WAT     H182253   1.660   8.261   4.244
27337WAT     H282254   1.538   8.153   4.247
27338WAT      O82255   8.371   9.622   5.125
27338WAT     H182256   8.457   9.655   5.164
27338WAT     H282257   8.301   9.694   5.134
27339WAT      O82258   9.656   8.571   1.796
27339WAT     H182259   9.643   8.619   1.709
27339WAT     H282260   9.567   8.544   1.832
27340WAT      O82261   7.333   3.845   4.359
27340WAT     H182262   7.301   3.774   4.295
27340WAT     H282263   7.282   3.929   4.343
27341WAT      O82264   2.446   3.570   8.285
27341WAT     H182265   2.493   3.500   8.232
27341WAT     H282266   2.421   3.532   8.375
27342WAT      O82267   3.258   9.116   7.133
27342WAT     H182268   3.332   9.134   7.068
27342WAT     H282269   3.170   9.117   7.085
27343WAT      O82270   2.121   3.024   3.669
27343WAT     H182271   2.073   3.051   3.752
27343WAT     H282272   2.057   2.982   3.605
27344WAT      O82273   1.268   5.451   4.596
27344WAT     H182274   1.253   5.380   4.527
27344WAT     H282275   1.201   5.525   4.584
27345WAT      O82276   9.826   1.358   7.280
27345WAT     H182277   9.802   1.275   7.229
27345WAT     H282278   9.926   1.363   7.290
27346WAT      O82279   8.375   4.321   3.515
27346WAT     H182280   8.466   4.287   3.490
27346WAT     H282281   8.329   4.252   3.572
27347WAT      O82282   2.084   8.811   7.465
27347WAT     H182283   2.096   8.712   7.463
27347WAT     H282284   2.170   8.855   7.494
27348WAT      O82285   0.445   6.382   9.436
27348WAT     H182286   0.543   6.398   9.436
27348WAT     H282287   0.427   6.285   9.456
27349WAT      O82288   8.130   2.663   3.034
27349WAT     H182289   8.075   2.644   2.952
27349WAT     H282290   8.205   2.725   3.010
27350WAT      O82291   9.516   3.054   3.151
27350WAT     H182292   9.498   3.116   3.075
27350WAT     H282293   9.430   3.012   3.181
27351WAT      O82294   8.552   9.267   1.001
27351WAT     H182295   8.586   9.185   0.955
27351WAT     H282296   8.463   9.293   0.963
27352WAT      O82297   7.292   6.953   1.413
27352WAT     H182298   7.366   6.885   1.413
27352WAT     H282299   7.308   7.018   1.338
27353WAT      O82300   5.997   3.381   0.588
27353WAT     H182301   6.021   3.343   0.678
27353WAT     H282302   5.919   3.443   0.598
27354WAT      O82303   5.597   6.650   5.650
27354WAT     H182304   5.638   6.737   5.621
27354WAT     H282305   5.507   6.640   5.609
27355WAT      O82306   7.685   4.244   0.845
27355WAT     H182307   7.734   4.310   0.903
27355WAT     H282308   7.735   4.157   0.843
27356WAT      O82309   9.311   2.968   3.998
27356WAT     H182310   9.245   2.896   4.018
27356WAT     H282311   9.373   2.937   3.926
27357WAT      O82312   1.751   5.542   6.493
27357WAT     H182313   1.731   5.467   6.430
27357WAT     H282314   1.842   5.578   6.473
27358WAT      O82315   6.369   5.910   6.477
27358WAT     H182316   6.275   5.938   6.458
27358WAT     H282317   6.383   5.904   6.576
27359WAT      O82318   6.750   2.641   5.205
27359WAT     H182319   6.739   2.701   5.126
27359WAT     H282320   6.665   2.641   5.259
27360WAT      O82321   4.504   8.813   3.010
27360WAT     H182322   4.546   8.864   3.085
27360WAT     H282323   4.541   8.721   3.007
27361WAT      O82324   5.840   1.065   7.246
27361WAT     H182325   5.827   1.055   7.344
27361WAT     H282326   5.822   0.978   7.200
27362WAT      O82327   5.098   4.117   2.940
27362WAT     H182328   5.185   4.160   2.916
27362WAT     H282329   5.116   4.026   2.978
27363WAT      O82330   7.980   9.134   7.287
27363WAT     H182331   7.921   9.133   7.206
27363WAT     H282332   7.925   9.149   7.369
27364WAT      O82333   4.573   0.271   7.922
27364WAT     H182334   4.671   0.254   7.922
27364WAT     H282335   4.526   0.195   7.968
27365WAT      O82336   5.096   5.647   3.276
27365WAT     H182337   5.036   5.608   3.206
27365WAT     H282338   5.169   5.700   3.232
27366WAT      O82339   4.869   9.051   1.682
27366WAT     H182340   4.801   9.067   1.611
27366WAT     H282341   4.857   8.959   1.719
27367WAT      O82342   2.649   7.972   1.834
27367WAT     H182343   2.597   7.886   1.829
27367WAT     H282344   2.746   7.951   1.844
27368WAT      O82345   0.221   8.661   3.254
27368WAT     H182346   0.201   8.735   3.190
27368WAT     H282347   0.214   8.573   3.207
27369WAT      O82348   5.515   7.178   8.457
27369WAT     H182349   5.427   7.226   8.455
27369WAT     H282350   5.500   7.082   8.479
27370WAT      O82351   4.468   9.464   8.251
27370WAT     H182352   4.369   9.451   8.241
27370WAT     H282353   4.486   9.544   8.308
27371WAT      O82354   2.171   7.764   8.915
27371WAT     H182355   2.261   7.806   8.898
27371WAT     H282356   2.128   7.808   8.994
27372WAT      O82357   6.412   5.566   6.866
27372WAT     H182358   6.338   5.518   6.913
27372WAT     H282359   6.411   5.541   6.769
27373WAT      O82360   2.836   0.884   5.720
27373WAT     H182361   2.758   0.822   5.706
27373WAT     H282362   2.881   0.862   5.806
27374WAT      O82363   8.444   3.173   0.334
27374WAT     H182364   8.419   3.087   0.289
27374WAT     H282365   8.529   3.208   0.294
27375WAT      O82366   0.312   6.533   6.525
27375WAT     H182367   0.234   6.514   6.465
27375WAT     H282368   0.302   6.481   6.610
27376WAT      O82369   7.142   1.852   8.444
27376WAT     H182370   7.228   1.844   8.394
27376WAT     H282371   7.103   1.943   8.428
27377WAT      O82372   0.852   4.134   6.737
27377WAT     H182373   0.781   4.169   6.675
27377WAT     H282374   0.899   4.058   6.693
27378WAT      O82375   2.836   8.943   9.796
27378WAT     H182376   2.792   8.862   9.757
27378WAT     H282377   2.862   9.005   9.722
27379WAT      O82378   9.356   2.126   0.324
27379WAT     H182379   9.322   2.047   0.272
27379WAT     H282380   9.454   2.116   0.340
27380WAT      O82381   5.300   0.727   7.840
27380WAT     H182382   5.341   0.773   7.762
27380WAT     H282383   5.210   0.692   7.815
27381WAT      O82384   4.212   7.785   2.442
27381WAT     H182385   4.141   7.730   2.486
27381WAT     H282386   4.290   7.795   2.503
27382WAT      O82387   4.375   9.052   4.346
27382WAT     H182388   4.465   9.088   4.370
27382WAT     H282389   4.369   9.039   4.247
27383WAT      O82390   8.556   9.234   7.404
27383WAT     H182391   8.464   9.255   7.440
27383WAT     H282392   8.552   9.149   7.352
27384WAT      O82393   1.739   1.012   2.339
27384WAT     H182394   1.834   1.021   2.309
27384WAT     H282395   1.718   0.915   2.355
27385WAT      O82396   1.301   5.747   9.633
27385WAT     H182397   1.283   5.668   9.691
27385WAT     H282398   1.353   5.815   9.685
27386WAT      O82399   1.220   0.628   5.144
27386WAT     H182400   1.314   0.661   5.135
27386WAT     H282401   1.172   0.640   5.057
27387WAT      O82402   4.286   3.095   8.267
27387WAT     H182403   4.255   3.177   8.314
27387WAT     H282404   4.366   3.117   8.211
27388WAT      O82405   8.429   0.565   3.560
27388WAT     H182406   8.336   0.528   3.569
27388WAT     H282407   8.494   0.490   3.550
27389WAT      O82408   4.292   5.533   0.790
27389WAT     H182409   4.309   5.451   0.845
27389WAT     H282410   4.329   5.519   0.698
27390WAT      O82411   1.622   7.706   7.299
27390WAT     H182412   1.682   7.695   7.378
27390WAT     H282413   1.619   7.802   7.271
27391WAT      O82414   2.632   2.357   6.453
27391WAT     H182415   2.660   2.406   6.370
27391WAT     H282416   2.670   2.404   6.533
27392WAT      O82417   6.378   0.998   0.375
27392WAT     H182418   6.381   1.087   0.420
27392WAT     H282419   6.325   0.934   0.431
27393WAT      O82420   9.812   7.850   5.468
27393WAT     H182421   9.798   7.920   5.398
27393WAT     H282422   9.724   7.822   5.506
27394WAT      O82423   2.190   7.288   3.695
27394WAT     H182424   2.257   7.361   3.711
27394WAT     H282425   2.125   7.318   3.624
27395WAT      O82426   0.904   6.572   7.409
27395WAT     H182427   0.899   6.482   7.451
27395WAT     H282428   0.883   6.564   7.311
27396WAT      O82429   4.644   7.228   4.251
27396WAT     H182430   4.726   7.238   4.194
27396WAT     H282431   4.663   7.266   4.342
27397WAT      O82432   9.632   2.820   0.590
27397WAT     H182433   9.655   2.824   0.492
27397WAT     H282434   9.692   2.881   0.641
27398WAT      O82435   7.036   8.180   4.805
27398WAT     H182436   6.974   8.103   4.821
27398WAT     H282437   7.091   8.196   4.887
27399WAT      O82438   7.969   0.747   4.792
27399WAT     H182439   8.005   0.783   4.707
27399WAT     H282440   7.951   0.649   4.782
27400WAT      O82441   1.760   0.910   8.509
27400WAT     H182442   1.803   0.957   8.587
27400WAT     H282443   1.823   0.843   8.471
27401WAT      O82444   3.718   4.339   9.231
27401WAT     H182445   3.798   4.366   9.177
27401WAT     H282446   3.641   4.399   9.209
27402WAT      O82447   1.989   9.737   3.788
27402WAT     H182448   2.020   9.778   3.702
27402WAT     H282449   2.043   9.773   3.863
27403WAT      O82450   9.579   6.151   4.128
27403WAT     H182451   9.629   6.068   4.102
27403WAT     H282452   9.629   6.199   4.200
27404WAT      O82453   0.628   9.412   1.260
27404WAT     H182454   0.578   9.377   1.340
27404WAT     H282455   0.631   9.341   1.190
27405WAT      O82456   5.554   7.308   0.716
27405WAT     H182457   5.603   7.315   0.629
27405WAT     H282458   5.500   7.224   0.718
27406WAT      O82459   6.112   0.460   8.742
27406WAT     H182460   6.037   0.394   8.751
27406WAT     H282461   6.083   0.536   8.683
27407WAT      O82462   0.799   1.657   7.999
27407WAT     H182463   0.820   1.705   7.914
27407WAT     H282464   0.722   1.701   8.045
27408WAT      O82465   1.216   5.967   6.452
27408WAT     H182466   1.275   5.943   6.375
27408WAT     H282467   1.270   5.965   6.537
27409WAT      O82468   5.160   0.714   5.069
27409WAT     H182469   5.068   0.722   5.106
27409WAT     H282470   5.216   0.790   5.101
27410WAT      O82471   4.622   1.317   3.319
27410WAT     H182472   4.653   1.371   3.398
27410WAT     H282473   4.672   1.346   3.238
27411WAT      O82474   7.147   0.215   6.261
27411WAT     H182475   7.142   0.137   6.323
27411WAT     H282476   7.178   0.183   6.171
27412WAT      O82477   5.655   5.153   6.002
27412WAT     H182478   5.626   5.101   5.921
27412WAT     H282479   5.634   5.100   6.084
27413WAT      O82480   3.849   4.719   6.298
27413WAT     H182481   3.754   4.728   6.268
27413WAT     H282482   3.873   4.622   6.305
27414WAT      O82483   9.616   1.150   6.461
27414WAT     H182484   9.591   1.105   6.375
27414WAT     H282485   9.700   1.203   6.447
27415WAT      O82486   8.786   2.380   4.340
27415WAT     H182487   8.757   2.409   4.431
27415WAT     H282488   8.740   2.436   4.271
27416WAT      O82489   9.293   6.876   9.231
27416WAT     H182490   9.249   6.964   9.249
27416WAT     H282491   9.305   6.826   9.318
27417WAT      O82492   1.273   5.592   3.051
27417WAT     H182493   1.275   5.532   2.971
27417WAT     H282494   1.367   5.619   3.074
27418WAT      O82495   3.522   1.254   6.029
27418WAT     H182496   3.576   1.278   6.109
27418WAT     H282497   3.529   1.326   5.961
27419WAT      O82498   8.949   2.780   0.444
27419WAT     H182499   9.033   2.752   0.397
27419WAT     H282500   8.910   2.859   0.398
27420WAT      O82501   3.870   6.768   5.207
27420WAT     H182502   3.879   6.779   5.306
27420WAT     H282503   3.824   6.681   5.187
27421WAT      O82504   0.522   1.192   1.570
27421WAT     H182505   0.489   1.219   1.480
27421WAT     H282506   0.478   1.106   1.597
27422WAT      O82507   6.138   3.042   8.326
27422WAT     H182508   6.063   3.106   8.344
27422WAT     H282509   6.148   3.030   8.227
27423WAT      O82510   0.568   0.842   0.790
27423WAT     H182511   0.616   0.877   0.710
27423WAT     H282512   0.559   0.742   0.781
27424WAT      O82513   7.736   4.577   6.085
27424WAT     H182514   7.827   4.586   6.125
27424WAT     H282515   7.708   4.481   6.087
27425WAT      O82516   6.143   0.237   4.957
27425WAT     H182517   6.170   0.301   4.885
27425WAT     H282518   6.093   0.286   5.028
27426WAT      O82519   9.123   1.803   6.947
27426WAT     H182520   9.035   1.769   6.913
27426WAT     H282521   9.117   1.820   7.046
27427WAT      O82522   2.148   1.044   2.643
27427WAT     H182523   2.130   0.945   2.639
27427WAT     H282524   2.239   1.060   2.680
27428WAT      O82525   3.387   2.776   6.416
27428WAT     H182526   3.447   2.855   6.403
27428WAT     H282527   3.401   2.738   6.507
27429WAT      O82528   1.836   1.948   1.940
27429WAT     H182529   1.916   2.007   1.930
27429WAT     H282530   1.846   1.890   2.021
27430WAT      O82531   0.462   5.115   6.576
27430WAT     H182532   0.380   5.058   6.585
27430WAT     H282533   0.543   5.059   6.595
27431WAT      O82534   5.380   8.251   5.712
27431WAT     H182535   5.357   8.155   5.696
27431WAT     H282536   5.401   8.295   5.624
27432WAT      O82537   2.151   9.565   1.782
27432WAT     H182538   2.209   9.642   1.756
27432WAT     H282539   2.063   9.599   1.815
27433WAT      O82540   2.725   8.465   9.233
27433WAT     H182541   2.780   8.452   9.316
27433WAT     H282542   2.632   8.492   9.259
27434WAT      O82543   7.086   5.681   4.069
27434WAT     H182544   7.184   5.662   4.074
27434WAT     H282545   7.055   5.718   4.157
27435WAT      O82546   0.946   5.376   8.972
27435WAT     H182547   0.967   5.405   8.878
27435WAT     H282548   0.936   5.457   9.030
27436WAT      O82549   9.500   5.862   8.992
27436WAT     H182550   9.403   5.876   8.975
27436WAT     H282551   9.552   5.885   8.910
27437WAT      O82552   8.233   4.890   1.642
27437WAT     H182553   8.189   4.841   1.568
27437WAT     H282554   8.243   4.829   1.721
27438WAT      O82555   7.440   6.029   5.078
27438WAT     H182556   7.412   6.000   4.986
27438WAT     H282557   7.393   6.114   5.101
27439WAT      O82558   0.666   4.099   3.277
27439WAT     H182559   0.710   4.009   3.282
27439WAT     H282560   0.566   4.087   3.276
27440WAT      O82561   1.800   7.977   7.656
27440WAT     H182562   1.734   7.913   7.617
27440WAT     H282563   1.773   8.000   7.749
27441WAT      O82564   3.783   7.394   5.679
27441WAT     H182565   3.877   7.409   5.709
27441WAT     H282566   3.726   7.471   5.706
27442WAT      O82567   3.192   6.849   6.158
27442WAT     H182568   3.167   6.863   6.254
27442WAT     H282569   3.214   6.937   6.116
27443WAT      O82570   5.996   3.574   4.504
27443WAT     H182571   6.033   3.507   4.568
27443WAT     H282572   5.910   3.610   4.539
27444WAT      O82573   1.199   2.770   6.806
27444WAT     H182574   1.250   2.736   6.727
27444WAT     H282575   1.129   2.704   6.832
27445WAT      O82576   1.197   3.440   9.084
27445WAT     H182577   1.214   3.344   9.105
27445WAT     H282578   1.257   3.498   9.138
27446WAT      O82579   1.034   2.017   3.273
27446WAT     H182580   1.084   1.954   3.333
27446WAT     H282581   1.097   2.085   3.236
27447WAT      O82582   7.173   7.101   9.233
27447WAT     H182583   7.105   7.077   9.164
27447WAT     H282584   7.180   7.201   9.239
27448WAT      O82585   9.568   2.380   5.344
27448WAT     H182586   9.520   2.302   5.384
27448WAT     H282587   9.511   2.461   5.349
27449WAT      O82588   2.109   6.552   4.139
27449WAT     H182589   2.207   6.562   4.155
27449WAT     H282590   2.060   6.625   4.186
27450WAT      O82591   5.731   5.495   4.885
27450WAT     H182592   5.712   5.448   4.971
27450WAT     H282593   5.774   5.432   4.821
27451WAT      O82594   2.484   9.181   8.407
27451WAT     H182595   2.417   9.202   8.336
27451WAT     H282596   2.545   9.259   8.420
27452WAT      O82597   0.770   0.443   1.418
27452WAT     H182598   0.772   0.360   1.474
27452WAT     H282599   0.755   0.418   1.323
27453WAT      O82600   7.403   3.002   6.680
27453WAT     H182601   7.442   3.048   6.600
27453WAT     H282602   7.359   3.070   6.739
27454WAT      O82603   7.697   9.117   4.003
27454WAT     H182604   7.630   9.145   3.935
27454WAT     H282605   7.679   9.022   4.031
27455WAT      O82606   6.708   7.391   7.842
27455WAT     H182607   6.726   7.449   7.921
27455WAT     H282608   6.793   7.370   7.795
27456WAT      O82609   7.945   1.054   7.166
27456WAT     H182610   7.850   1.056   7.135
27456WAT     H282611   7.948   1.024   7.261
27457WAT      O82612   8.072   0.605   8.669
27457WAT     H182613   7.987   0.561   8.638
27457WAT     H282614   8.143   0.535   8.681
27458WAT      O82615   6.144   0.953   0.908
27458WAT     H182616   6.162   0.864   0.868
27458WAT     H282617   6.231   1.002   0.922
27459WAT      O82618   3.932   8.369   8.040
27459WAT     H182619   3.851   8.419   8.010
27459WAT     H282620   4.006   8.434   8.059
27460WAT      O82621   6.344   1.321   2.146
27460WAT     H182622   6.295   1.345   2.230
27460WAT     H282623   6.312   1.378   2.071
27461WAT      O82624   8.023   4.242   6.233
27461WAT     H182625   8.000   4.195   6.148
27461WAT     H282626   7.942   4.251   6.290
27462WAT      O82627   6.319   1.354   7.204
27462WAT     H182628   6.286   1.269   7.245
27462WAT     H282629   6.250   1.390   7.142
27463WAT      O82630   2.648   0.254   8.755
27463WAT     H182631   2.624   0.318   8.682
27463WAT     H282632   2.715   0.189   8.722
27464WAT      O82633   7.429   1.508   6.819
27464WAT     H182634   7.395   1.429   6.768
27464WAT     H282635   7.489   1.563   6.760
27465WAT      O82636   4.851   4.088   9.306
27465WAT     H182637   4.777   4.121   9.247
27465WAT     H282638   4.939   4.115   9.266
27466WAT      O82639   7.267   8.663   1.444
27466WAT     H182640   7.331   8.594   1.477
27466WAT     H282641   7.209   8.624   1.373
27467WAT      O82642   4.431   8.913   4.856
27467WAT     H182643   4.353   8.968   4.823
27467WAT     H282644   4.400   8.820   4.875
27468WAT      O82645   3.555   9.192   5.306
27468WAT     H182646   3.601   9.270   5.262
27468WAT     H282647   3.570   9.110   5.252
27469WAT      O82648   2.620   6.314   4.889
27469WAT     H182649   2.705   6.367   4.896
27469WAT     H282650   2.543   6.370   4.919
27470WAT      O82651   7.856   9.759   2.065
27470WAT     H182652   7.905   9.780   1.980
27470WAT     H282653   7.840   9.844   2.115
27471WAT      O82654   9.337   0.028   3.800
27471WAT     H182655   9.256  -0.019   3.765
27471WAT     H282656   9.368  -0.017   3.883
27472WAT      O82657   1.370   3.913   7.044
27472WAT     H182658   1.325   3.867   7.121
27472WAT     H282659   1.428   3.848   6.995
27473WAT      O82660   1.464   1.683   8.410
27473WAT     H182661   1.563   1.685   8.396
27473WAT     H282662   1.425   1.608   8.356
27474WAT      O82663   5.492   5.290   4.034
27474WAT     H182664   5.422   5.266   3.966
27474WAT     H282665   5.529   5.206   4.074
27475WAT      O82666   6.184   3.636   3.196
27475WAT     H182667   6.159   3.676   3.284
27475WAT     H282668   6.200   3.708   3.129
27476WAT      O82669   4.050   6.122   9.184
27476WAT     H182670   4.129   6.156   9.132
27476WAT     H282671   3.966   6.158   9.145
27477WAT      O82672   3.112   3.676   9.204
27477WAT     H182673   3.087   3.688   9.300
27477WAT     H282674   3.204   3.637   9.198
27478WAT      O82675   1.423   7.214   5.044
27478WAT     H182676   1.425   7.310   5.015
27478WAT     H282677   1.511   7.171   5.025
27479WAT      O82678   5.268   6.109   8.061
27479WAT     H182679   5.345   6.046   8.045
27479WAT     H282680   5.301   6.190   8.110
27480WAT      O82681   0.392   6.815   4.306
27480WAT     H182682   0.295   6.816   4.282
27480WAT     H282683   0.405   6.858   4.395
27481WAT      O82684   1.449   1.902   4.245
27481WAT     H182685   1.458   1.892   4.344
27481WAT     H282686   1.355   1.884   4.218
27482WAT      O82687   6.810   5.885   0.945
27482WAT     H182688   6.735   5.867   1.008
27482WAT     H282689   6.890   5.832   0.973
27483WAT      O82690   0.063   1.200   8.736
27483WAT     H182691   0.090   1.153   8.652
27483WAT     H282692   0.107   1.156   8.814
27484WAT      O82693   6.262   4.889   6.866
27484WAT     H182694   6.184   4.875   6.806
27484WAT     H282695   6.304   4.801   6.887
27485WAT      O82696   6.692   3.702   7.453
27485WAT     H182697   6.623   3.643   7.495
27485WAT     H282698   6.772   3.647   7.429
27486WAT      O82699   0.173   7.126   2.860
27486WAT     H182700   0.226   7.088   2.784
27486WAT     H282701   0.090   7.072   2.873
27487WAT      O82702   9.029   9.643   1.786
27487WAT     H182703   8.992   9.672   1.697
27487WAT     H282704   9.094   9.569   1.772
27488WAT      O82705   2.062   4.680   1.501
27488WAT     H182706   2.159   4.688   1.480
27488WAT     H282707   2.041   4.586   1.527
27489WAT      O82708   4.732   8.848   0.295
27489WAT     H182709   4.683   8.814   0.215
27489WAT     H282710   4.830   8.849   0.276
27490WAT      O82711   5.229   3.828   0.519
27490WAT     H182712   5.272   3.858   0.604
27490WAT     H282713   5.274   3.746   0.485
27491WAT      O82714   4.480   0.381   6.208
27491WAT     H182715   4.507   0.460   6.152
27491WAT     H282716   4.532   0.381   6.293
27492WAT      O82717   8.290   5.946   8.523
27492WAT     H182718   8.329   5.856   8.503
27492WAT     H282719   8.204   5.956   8.473
27493WAT      O82720   5.038   0.462   0.412
27493WAT     H182721   5.136   0.456   0.394
27493WAT     H282722   5.016   0.554   0.446
27494WAT      O82723   6.208   8.436   7.607
27494WAT     H182724   6.126   8.454   7.662
27494WAT     H282725   6.274   8.510   7.621
27495WAT      O82726   2.738   8.552   6.786
27495WAT     H182727   2.826   8.505   6.782
27495WAT     H282728   2.719   8.595   6.698
27496WAT      O82729   9.108   3.086   4.986
27496WAT     H182730   9.197   3.047   4.964
27496WAT     H282731   9.082   3.152   4.915
27497WAT      O82732   4.915   1.014   6.192
27497WAT     H182733   4.885   0.949   6.122
27497WAT     H282734   4.843   1.082   6.208
27498WAT      O82735   6.491   2.468   7.643
27498WAT     H182736   6.506   2.369   7.646
27498WAT     H282737   6.414   2.492   7.702
27499WAT      O82738   3.349   6.233   7.391
27499WAT     H182739   3.432   6.265   7.437
27499WAT     H282740   3.330   6.293   7.314
27500WAT      O82741   4.672   4.946   3.325
27500WAT     H182742   4.750   5.005   3.346
27500WAT     H282743   4.588   4.992   3.353
27501WAT      O82744   7.391   6.163   8.272
27501WAT     H182745   7.343   6.177   8.358
27501WAT     H282746   7.470   6.224   8.268
27502WAT      O82747   2.338   6.486   3.340
27502WAT     H182748   2.352   6.391   3.314
27502WAT     H282749   2.378   6.502   3.430
27503WAT      O82750   1.999   6.723   8.334
27503WAT     H182751   1.943   6.697   8.413
27503WAT     H282752   2.010   6.822   8.332
27504WAT      O82753   5.536   9.088   6.276
27504WAT     H182754   5.593   9.074   6.357
27504WAT     H282755   5.497   9.180   6.279
27505WAT      O82756   5.105   2.290   7.902
27505WAT     H182757   5.174   2.362   7.914
27505WAT     H282758   5.134   2.208   7.950
27506WAT      O82759   8.974   5.173   3.845
27506WAT     H182760   8.962   5.230   3.764
27506WAT     H282761   9.053   5.114   3.832
27507WAT      O82762   9.445   7.470   8.109
27507WAT     H182763   9.504   7.548   8.132
27507WAT     H282764   9.482   7.387   8.150
27508WAT      O82765   9.358   0.225   8.186
27508WAT     H182766   9.323   0.319   8.186
27508WAT     H282767   9.307   0.170   8.119
27509WAT      O82768   4.750   2.332   4.230
27509WAT     H182769   4.825   2.391   4.203
27509WAT     H282770   4.721   2.355   4.322
27510WAT      O82771   1.514   5.126   3.728
27510WAT     H182772   1.455   5.206   3.742
27510WAT     H282773   1.555   5.130   3.637
27511WAT      O82774   2.112   3.755   6.201
27511WAT     H182775   2.101   3.682   6.134
27511WAT     H282776   2.209   3.766   6.224
27512WAT      O82777   4.546   5.823   1.687
27512WAT     H182778   4.529   5.814   1.589
27512WAT     H282779   4.461   5.811   1.737
27513WAT      O82780   5.562   0.956   6.997
27513WAT     H182781   5.649   0.935   7.041
27513WAT     H282782   5.514   1.026   7.050
27514WAT      O82783   4.765   4.146   7.864
27514WAT     H182784   4.834   4.136   7.936
27514WAT     H282785   4.673   4.142   7.905
27515WAT      O82786   8.623   8.473   9.190
27515WAT     H182787   8.705   8.440   9.237
27515WAT     H282788   8.571   8.533   9.252
27516WAT      O82789   1.872   0.790   3.453
27516WAT     H182790   1.901   0.696   3.473
27516WAT     H282791   1.788   0.810   3.504
27517WAT      O82792   7.986   9.455   4.499
27517WAT     H182793   7.952   9.365   4.471
27517WAT     H282794   7.924   9.525   4.464
27518WAT      O82795   7.267   4.123   9.066
27518WAT     H182796   7.251   4.032   9.103
27518WAT     H282797   7.263   4.120   8.966
27519WAT      O82798   9.508   6.699   6.814
27519WAT     H182799   9.497   6.786   6.766
27519WAT     H282800   9.573   6.711   6.890
27520WAT      O82801   0.490   0.577   0.819
27520WAT     H182802   0.503   0.564   0.917
27520WAT     H282803   0.557   0.522   0.769
27521WAT      O82804   3.236   2.338   1.468
27521WAT     H182805   3.317   2.289   1.438
27521WAT     H282806   3.250   2.436   1.456
27522WAT      O82807   2.423   8.761   5.969
27522WAT     H182808   2.330   8.760   5.934
27522WAT     H282809   2.486   8.727   5.899
27523WAT      O82810   3.428   2.092   7.161
27523WAT     H182811   3.424   2.141   7.074
27523WAT     H282812   3.478   2.006   7.149
27524WAT      O82813   6.238   0.221   8.928
27524WAT     H182814   6.234   0.175   8.839
27524WAT     H282815   6.282   0.311   8.917
27525WAT      O82816   7.739   1.462   5.065
27525WAT     H182817   7.731   1.462   5.165
27525WAT     H282818   7.767   1.553   5.034
27526WAT      O82819   2.662   4.395   6.640
27526WAT     H182820   2.684   4.414   6.544
27526WAT     H282821   2.638   4.299   6.649
27527WAT      O82822   4.671   8.650   5.118
27527WAT     H182823   4.627   8.597   5.190
27527WAT     H282824   4.757   8.606   5.092
27528WAT      O82825   4.970   0.359   3.577
27528WAT     H182826   5.050   0.304   3.554
27528WAT     H282827   4.964   0.438   3.515
27529WAT      O82828   1.745   9.491   0.599
27529WAT     H182829   1.835   9.460   0.569
27529WAT     H282830   1.674   9.431   0.560
27530WAT      O82831   9.148   0.936   6.083
27530WAT     H182832   9.184   1.029   6.083
27530WAT     H282833   9.224   0.871   6.081
27531WAT      O82834   0.898   6.308   2.125
27531WAT     H182835   0.936   6.286   2.035
27531WAT     H282836   0.842   6.232   2.157
27532WAT      O82837   8.764   3.898   4.400
27532WAT     H182838   8.802   3.952   4.324
27532WAT     H282839   8.701   3.955   4.453
27533WAT      O82840   7.110   6.605   2.328
27533WAT     H182841   7.146   6.664   2.256
27533WAT     H282842   7.186   6.567   2.381
27534WAT      O82843   9.649   4.361   4.264
27534WAT     H182844   9.744   4.352   4.294
27534WAT     H282845   9.592   4.390   4.342
27535WAT      O82846   8.749   7.635   8.129
27535WAT     H182847   8.660   7.680   8.126
27535WAT     H282848   8.819   7.702   8.152
27536WAT      O82849   6.547   4.339   6.685
27536WAT     H182850   6.466   4.355   6.629
27536WAT     H282851   6.530   4.373   6.778
27537WAT      O82852   2.369   6.029   3.650
27537WAT     H182853   2.304   6.076   3.710
27537WAT     H282854   2.404   6.093   3.581
27538WAT      O82855   4.286   9.367   9.090
27538WAT     H182856   4.327   9.458   9.098
27538WAT     H282857   4.257   9.352   8.996
27539WAT      O82858   7.787   8.816   3.794
27539WAT     H182859   7.714   8.855   3.738
27539WAT     H282860   7.876   8.841   3.755
27540WAT      O82861  -0.001   9.428   9.503
27540WAT     H182862   0.079   9.483   9.476
27540WAT     H282863   0.017   9.332   9.485
27541WAT      O82864   0.462   2.821   1.086
27541WAT     H182865   0.435   2.915   1.109
27541WAT     H282866   0.487   2.773   1.170
27542WAT      O82867   3.812   3.863   0.760
27542WAT     H182868   3.762   3.903   0.836
27542WAT     H282869   3.809   3.763   0.767
27543WAT      O82870   6.287   8.331   4.916
27543WAT     H182871   6.269   8.388   4.836
27543WAT     H282872   6.311   8.239   4.886
27544WAT      O82873   5.522   2.352   0.012
27544WAT     H182874   5.485   2.417   0.079
27544WAT     H282875   5.449   2.292  -0.019
27545WAT      O82876   5.421   6.852   4.918
27545WAT     H182877   5.386   6.946   4.925
27545WAT     H282878   5.457   6.837   4.826
27546WAT      O82879   8.971   7.492   9.565
27546WAT     H182880   9.063   7.460   9.545
27546WAT     H282881   8.937   7.548   9.489
27547WAT      O82882   4.405   3.560   6.505
27547WAT     H182883   4.339   3.555   6.580
27547WAT     H282884   4.475   3.489   6.517
27548WAT      O82885   1.744   7.967   1.485
27548WAT     H182886   1.677   8.041   1.482
27548WAT     H282887   1.753   7.927   1.394
27549WAT      O82888   8.091   5.159   8.525
27549WAT     H182889   8.057   5.067   8.543
27549WAT     H282890   8.048   5.195   8.442
27550WAT      O82891   1.078   6.056   5.922
27550WAT     H182892   1.173   6.058   5.891
27550WAT     H282893   1.061   5.970   5.970
27551WAT      O82894   1.559   4.121   3.326
27551WAT     H182895   1.644   4.069   3.323
27551WAT     H282896   1.564   4.189   3.399
27552WAT      O82897   6.717   7.138   0.601
27552WAT     H182898   6.718   7.208   0.673
27552WAT     H282899   6.659   7.062   0.629
27553WAT      O82900   7.977   6.924   4.822
27553WAT     H182901   8.070   6.892   4.803
27553WAT     H282902   7.968   7.020   4.794
27554WAT      O82903   7.868   8.591   3.652
27554WAT     H182904   7.834   8.659   3.717
27554WAT     H282905   7.847   8.621   3.559
27555WAT      O82906   6.494   2.494   3.583
27555WAT     H182907   6.490   2.543   3.496
27555WAT     H282908   6.563   2.538   3.642
27556WAT      O82909   1.197   9.792   1.980
27556WAT     H182910   1.197   9.710   2.038
27556WAT     H282911   1.103   9.823   1.965
27557WAT      O82912   9.740   5.310   5.057
27557WAT     H182913   9.693   5.398   5.055
27557WAT     H282914   9.677   5.239   5.090
27558WAT      O82915   9.617   9.065   3.512
27558WAT     H182916   9.685   9.097   3.578
27558WAT     H282917   9.651   8.982   3.467
27559WAT      O82918   7.956   7.430   7.645
27559WAT     H182919   7.907   7.505   7.601
27559WAT     H282920   8.030   7.399   7.584
27560WAT      O82921   1.307   4.598   5.755
27560WAT     H182922   1.217   4.574   5.791
27560WAT     H282923   1.353   4.661   5.818
27561WAT      O82924   7.500   8.515   8.946
27561WAT     H182925   7.502   8.425   8.989
27561WAT     H282926   7.406   8.548   8.941
27562WAT      O82927   6.527   1.668   2.788
27562WAT     H182928   6.460   1.687   2.716
27562WAT     H282929   6.482   1.619   2.863
27563WAT      O82930   8.081   2.744   5.817
27563WAT     H182931   8.056   2.678   5.747
27563WAT     H282932   8.155   2.802   5.784
27564WAT      O82933   1.212   5.221   3.501
27564WAT     H182934   1.174   5.261   3.584
27564WAT     H282935   1.147   5.155   3.463
27565WAT      O82936   3.712   0.618   6.837
27565WAT     H182937   3.665   0.658   6.758
27565WAT     H282938   3.646   0.570   6.894
27566WAT      O82939   1.391   6.598   4.761
27566WAT     H182940   1.441   6.534   4.819
27566WAT     H282941   1.431   6.597   4.669
27567WAT      O82942   1.130   4.040   7.380
27567WAT     H182943   1.221   4.010   7.351
27567WAT     H282944   1.074   4.059   7.299
27568WAT      O82945   7.609   6.153   7.687
27568WAT     H182946   7.678   6.222   7.668
27568WAT     H282947   7.520   6.197   7.702
27569WAT      O82948   0.776   5.110   4.200
27569WAT     H182949   0.703   5.071   4.256
27569WAT     H282950   0.803   5.198   4.238
27570WAT      O82951   1.934   1.015   8.713
27570WAT     H182952   1.958   1.026   8.810
27570WAT     H282953   1.991   0.944   8.672
27571WAT      O82954   6.549   2.605   2.870
27571WAT     H182955   6.591   2.681   2.821
27571WAT     H282956   6.596   2.590   2.956
27572WAT      O82957   0.637   9.136   5.292
27572WAT     H182958   0.702   9.072   5.251
27572WAT     H282959   0.545   9.118   5.257
27573WAT      O82960   0.580   1.062   8.466
27573WAT     H182961   0.656   1.127   8.471
27573WAT     H282962   0.545   1.059   8.372
27574WAT      O82963   5.163   2.068   0.336
27574WAT     H182964   5.167   2.049   0.238
27574WAT     H282965   5.142   2.164   0.351
27575WAT      O82966   4.732   4.426   7.851
27575WAT     H182967   4.795   4.484   7.903
27575WAT     H282968   4.747   4.330   7.875
27576WAT      O82969   1.470   3.252   9.738
27576WAT     H182970   1.558   3.265   9.783
27576WAT     H282971   1.398   3.295   9.793
27577WAT      O82972   0.754   7.735   9.870
27577WAT     H182973   0.684   7.673   9.834
27577WAT     H282974   0.820   7.684   9.924
27578WAT      O82975   4.856   3.213   9.369
27578WAT     H182976   4.872   3.171   9.459
27578WAT     H282977   4.766   3.185   9.335
27579WAT      O82978   8.400   7.959   4.960
27579WAT     H182979   8.365   8.012   5.038
27579WAT     H282980   8.354   7.871   4.956
27580WAT      O82981   6.317   5.516   6.595
27580WAT     H182982   6.227   5.473   6.603
27580WAT     H282983   6.328   5.555   6.504
27581WAT      O82984   9.701   7.573   0.600
27581WAT     H182985   9.635   7.626   0.546
27581WAT     H282986   9.677   7.476   0.595
27582WAT      O82987   8.134   0.292   0.237
27582WAT     H182988   8.195   0.298   0.157
27582WAT     H282989   8.043   0.263   0.207
27583WAT      O82990   0.397   0.516   3.776
27583WAT     H182991   0.470   0.557   3.721
27583WAT     H282992   0.323   0.486   3.716
27584WAT      O82993   5.193   6.210   4.948
27584WAT     H182994   5.245   6.227   5.032
27584WAT     H282995   5.095   6.210   4.968
27585WAT      O82996   8.290   8.069   8.709
27585WAT     H182997   8.333   7.979   8.704
27585WAT     H282998   8.351   8.131   8.759
27586WAT      O82999   6.161   6.440   7.782
27586WAT     H183000   6.111   6.491   7.712
27586WAT     H283001   6.154   6.342   7.763
27587WAT      O83002   4.211   1.500   5.540
27587WAT     H183003   4.203   1.568   5.613
27587WAT     H283004   4.130   1.443   5.539
27588WAT      O83005   9.099   6.455   8.650
27588WAT     H183006   9.023   6.466   8.714
27588WAT     H283007   9.168   6.395   8.690
27589WAT      O83008   0.893   6.107   8.018
27589WAT     H183009   0.848   6.079   8.104
27589WAT     H283010   0.948   6.031   7.984
27590WAT      O83011   4.773   4.759   3.561
27590WAT     H183012   4.793   4.788   3.467
27590WAT     H283013   4.851   4.707   3.597
27591WAT      O83014   3.585   5.041   1.056
27591WAT     H183015   3.660   5.104   1.077
27591WAT     H283016   3.499   5.091   1.054
27592WAT      O83017   8.318   5.022   6.379
27592WAT     H183018   8.262   5.085   6.431
27592WAT     H283019   8.259   4.954   6.334
27593WAT      O83020   1.088   0.435   0.853
27593WAT     H183021   1.013   0.500   0.864
27593WAT     H283022   1.157   0.453   0.923
27594WAT      O83023   4.976   4.154   0.325
27594WAT     H183024   5.014   4.241   0.357
27594WAT     H283025   4.876   4.160   0.324
27595WAT      O83026   4.037   1.483   8.386
27595WAT     H183027   4.035   1.555   8.454
27595WAT     H283028   4.012   1.520   8.297
27596WAT      O83029   3.176   2.224   4.597
27596WAT     H183030   3.122   2.225   4.513
27596WAT     H283031   3.238   2.145   4.596
27597WAT      O83032   0.031   6.627   6.813
27597WAT     H183033  -0.013   6.693   6.752
27597WAT     H283034   0.128   6.649   6.822
27598WAT      O83035   1.438   0.761   2.999
27598WAT     H183036   1.411   0.690   3.065
27598WAT     H283037   1.538   0.765   2.993
27599WAT      O83038   1.918   7.051   7.250
27599WAT     H183039   1.882   7.104   7.174
27599WAT     H283040   1.934   6.957   7.220
27600WAT      O83041   4.075   1.902   4.373
27600WAT     H183042   4.030   1.826   4.326
27600WAT     H283043   4.085   1.978   4.309
27601WAT      O83044   0.606   5.892   4.938
27601WAT     H183045   0.684   5.861   4.992
27601WAT     H283046   0.627   5.979   4.895
27602WAT      O83047   2.721   4.965   5.024
27602WAT     H183048   2.670   5.039   5.069
27602WAT     H283049   2.799   5.004   4.974
27603WAT      O83050   2.501   2.886   6.418
27603WAT     H183051   2.490   2.787   6.419
27603WAT     H283052   2.585   2.911   6.467
27604WAT      O83053   4.220   0.100   0.357
27604WAT     H183054   4.195   0.053   0.441
27604WAT     H283055   4.289   0.046   0.309
27605WAT      O83056   2.036   8.409   0.363
27605WAT     H183057   2.097   8.410   0.442
27605WAT     H283058   1.985   8.323   0.361
27606WAT      O83059   8.780   5.840   2.669
27606WAT     H183060   8.701   5.836   2.608
27606WAT     H283061   8.857   5.793   2.627
27607WAT      O83062   2.670   3.449   3.859
27607WAT     H183063   2.678   3.423   3.763
27607WAT     H283064   2.755   3.490   3.891
27608WAT      O83065   5.841   8.747   4.084
27608WAT     H183066   5.759   8.725   4.031
27608WAT     H283067   5.840   8.696   4.170
27609WAT      O83068   8.821   8.937   0.968
27609WAT     H183069   8.806   8.848   1.012
27609WAT     H283070   8.831   9.007   1.037
27610WAT      O83071   7.588   6.499   0.726
27610WAT     H183072   7.570   6.596   0.710
27610WAT     H283073   7.521   6.462   0.791
27611WAT      O83074   8.636   1.367   9.007
27611WAT     H183075   8.559   1.341   9.065
27611WAT     H283076   8.704   1.417   9.062
27612WAT      O83077   8.905   7.534   2.827
27612WAT     H183078   8.909   7.490   2.737
27612WAT     H283079   8.916   7.633   2.816
27613WAT      O83080   5.289   9.078   3.565
27613WAT     H183081   5.299   9.133   3.482
27613WAT     H283082   5.378   9.073   3.612
27614WAT      O83083   9.136   1.028   1.409
27614WAT     H183084   9.080   0.953   1.445
27614WAT     H283085   9.077   1.105   1.385
27615WAT      O83086   7.034   8.626   5.542
27615WAT     H183087   7.004   8.615   5.448
27615WAT     H283088   7.110   8.564   5.560
27616WAT      O83089   3.665   1.280   3.392
27616WAT     H183090   3.724   1.227   3.452
27616WAT     H283091   3.573   1.284   3.430
27617WAT      O83092   6.659   4.678   9.228
27617WAT     H183093   6.716   4.600   9.253
27617WAT     H283094   6.636   4.729   9.311
27618WAT      O83095   6.153   5.810   1.789
27618WAT     H183096   6.069   5.758   1.772
27618WAT     H283097   6.179   5.800   1.885
27619WAT      O83098   8.041   2.029   4.035
27619WAT     H183099   8.076   2.072   3.951
27619WAT     H283100   7.951   1.989   4.017
27620WAT      O83101   8.519   0.304   0.607
27620WAT     H183102   8.494   0.247   0.685
27620WAT     H283103   8.504   0.401   0.630
27621WAT      O83104   2.760   7.566   6.525
27621WAT     H183105   2.732   7.655   6.559
27621WAT     H283106   2.687   7.500   6.540
27622WAT      O83107   8.168   0.166   6.114
27622WAT     H183108   8.174   0.211   6.204
27622WAT     H283109   8.185   0.068   6.124
27623WAT      O83110   3.655   2.831   5.286
27623WAT     H183111   3.705   2.763   5.232
27623WAT     H283112   3.596   2.884   5.225
27624WAT      O83113   1.293   6.135   1.051
27624WAT     H183114   1.233   6.200   1.004
27624WAT     H283115   1.385   6.173   1.057
27625WAT      O83116   2.842   1.361   9.128
27625WAT     H183117   2.748   1.391   9.113
27625WAT     H283118   2.901   1.440   9.141
27626WAT      O83119   5.572   3.399   3.734
27626WAT     H183120   5.606   3.447   3.653
27626WAT     H283121   5.528   3.464   3.795
27627WAT      O83122   5.715   7.095   1.880
27627WAT     H183123   5.617   7.099   1.895
27627WAT     H283124   5.757   7.038   1.950
27628WAT      O83125   3.607   6.933   2.639
27628WAT     H183126   3.549   6.861   2.678
27628WAT     H283127   3.552   7.014   2.619
27629WAT      O83128   9.579   1.193   3.887
27629WAT     H183129   9.637   1.236   3.956
27629WAT     H283130   9.633   1.126   3.836
27630WAT      O83131   9.025   0.320   7.877
27630WAT     H183132   9.090   0.246   7.894
27630WAT     H283133   9.070   0.393   7.826
27631WAT      O83134   9.614   6.706   9.516
27631WAT     H183135   9.671   6.633   9.555
27631WAT     H283136   9.649   6.730   9.426
27632WAT      O83137   2.881   7.354   9.419
27632WAT     H183138   2.967   7.348   9.470
27632WAT     H283139   2.835   7.441   9.440
27633WAT      O83140   9.240   1.193   5.778
27633WAT     H183141   9.277   1.100   5.777
27633WAT     H283142   9.205   1.214   5.869
27634WAT      O83143   0.911   3.319   9.521
27634WAT     H183144   0.921   3.219   9.523
27634WAT     H283145   1.000   3.361   9.537
27635WAT      O83146   7.828   9.504   5.110
27635WAT     H183147   7.899   9.440   5.138
27635WAT     H283148   7.756   9.507   5.180
27636WAT      O83149   1.133   5.237   0.435
27636WAT     H183150   1.128   5.167   0.364
27636WAT     H283151   1.178   5.319   0.397
27637WAT      O83152   7.623   7.375   9.441
27637WAT     H183153   7.691   7.332   9.500
27637WAT     H283154   7.558   7.305   9.410
27638WAT      O83155   5.276   8.862   5.032
27638WAT     H183156   5.189   8.846   5.078
27638WAT     H283157   5.273   8.819   4.941
27639WAT      O83158   4.001   9.735   7.666
27639WAT     H183159   4.077   9.670   7.664
27639WAT     H283160   3.914   9.686   7.664
27640WAT      O83161   2.791   5.741   1.052
27640WAT     H183162   2.845   5.714   1.132
27640WAT     H283163   2.761   5.836   1.063
27641WAT      O83164   5.668   5.821   8.884
27641WAT     H183165   5.584   5.767   8.893
27641WAT     H283166   5.721   5.813   8.968
27642WAT      O83167   5.688   6.349   1.479
27642WAT     H183168   5.759   6.394   1.534
27642WAT     H283169   5.730   6.283   1.417
27643WAT      O83170   9.361   9.122   7.617
27643WAT     H183171   9.385   9.087   7.527
27643WAT     H283172   9.434   9.182   7.650
27644WAT      O83173   3.770   9.273   4.931
27644WAT     H183174   3.842   9.309   4.991
27644WAT     H283175   3.739   9.185   4.965
27645WAT      O83176   5.363   0.918   1.671
27645WAT     H183177   5.437   0.915   1.604
27645WAT     H283178   5.280   0.879   1.630
27646WAT      O83179   6.304   5.568   5.158
27646WAT     H183180   6.336   5.641   5.097
27646WAT     H283181   6.206   5.579   5.172
27647WAT      O83182   7.323   9.786   9.857
27647WAT     H183183   7.243   9.735   9.888
27647WAT     H283184   7.386   9.724   9.810
27648WAT      O83185   1.454   3.725   4.317
27648WAT     H183186   1.482   3.789   4.388
27648WAT     H283187   1.535   3.693   4.268
27649WAT      O83188   8.964   3.347   7.335
27649WAT     H183189   9.034   3.311   7.273
27649WAT     H283190   8.901   3.273   7.361
27650WAT      O83191   6.644   6.988   8.840
27650WAT     H183192   6.642   6.959   8.936
27650WAT     H283193   6.682   6.915   8.784
27651WAT      O83194   9.672   2.978   5.189
27651WAT     H183195   9.636   3.010   5.276
27651WAT     H283196   9.647   3.042   5.117
27652WAT      O83197   9.265   0.658   1.576
27652WAT     H183198   9.315   0.685   1.658
27652WAT     H283199   9.320   0.677   1.495
27653WAT      O83200   4.927   0.415   3.838
27653WAT     H183201   4.902   0.333   3.889
27653WAT     H283202   4.971   0.389   3.752
27654WAT      O83203   9.451   4.030   6.955
27654WAT     H183204   9.403   4.021   6.867
27654WAT     H283205   9.505   3.948   6.971
27655WAT      O83206   1.007   3.555   5.396
27655WAT     H183207   1.004   3.654   5.405
27655WAT     H283208   1.082   3.529   5.336
27656WAT      O83209   9.098   0.461   0.574
27656WAT     H183210   9.009   0.453   0.620
27656WAT     H283211   9.112   0.555   0.544
27657WAT      O83212   1.920   1.544   1.064
27657WAT     H183213   1.823   1.569   1.063
27657WAT     H283214   1.963   1.582   1.146
27658WAT      O83215   9.096   9.295   3.093
27658WAT     H183216   9.054   9.382   3.068
27658WAT     H283217   9.027   9.234   3.132
27659WAT      O83218   8.968   3.105   1.764
27659WAT     H183219   8.932   3.083   1.855
27659WAT     H283220   8.917   3.183   1.726
27660WAT      O83221   9.642   1.954   4.250
27660WAT     H183222   9.615   1.959   4.346
27660WAT     H283223   9.737   1.984   4.241
27661WAT      O83224   3.594   5.718   9.788
27661WAT     H183225   3.690   5.688   9.786
27661WAT     H283226   3.544   5.663   9.856
27662WAT      O83227   7.979   5.214   8.805
27662WAT     H183228   8.004   5.178   8.715
27662WAT     H283229   7.968   5.139   8.869
27663WAT      O83230   7.730   2.173   8.015
27663WAT     H183231   7.674   2.112   7.959
27663WAT     H283232   7.672   2.244   8.055
27664WAT      O83233   6.082   9.303   9.048
27664WAT     H183234   6.156   9.307   9.114
27664WAT     H283235   6.040   9.394   9.040
27665WAT      O83236   6.495   1.183   8.459
27665WAT     H183237   6.465   1.162   8.366
27665WAT     H283238   6.513   1.098   8.509
27666WAT      O83239   5.639   3.447   4.803
27666WAT     H183240   5.540   3.438   4.809
27666WAT     H283241   5.675   3.383   4.734
27667WAT      O83242   9.777   3.376   2.086
27667WAT     H183243   9.691   3.410   2.048
27667WAT     H283244   9.852   3.436   2.058
27668WAT      O83245   7.940   5.560   5.606
27668WAT     H183246   7.946   5.461   5.603
27668WAT     H283247   7.845   5.588   5.597
27669WAT      O83248   1.478   8.825   6.237
27669WAT     H183249   1.517   8.877   6.161
27669WAT     H283250   1.535   8.745   6.255
27670WAT      O83251   8.585   8.135   4.907
27670WAT     H183252   8.515   8.067   4.928
27670WAT     H283253   8.550   8.199   4.840
27671WAT      O83254   9.555   6.067   6.550
27671WAT     H183255   9.542   6.117   6.636
27671WAT     H283256   9.553   6.132   6.474
27672WAT      O83257   2.188   9.187   3.983
27672WAT     H183258   2.162   9.091   3.996
27672WAT     H283259   2.201   9.205   3.886
27673WAT      O83260   7.758   6.883   8.748
27673WAT     H183261   7.843   6.935   8.754
27673WAT     H283262   7.722   6.888   8.655
27674WAT      O83263   1.965   6.113   0.595
27674WAT     H183264   2.035   6.081   0.659
27674WAT     H283265   1.883   6.056   0.604
27675WAT      O83266   9.561   8.368   5.077
27675WAT     H183267   9.499   8.326   5.142
27675WAT     H283268   9.588   8.301   5.008
27676WAT      O83269   8.179   2.172   6.552
27676WAT     H183270   8.215   2.249   6.606
27676WAT     H283271   8.256   2.116   6.521
27677WAT      O83272   7.530   5.284   4.699
27677WAT     H183273   7.450   5.341   4.719
27677WAT     H283274   7.590   5.332   4.634
27678WAT      O83275   2.929   5.605   0.353
27678WAT     H183276   2.924   5.651   0.442
27678WAT     H283277   3.013   5.632   0.306
27679WAT      O83278   6.564   3.961   0.348
27679WAT     H183279   6.620   3.905   0.409
27679WAT     H283280   6.554   4.053   0.386
27680WAT      O83281   6.219   5.409   8.453
27680WAT     H183282   6.249   5.314   8.457
27680WAT     H283283   6.238   5.454   8.540
27681WAT      O83284   3.297   9.602   8.687
27681WAT     H183285   3.250   9.637   8.767
27681WAT     H283286   3.341   9.678   8.638
27682WAT      O83287   3.830   3.950   7.713
27682WAT     H183288   3.831   3.893   7.631
27682WAT     H283289   3.924   3.966   7.744
27683WAT      O83290   8.385   3.771   8.968
27683WAT     H183291   8.342   3.734   8.886
27683WAT     H283292   8.483   3.749   8.967
27684WAT      O83293   4.876   1.934   2.363
27684WAT     H183294   4.893   1.877   2.444
27684WAT     H283295   4.840   1.877   2.290
27685WAT      O83296   0.748   1.746   8.664
27685WAT     H183297   0.761   1.763   8.567
27685WAT     H283298   0.654   1.768   8.690
27686WAT      O83299   5.236   0.257   1.853
27686WAT     H183300   5.204   0.345   1.817
27686WAT     H283301   5.179   0.183   1.817
27687WAT      O83302   2.372   0.660   3.597
27687WAT     H183303   2.350   0.728   3.528
27687WAT     H283304   2.407   0.706   3.679
27688WAT      O83305   4.579   6.062   2.936
27688WAT     H183306   4.524   6.028   3.012
27688WAT     H283307   4.625   5.985   2.891
27689WAT      O83308   3.949   9.741   4.508
27689WAT     H183309   3.904   9.830   4.498
27689WAT     H283310   4.047   9.756   4.522
27690WAT      O83311   5.688   8.063   9.861
27690WAT     H183312   5.654   8.037   9.770
27690WAT     H283313   5.630   8.020   9.931
27691WAT      O83314   7.746   2.322   3.928
27691WAT     H183315   7.791   2.290   3.845
27691WAT     H283316   7.676   2.256   3.955
27692WAT      O83317   8.416   1.615   4.350
27692WAT     H183318   8.359   1.597   4.430
27692WAT     H283319   8.471   1.697   4.366
27693WAT      O83320   6.841   6.303   8.717
27693WAT     H183321   6.922   6.245   8.710
27693WAT     H283322   6.829   6.356   8.633
27694WAT      O83323   2.789   7.207   7.352
27694WAT     H183324   2.703   7.177   7.395
27694WAT     H283325   2.851   7.129   7.345
27695WAT      O83326   0.358   5.344   6.689
27695WAT     H183327   0.403   5.259   6.662
27695WAT     H283328   0.427   5.407   6.726
27696WAT      O83329   3.507   1.118   1.678
27696WAT     H183330   3.467   1.119   1.770
27696WAT     H283331   3.550   1.206   1.660
27697WAT      O83332   5.022   4.630   2.839
27697WAT     H183333   5.109   4.660   2.801
27697WAT     H283334   5.035   4.546   2.892
27698WAT      O83335   3.832   8.798   4.492
27698WAT     H183336   3.751   8.772   4.545
27698WAT     H283337   3.903   8.831   4.553
27699WAT      O83338   6.333   9.359   9.802
27699WAT     H183339   6.382   9.308   9.731
27699WAT     H283340   6.367   9.453   9.805
27700WAT      O83341   6.267   2.354   9.818
27700WAT     H183342   6.346   2.292   9.812
27700WAT     H283343   6.276   2.411   9.899
27701WAT      O83344   5.375   7.388   7.393
27701WAT     H183345   5.284   7.348   7.408
27701WAT     H283346   5.392   7.459   7.461
27702WAT      O83347   5.473   0.068   1.129
27702WAT     H183348   5.563   0.027   1.114
27702WAT     H283349   5.434   0.096   1.041
27703WAT      O83350   4.283   7.635   2.792
27703WAT     H183351   4.231   7.562   2.749
27703WAT     H283352   4.329   7.600   2.874
27704WAT      O83353   1.001   3.232   7.308
27704WAT     H183354   0.939   3.310   7.313
27704WAT     H283355   1.087   3.255   7.353
27705WAT      O83356   1.913   0.998   2.767
27705WAT     H183357   1.997   1.037   2.728
27705WAT     H283358   1.878   0.927   2.707
27706WAT      O83359   3.554   8.255   2.536
27706WAT     H183360   3.455   8.253   2.522
27706WAT     H283361   3.598   8.197   2.467
27707WAT      O83362   9.152   9.753   7.822
27707WAT     H183363   9.108   9.748   7.732
27707WAT     H283364   9.107   9.690   7.885
27708WAT      O83365   0.616   3.390   4.208
27708WAT     H183366   0.527   3.349   4.190
27708WAT     H283367   0.687   3.338   4.161
27709WAT      O83368   3.608   1.031   8.041
27709WAT     H183369   3.610   1.118   7.993
27709WAT     H283370   3.522   0.984   8.023
27710WAT      O83371   6.123   2.532   0.633
27710WAT     H183372   6.068   2.615   0.637
27710WAT     H283373   6.219   2.555   0.649
27711WAT      O83374   6.049   0.963   5.787
27711WAT     H183375   6.115   1.030   5.757
27711WAT     H283376   5.999   0.927   5.708
27712WAT      O83377   4.485   2.165   8.260
27712WAT     H183378   4.435   2.244   8.223
27712WAT     H283379   4.504   2.100   8.185
27713WAT      O83380   7.609   9.078   0.270
27713WAT     H183381   7.514   9.102   0.250
27713WAT     H283382   7.667   9.105   0.193
27714WAT      O83383   7.686   2.996   1.627
27714WAT     H183384   7.745   2.915   1.622
27714WAT     H283385   7.657   3.009   1.722
27715WAT      O83386   5.133   8.868   9.353
27715WAT     H183387   5.066   8.794   9.360
27715WAT     H283388   5.088   8.956   9.373
27716WAT      O83389   4.342   8.438   4.616
27716WAT     H183390   4.323   8.432   4.714
27716WAT     H283391   4.308   8.356   4.571
27717WAT      O83392   4.346   2.049   0.361
27717WAT     H183393   4.435   2.053   0.314
27717WAT     H283394   4.273   2.070   0.296
27718WAT      O83395   9.565   2.295   8.155
27718WAT     H183396   9.474   2.270   8.121
27718WAT     H283397   9.622   2.213   8.159
27719WAT      O83398   7.427   4.864   0.450
27719WAT     H183399   7.514   4.873   0.498
27719WAT     H283400   7.352   4.868   0.517
27720WAT      O83401   2.446   2.450   5.894
27720WAT     H183402   2.394   2.452   5.979
27720WAT     H283403   2.418   2.371   5.840
27721WAT      O83404   8.984   7.928   9.302
27721WAT     H183405   9.000   7.837   9.265
27721WAT     H283406   9.069   7.982   9.298
27722WAT      O83407   1.346   8.821   3.855
27722WAT     H183408   1.308   8.847   3.944
27722WAT     H283409   1.273   8.820   3.786
27723WAT      O83410   2.659   5.622   6.304
27723WAT     H183411   2.749   5.585   6.325
27723WAT     H283412   2.626   5.582   6.219
27724WAT      O83413   1.518   2.466   1.047
27724WAT     H183414   1.605   2.465   0.997
27724WAT     H283415   1.536   2.470   1.146
27725WAT      O83416   7.334   5.261   7.770
27725WAT     H183417   7.374   5.351   7.754
27725WAT     H283418   7.234   5.269   7.777
27726WAT      O83419   5.690   6.290   3.815
27726WAT     H183420   5.617   6.276   3.882
27726WAT     H283421   5.685   6.218   3.745
27727WAT      O83422   8.886   3.209   4.616
27727WAT     H183423   8.837   3.183   4.533
27727WAT     H283424   8.850   3.296   4.650
27728WAT      O83425   4.538   6.180   2.688
27728WAT     H183426   4.550   6.152   2.783
27728WAT     H283427   4.464   6.247   2.683
27729WAT      O83428   1.289   2.904   5.798
27729WAT     H183429   1.252   2.943   5.882
27729WAT     H283430   1.389   2.903   5.802
27730WAT      O83431   1.423   4.254   0.749
27730WAT     H183432   1.368   4.170   0.754
27730WAT     H283433   1.417   4.292   0.657
27731WAT      O83434   4.320   1.279   9.619
27731WAT     H183435   4.238   1.272   9.677
27731WAT     H283436   4.301   1.238   9.530
27732WAT      O83437   7.569   5.746   7.349
27732WAT     H183438   7.577   5.761   7.250
27732WAT     H283439   7.587   5.832   7.397
27733WAT      O83440   9.357   8.413   8.234
27733WAT     H183441   9.394   8.450   8.149
27733WAT     H283442   9.430   8.371   8.288
27734WAT      O83443   6.778   5.818   2.429
27734WAT     H183444   6.766   5.722   2.405
27734WAT     H283445   6.843   5.859   2.365
27735WAT      O83446   6.524   0.216   7.142
27735WAT     H183447   6.548   0.310   7.164
27735WAT     H283448   6.437   0.215   7.093
27736WAT      O83449   8.261   0.227   9.890
27736WAT     H183450   8.255   0.132   9.859
27736WAT     H283451   8.354   0.261   9.875
27737WAT      O83452   1.406   1.933   3.729
27737WAT     H183453   1.446   1.869   3.794
27737WAT     H283454   1.477   1.964   3.665
27738WAT      O83455   6.741   7.479   5.823
27738WAT     H183456   6.717   7.447   5.915
27738WAT     H283457   6.837   7.459   5.805
27739WAT      O83458   1.211   4.743   9.782
27739WAT     H183459   1.150   4.664   9.790
27739WAT     H283460   1.280   4.724   9.712
27740WAT      O83461   0.773   2.461   4.208
27740WAT     H183462   0.725   2.499   4.287
27740WAT     H283463   0.863   2.502   4.201
27741WAT      O83464   4.566   3.412   7.824
27741WAT     H183465   4.474   3.416   7.786
27741WAT     H283466   4.588   3.499   7.868
27742WAT      O83467   1.324   7.546   4.034
27742WAT     H183468   1.366   7.467   3.989
27742WAT     H283469   1.291   7.610   3.964
27743WAT      O83470   1.725   7.357   4.268
27743WAT     H183471   1.686   7.432   4.322
27743WAT     H283472   1.810   7.327   4.311
27744WAT      O83473   1.619   4.870   4.427
27744WAT     H183474   1.700   4.889   4.373
27744WAT     H283475   1.543   4.846   4.367
27745WAT      O83476   8.812   2.726   0.943
27745WAT     H183477   8.862   2.704   0.859
27745WAT     H283478   8.727   2.673   0.946
27746WAT      O83479   3.075   9.400   9.106
27746WAT     H183480   3.164   9.365   9.077
27746WAT     H283481   3.007   9.327   9.100
27747WAT      O83482   5.064   9.100   2.319
27747WAT     H183483   5.064   9.151   2.233
27747WAT     H283484   5.130   9.139   2.382
27748WAT      O83485   3.536   7.725   0.127
27748WAT     H183486   3.618   7.766   0.086
27748WAT     H283487   3.563   7.650   0.187
27749WAT      O83488   9.729   9.591   2.771
27749WAT     H183489   9.630   9.579   2.779
27749WAT     H283490   9.766   9.623   2.858
27750WAT      O83491   7.406   3.151   3.149
27750WAT     H183492   7.494   3.184   3.182
27750WAT     H283493   7.372   3.212   3.077
27751WAT      O83494   0.682   1.590   3.229
27751WAT     H183495   0.738   1.667   3.199
27751WAT     H283496   0.653   1.536   3.150
27752WAT      O83497   3.010   7.191   6.734
27752WAT     H183498   2.991   7.093   6.724
27752WAT     H283499   3.051   7.226   6.649
27753WAT      O83500   3.239   4.933   8.348
27753WAT     H183501   3.336   4.954   8.362
27753WAT     H283502   3.227   4.884   8.262
27754WAT      O83503   7.273   2.961   3.609
27754WAT     H183504   7.337   2.898   3.565
27754WAT     H283505   7.309   3.054   3.604
27755WAT      O83506   0.166   1.641   5.704
27755WAT     H183507   0.111   1.699   5.644
27755WAT     H283508   0.243   1.604   5.652
27756WAT      O83509   8.828   3.244   2.176
27756WAT     H183510   8.768   3.299   2.234
27756WAT     H283511   8.916   3.230   2.221
27757WAT      O83512   9.470   1.241   6.995
27757WAT     H183513   9.538   1.314   6.983
27757WAT     H283514   9.380   1.281   7.011
27758WAT      O83515   4.590   5.645   8.124
27758WAT     H183516   4.533   5.667   8.045
27758WAT     H283517   4.684   5.676   8.107
27759WAT      O83518   9.181   7.339   9.465
27759WAT     H183519   9.237   7.292   9.533
27759WAT     H283520   9.185   7.290   9.378
27760WAT      O83521   9.320   2.661   9.269
27760WAT     H183522   9.373   2.716   9.205
27760WAT     H283523   9.371   2.650   9.354
27761WAT      O83524   8.543   1.116   2.468
27761WAT     H183525   8.630   1.123   2.419
27761WAT     H283526   8.561   1.103   2.566
27762WAT      O83527   9.701   0.415   5.482
27762WAT     H183528   9.694   0.409   5.382
27762WAT     H283529   9.611   0.402   5.523
27763WAT      O83530   7.090   4.823   8.577
27763WAT     H183531   7.080   4.786   8.669
27763WAT     H283532   7.049   4.761   8.511
27764WAT      O83533   2.261   9.178   9.588
27764WAT     H183534   2.350   9.221   9.604
27764WAT     H283535   2.239   9.184   9.491
27765WAT      O83536   3.832   1.080   5.514
27765WAT     H183537   3.750   1.037   5.476
27765WAT     H283538   3.815   1.109   5.608
27766WAT      O83539   1.864   8.267   6.513
27766WAT     H183540   1.805   8.221   6.578
27766WAT     H283541   1.949   8.295   6.559
27767WAT      O83542   3.896   1.350   4.792
27767WAT     H183543   3.967   1.405   4.835
27767WAT     H283544   3.830   1.319   4.861
27768WAT      O83545   1.281   2.479   5.257
27768WAT     H183546   1.251   2.437   5.171
27768WAT     H283547   1.307   2.574   5.240
27769WAT      O83548   5.776   2.341   2.140
27769WAT     H183549   5.855   2.361   2.198
27769WAT     H283550   5.761   2.242   2.137
27770WAT      O83551   5.666   5.008   2.487
27770WAT     H183552   5.671   5.049   2.396
27770WAT     H283553   5.744   4.946   2.500
27771WAT      O83554   5.059   3.665   3.649
27771WAT     H183555   4.975   3.670   3.703
27771WAT     H283556   5.118   3.593   3.685
27772WAT      O83557   6.426   0.732   8.401
27772WAT     H183558   6.470   0.644   8.384
27772WAT     H283559   6.434   0.755   8.498
27773WAT      O83560   3.515   0.519   4.287
27773WAT     H183561   3.607   0.492   4.315
27773WAT     H283562   3.449   0.487   4.355
27774WAT      O83563   2.018   2.400   3.444
27774WAT     H183564   2.077   2.439   3.374
27774WAT     H283565   1.979   2.314   3.411
27775WAT      O83566   5.830   2.205   4.969
27775WAT     H183567   5.863   2.201   5.064
27775WAT     H283568   5.766   2.130   4.954
27776WAT      O83569   1.122   1.243   6.737
27776WAT     H183570   1.037   1.217   6.783
27776WAT     H283571   1.116   1.338   6.708
27777WAT      O83572   1.255   3.334   2.224
27777WAT     H183573   1.193   3.409   2.247
27777WAT     H283574   1.214   3.278   2.152
27778WAT      O83575   7.882   6.972   0.237
27778WAT     H183576   7.837   7.058   0.263
27778WAT     H283577   7.968   6.992   0.190
27779WAT      O83578   1.247   6.086   9.556
27779WAT     H183579   1.279   6.180   9.567
27779WAT     H283580   1.166   6.071   9.612
27780WAT      O83581   3.279   4.577   8.408
27780WAT     H183582   3.360   4.636   8.404
27780WAT     H283583   3.245   4.560   8.316
27781WAT      O83584   5.731   4.354   9.535
27781WAT     H183585   5.649   4.346   9.591
27781WAT     H283586   5.751   4.265   9.492
27782WAT      O83587   3.950   8.270   4.066
27782WAT     H183588   4.027   8.206   4.062
27782WAT     H283589   3.868   8.222   4.098
27783WAT      O83590   0.808   6.373   8.538
27783WAT     H183591   0.808   6.410   8.446
27783WAT     H283592   0.716   6.344   8.563
27784WAT      O83593   0.928   1.882   5.403
27784WAT     H183594   1.007   1.875   5.343
27784WAT     H283595   0.918   1.798   5.456
27785WAT      O83596   4.781   9.479   8.584
27785WAT     H183597   4.846   9.512   8.516
27785WAT     H283598   4.767   9.381   8.573
27786WAT      O83599   5.305   3.918   4.234
27786WAT     H183600   5.218   3.950   4.199
27786WAT     H283601   5.355   3.871   4.162
27787WAT      O83602   8.845   1.960   4.432
27787WAT     H183603   8.888   1.992   4.347
27787WAT     H283604   8.840   2.035   4.498
27788WAT      O83605   7.945   1.853   1.553
27788WAT     H183606   7.912   1.762   1.528
27788WAT     H283607   7.881   1.897   1.616
27789WAT      O83608   5.317   6.277   4.393
27789WAT     H183609   5.352   6.318   4.309
27789WAT     H283610   5.370   6.311   4.471
27790WAT      O83611   2.684   7.076   0.808
27790WAT     H183612   2.683   7.099   0.905
27790WAT     H283613   2.651   7.154   0.755
27791WAT      O83614   7.815   5.250   4.920
27791WAT     H183615   7.753   5.181   4.884
27791WAT     H283616   7.841   5.227   5.013
27792WAT      O83617   2.832   7.740   7.878
27792WAT     H183618   2.881   7.813   7.927
27792WAT     H283619   2.835   7.759   7.780
27793WAT      O83620   3.317   2.871   1.860
27793WAT     H183621   3.403   2.919   1.877
27793WAT     H283622   3.269   2.857   1.947
27794WAT      O83623   2.840   8.701   4.639
27794WAT     H183624   2.754   8.665   4.604
27794WAT     H283625   2.853   8.795   4.606
27795WAT      O83626   5.181   0.572   0.722
27795WAT     H183627   5.217   0.601   0.633
27795WAT     H283628   5.088   0.536   0.710
27796WAT      O83629   7.733   0.608   7.926
27796WAT     H183630   7.703   0.684   7.869
27796WAT     H283631   7.764   0.533   7.867
27797WAT      O83632   6.842   5.892   6.444
27797WAT     H183633   6.748   5.875   6.471
27797WAT     H283634   6.896   5.809   6.457
27798WAT      O83635   9.015   9.748   9.758
27798WAT     H183636   8.925   9.769   9.796
27798WAT     H283637   9.086   9.774   9.824
27799WAT      O83638   3.974   9.228   4.420
27799WAT     H183639   3.928   9.239   4.508
27799WAT     H283640   3.939   9.147   4.373
27800WAT      O83641   2.494   7.524   5.236
27800WAT     H183642   2.538   7.613   5.247
27800WAT     H283643   2.395   7.537   5.228
27801WAT      O83644   2.807   3.156   6.431
27801WAT     H183645   2.903   3.128   6.426
27801WAT     H283646   2.750   3.076   6.450
27802WAT      O83647   1.937   3.240   3.017
27802WAT     H183648   2.006   3.236   3.090
27802WAT     H283649   1.913   3.336   3.000
27803WAT      O83650   0.849   9.113   9.625
27803WAT     H183651   0.788   9.189   9.602
27803WAT     H283652   0.879   9.068   9.541
27804WAT      O83653   0.684   4.098   9.430
27804WAT     H183654   0.600   4.153   9.422
27804WAT     H283655   0.734   4.101   9.343
27805WAT      O83656   5.875   7.561   0.469
27805WAT     H183657   5.811   7.637   0.469
27805WAT     H283658   5.945   7.574   0.399
27806WAT      O83659   2.393   5.866   8.738
27806WAT     H183660   2.436   5.899   8.654
27806WAT     H283661   2.446   5.895   8.817
27807WAT      O83662   9.222   8.989   1.054
27807WAT     H183663   9.159   9.065   1.037
27807WAT     H283664   9.307   9.004   1.004
27808WAT      O83665   9.451   5.125   4.520
27808WAT     H183666   9.367   5.075   4.543
27808WAT     H283667   9.429   5.206   4.467
27809WAT      O83668   2.756   3.881   2.401
27809WAT     H183669   2.768   3.804   2.338
27809WAT     H283670   2.845   3.919   2.426
27810WAT      O83671   4.153   2.561   0.957
27810WAT     H183672   4.188   2.482   0.905
27810WAT     H283673   4.113   2.529   1.043
27811WAT      O83674   4.821   0.500   8.606
27811WAT     H183675   4.774   0.570   8.659
27811WAT     H283676   4.850   0.426   8.666
27812WAT      O83677   6.211   8.063   6.614
27812WAT     H183678   6.119   8.088   6.584
27812WAT     H283679   6.221   8.084   6.711
27813WAT      O83680   5.772   9.276   8.751
27813WAT     H183681   5.744   9.272   8.847
27813WAT     H283682   5.702   9.233   8.695
27814WAT      O83683   6.330   5.812   2.035
27814WAT     H183684   6.423   5.845   2.049
27814WAT     H283685   6.264   5.886   2.052
27815WAT      O83686   3.711   2.231   2.150
27815WAT     H183687   3.614   2.230   2.124
27815WAT     H283688   3.742   2.326   2.155
27816WAT      O83689   3.304   9.489   3.323
27816WAT     H183690   3.363   9.510   3.245
27816WAT     H283691   3.269   9.574   3.362
27817WAT      O83692   3.105   1.171   5.495
27817WAT     H183693   3.180   1.178   5.562
27817WAT     H283694   3.065   1.080   5.500
27818WAT      O83695   1.032   7.019   8.664
27818WAT     H183696   0.934   7.037   8.674
27818WAT     H283697   1.055   7.015   8.566
27819WAT      O83698   1.560   2.699   2.027
27819WAT     H183699   1.463   2.680   2.008
27819WAT     H283700   1.603   2.617   2.064
27820WAT      O83701   2.281   0.899   7.998
27820WAT     H183702   2.369   0.865   7.964
27820WAT     H283703   2.290   0.923   8.095
27821WAT      O83704   3.011   0.011   5.307
27821WAT     H183705   3.071  -0.013   5.383
27821WAT     H283706   3.056  -0.011   5.220
27822WAT      O83707   9.113   0.123   5.833
27822WAT     H183708   9.131   0.169   5.920
27822WAT     H283709   9.114   0.189   5.759
27823WAT      O83710   8.855   5.475   1.881
27823WAT     H183711   8.758   5.449   1.880
27823WAT     H283712   8.885   5.495   1.788
27824WAT      O83713   1.309   7.879   6.928
27824WAT     H183714   1.293   7.781   6.912
27824WAT     H283715   1.224   7.930   6.913
27825WAT      O83716   4.903   9.466   4.320
27825WAT     H183717   4.820   9.491   4.271
27825WAT     H283718   4.982   9.477   4.259
27826WAT      O83719   6.895   7.007   7.345
27826WAT     H183720   6.982   7.049   7.371
27826WAT     H283721   6.910   6.912   7.320
27827WAT      O83722   9.867   8.918   7.640
27827WAT     H183723   9.883   8.948   7.734
27827WAT     H283724   9.950   8.874   7.604
27828WAT      O83725   5.633   6.870   7.884
27828WAT     H183726   5.579   6.954   7.878
27828WAT     H283727   5.574   6.794   7.911
27829WAT      O83728   0.523   1.482   7.341
27829WAT     H183729   0.431   1.519   7.352
27829WAT     H283730   0.589   1.557   7.334
27830WAT      O83731   9.160   5.014   4.489
27830WAT     H183732   9.069   5.046   4.463
27830WAT     H283733   9.171   5.022   4.588
27831WAT      O83734   3.521   7.508   1.926
27831WAT     H183735   3.586   7.578   1.897
27831WAT     H283736   3.523   7.431   1.862
27832WAT      O83737   5.989   0.513   9.824
27832WAT     H183738   6.032   0.471   9.903
27832WAT     H283739   5.930   0.446   9.778
27833WAT      O83740   9.389   9.702   0.018
27833WAT     H183741   9.449   9.778   0.044
27833WAT     H283742   9.296   9.719   0.052
27834WAT      O83743   9.763   0.723   1.254
27834WAT     H183744   9.708   0.653   1.299
27834WAT     H283745   9.807   0.781   1.323
27835WAT      O83746   9.732   7.493   7.582
27835WAT     H183747   9.742   7.503   7.681
27835WAT     H283748   9.637   7.509   7.556
27836WAT      O83749   0.423   3.787   2.824
27836WAT     H183750   0.355   3.860   2.820
27836WAT     H283751   0.420   3.733   2.740
27837WAT      O83752   6.751   3.151   0.229
27837WAT     H183753   6.833   3.203   0.253
27837WAT     H283754   6.717   3.180   0.140
27838WAT      O83755   3.850   6.667   8.134
27838WAT     H183756   3.940   6.625   8.149
27838WAT     H283757   3.802   6.673   8.222
27839WAT      O83758   8.417   2.456   6.960
27839WAT     H183759   8.350   2.438   7.032
27839WAT     H283760   8.497   2.396   6.973
27840WAT      O83761   1.135   4.293   3.829
27840WAT     H183762   1.075   4.357   3.781
27840WAT     H283763   1.090   4.261   3.912
27841WAT      O83764   8.551   7.378   2.027
27841WAT     H183765   8.650   7.378   2.040
27841WAT     H283766   8.509   7.306   2.082
27842WAT      O83767   2.405   0.862   0.427
27842WAT     H183768   2.498   0.837   0.399
27842WAT     H283769   2.341   0.838   0.354
27843WAT      O83770   9.266   4.193   8.452
27843WAT     H183771   9.230   4.154   8.366
27843WAT     H283772   9.313   4.279   8.432
27844WAT      O83773   8.813   9.145   5.414
27844WAT     H183774   8.729   9.095   5.437
27844WAT     H283775   8.884   9.080   5.387
27845WAT      O83776   5.735   1.077   7.870
27845WAT     H183777   5.660   1.139   7.889
27845WAT     H283778   5.818   1.109   7.917
27846WAT      O83779   7.414   2.546   0.654
27846WAT     H183780   7.417   2.643   0.678
27846WAT     H283781   7.426   2.536   0.556
27847WAT      O83782   9.604   0.711   2.720
27847WAT     H183783   9.698   0.686   2.743
27847WAT     H283784   9.549   0.628   2.711
27848WAT      O83785   2.273   2.217   1.641
27848WAT     H183786   2.192   2.261   1.603
27848WAT     H283787   2.290   2.131   1.592
27849WAT      O83788   1.431   0.355   9.879
27849WAT     H183789   1.479   0.440   9.900
27849WAT     H283790   1.485   0.277   9.909
27850WAT      O83791   7.268   7.414   3.164
27850WAT     H183792   7.302   7.416   3.258
27850WAT     H283793   7.267   7.319   3.131
27851WAT      O83794   5.952   9.669   2.097
27851WAT     H183795   5.925   9.673   2.001
27851WAT     H283796   5.886   9.721   2.152
27852WAT      O83797   1.752   6.301   3.238
27852WAT     H183798   1.837   6.257   3.268
27852WAT     H283799   1.693   6.316   3.317
27853WAT      O83800   6.791   7.274   1.725
27853WAT     H183801   6.765   7.288   1.630
27853WAT     H283802   6.810   7.362   1.768
27854WAT      O83803   1.277   1.650   4.031
27854WAT     H183804   1.317   1.576   4.084
27854WAT     H283805   1.318   1.653   3.940
27855WAT      O83806   5.277   9.454   7.617
27855WAT     H183807   5.288   9.473   7.714
27855WAT     H283808   5.289   9.356   7.601
27856WAT      O83809   8.720   3.270   8.555
27856WAT     H183810   8.680   3.258   8.464
27856WAT     H283811   8.757   3.182   8.587
27857WAT      O83812   3.183   0.086   6.009
27857WAT     H183813   3.113   0.023   5.974
27857WAT     H283814   3.254   0.097   5.940
27858WAT      O83815   1.147   9.632   4.563
27858WAT     H183816   1.205   9.606   4.640
27858WAT     H283817   1.069   9.570   4.557
27859WAT      O83818   6.163   7.498   4.235
27859WAT     H183819   6.241   7.558   4.250
27859WAT     H283820   6.082   7.553   4.213
27860WAT      O83821   8.120   6.537   6.815
27860WAT     H183822   8.205   6.575   6.777
27860WAT     H283823   8.135   6.443   6.844
27861WAT      O83824   7.470   2.823   2.244
27861WAT     H183825   7.422   2.783   2.322
27861WAT     H283826   7.567   2.803   2.251
27862WAT      O83827   3.818   8.835   6.925
27862WAT     H183828   3.750   8.860   6.856
27862WAT     H283829   3.780   8.766   6.986
27863WAT      O83830   1.229   9.579   8.371
27863WAT     H183831   1.167   9.565   8.293
27863WAT     H283832   1.272   9.492   8.395
27864WAT      O83833   9.851   4.816   6.749
27864WAT     H183834   9.803   4.754   6.687
27864WAT     H283835   9.807   4.905   6.749
27865WAT      O83836   7.498   1.456   1.989
27865WAT     H183837   7.514   1.358   2.006
27865WAT     H283838   7.487   1.471   1.891
27866WAT      O83839   3.475   0.719   0.796
27866WAT     H183840   3.464   0.809   0.838
27866WAT     H283841   3.387   0.687   0.761
27867WAT      O83842   8.943   4.203   5.657
27867WAT     H183843   8.962   4.109   5.626
27867WAT     H283844   8.938   4.263   5.578
27868WAT      O83845   5.435   6.745   2.133
27868WAT     H183846   5.519   6.780   2.174
27868WAT     H283847   5.427   6.779   2.039
27869WAT      O83848   2.530   3.423   3.037
27869WAT     H183849   2.603   3.420   2.969
27869WAT     H283850   2.474   3.341   3.029
27870WAT      O83851   2.195   5.038   8.708
27870WAT     H183852   2.104   5.035   8.749
27870WAT     H283853   2.191   5.001   8.615
27871WAT      O83854   4.223   0.406   3.678
27871WAT     H183855   4.148   0.351   3.714
27871WAT     H283856   4.309   0.357   3.690
27872WAT      O83857   7.149   5.522   6.237
27872WAT     H183858   7.056   5.512   6.273
27872WAT     H283859   7.156   5.476   6.148
27873WAT      O83860   3.555   8.499   0.130
27873WAT     H183861   3.630   8.438   0.107
27873WAT     H283862   3.470   8.466   0.090
27874WAT      O83863   6.686   8.679   5.291
27874WAT     H183864   6.776   8.641   5.270
27874WAT     H283865   6.697   8.765   5.341
27875WAT      O83866   5.041   1.572   0.002
27875WAT     H183867   5.062   1.482   0.039
27875WAT     H283868   4.963   1.565  -0.061
27876WAT      O83869   2.104   1.576   5.466
27876WAT     H183870   2.124   1.576   5.368
27876WAT     H283871   2.153   1.500   5.510
27877WAT      O83872   3.904   5.814   2.334
27877WAT     H183873   3.949   5.829   2.423
27877WAT     H283874   3.963   5.759   2.276
27878WAT      O83875   8.355   8.656   5.466
27878WAT     H183876   8.394   8.738   5.422
27878WAT     H283877   8.267   8.680   5.508
27879WAT      O83878   5.564   7.714   7.049
27879WAT     H183879   5.559   7.630   6.995
27879WAT     H283880   5.654   7.721   7.091
27880WAT      O83881   6.580   3.262   6.525
27880WAT     H183882   6.517   3.202   6.474
27880WAT     H283883   6.570   3.244   6.623
27881WAT      O83884   7.970   4.746   9.841
27881WAT     H183885   7.921   4.824   9.803
27881WAT     H283886   7.949   4.664   9.787
27882WAT      O83887   1.534   6.491   5.427
27882WAT     H183888   1.528   6.419   5.495
27882WAT     H283889   1.609   6.471   5.363
27883WAT      O83890   8.623   7.456   5.386
27883WAT     H183891   8.657   7.550   5.388
27883WAT     H283892   8.573   7.441   5.300
27884WAT      O83893   7.585   6.284   4.628
27884WAT     H183894   7.601   6.366   4.683
27884WAT     H283895   7.604   6.203   4.683
27885WAT      O83896   8.030   2.419   1.395
27885WAT     H183897   8.082   2.369   1.464
27885WAT     H283898   7.979   2.356   1.339
27886WAT      O83899   7.107   0.619   3.266
27886WAT     H183900   7.156   0.641   3.182
27886WAT     H283901   7.173   0.599   3.339
27887WAT      O83902   9.659   0.766   8.276
27887WAT     H183903   9.629   0.684   8.326
27887WAT     H283904   9.741   0.802   8.319
27888WAT      O83905   1.018   4.670   3.389
27888WAT     H183906   1.091   4.642   3.327
27888WAT     H283907   1.055   4.684   3.481
27889WAT      O83908   9.555   0.019   7.519
27889WAT     H183909   9.639   0.005   7.467
27889WAT     H283910   9.476  -0.001   7.460
27890WAT      O83911   8.478   5.243   0.767
27890WAT     H183912   8.531   5.269   0.848
27890WAT     H283913   8.381   5.232   0.793
27891WAT      O83914   8.397   2.456   3.404
27891WAT     H183915   8.445   2.509   3.474
27891WAT     H283916   8.305   2.434   3.436
27892WAT      O83917   7.003   1.016   4.590
27892WAT     H183918   6.913   0.982   4.616
27892WAT     H283919   7.006   1.032   4.492
27893WAT      O83920   2.627   3.098   4.105
27893WAT     H183921   2.650   3.195   4.111
27893WAT     H283922   2.603   3.064   4.196
27894WAT      O83923   6.760   4.438   7.452
27894WAT     H183924   6.753   4.417   7.550
27894WAT     H283925   6.737   4.357   7.399
27895WAT      O83926   0.775   3.225   6.670
27895WAT     H183927   0.679   3.225   6.696
27895WAT     H283928   0.826   3.165   6.732
27896WAT      O83929   1.374   6.163   5.216
27896WAT     H183930   1.335   6.073   5.237
27896WAT     H283931   1.302   6.223   5.183
27897WAT      O83932   2.224   2.622   9.049
27897WAT     H183933   2.287   2.695   9.074
27897WAT     H283934   2.228   2.549   9.119
27898WAT      O83935   4.023   1.843   5.933
27898WAT     H183936   4.114   1.835   5.973
27898WAT     H283937   3.997   1.939   5.927
27899WAT      O83938   7.682   3.692   5.801
27899WAT     H183939   7.757   3.748   5.836
27899WAT     H283940   7.658   3.722   5.709
27900WAT      O83941   0.843   8.919   8.829
27900WAT     H183942   0.943   8.923   8.822
27900WAT     H283943   0.809   8.844   8.772
27901WAT      O83944   5.389   5.766   8.864
27901WAT     H183945   5.386   5.816   8.951
27901WAT     H283946   5.296   5.748   8.833
27902WAT      O83947   8.931   6.099   8.906
27902WAT     H183948   8.937   6.156   8.988
27902WAT     H283949   9.018   6.100   8.858
27903WAT      O83950   6.715   8.985   1.013
27903WAT     H183951   6.780   9.061   1.002
27903WAT     H283952   6.639   8.997   0.948
27904WAT      O83953   0.639   1.334   7.150
27904WAT     H183954   0.573   1.341   7.075
27904WAT     H283955   0.612   1.397   7.223
27905WAT      O83956   8.097   1.967   8.528
27905WAT     H183957   8.072   1.890   8.587
27905WAT     H283958   8.022   1.986   8.464
27906WAT      O83959   9.823   3.292   1.146
27906WAT     H183960   9.841   3.228   1.220
27906WAT     H283961   9.909   3.323   1.106
27907WAT      O83962   9.500   0.856   3.882
27907WAT     H183963   9.534   0.763   3.896
27907WAT     H283964   9.576   0.914   3.851
27908WAT      O83965   6.764   5.022   8.452
27908WAT     H183966   6.845   5.080   8.443
27908WAT     H283967   6.794   4.927   8.463
27909WAT      O83968   2.333   6.252   8.617
27909WAT     H183969   2.343   6.333   8.675
27909WAT     H283970   2.269   6.272   8.543
27910WAT      O83971   8.260   5.718   0.465
27910WAT     H183972   8.161   5.727   0.477
27910WAT     H283973   8.293   5.791   0.405
27911WAT      O83974   9.347   5.216   6.432
27911WAT     H183975   9.426   5.200   6.373
27911WAT     H283976   9.297   5.130   6.444
27912WAT      O83977   1.246   9.029   4.081
27912WAT     H183978   1.167   9.071   4.126
27912WAT     H283979   1.298   8.976   4.148
27913WAT      O83980   5.398   6.384   2.461
27913WAT     H183981   5.477   6.401   2.520
27913WAT     H283982   5.341   6.312   2.501
27914WAT      O83983   9.581   8.345   0.139
27914WAT     H183984   9.595   8.282   0.062
27914WAT     H283985   9.601   8.438   0.109
27915WAT      O83986   5.888   5.527   1.092
27915WAT     H183987   5.875   5.619   1.055
27915WAT     H283988   5.835   5.461   1.039
27916WAT      O83989   4.931   8.138   2.593
27916WAT     H183990   4.899   8.229   2.621
27916WAT     H283991   4.854   8.085   2.557
27917WAT      O83992   3.675   4.833   4.858
27917WAT     H183993   3.576   4.834   4.847
27917WAT     H283994   3.698   4.837   4.956
27918WAT      O83995   5.743   6.789   9.245
27918WAT     H183996   5.709   6.880   9.221
27918WAT     H283997   5.820   6.766   9.185
27919WAT      O83998   0.233   3.460   8.247
27919WAT     H183999   0.214   3.434   8.153
27919WAT     H284000   0.269   3.554   8.250
27920WAT      O84001   2.961   6.597   7.069
27920WAT     H184002   2.934   6.503   7.046
27920WAT     H284003   2.945   6.656   6.991
27921WAT      O84004   7.366   7.554   6.132
27921WAT     H184005   7.274   7.592   6.144
27921WAT     H284006   7.376   7.518   6.039
27922WAT      O84007   1.774   0.345   8.667
27922WAT     H184008   1.692   0.323   8.720
27922WAT     H284009   1.784   0.444   8.659
27923WAT      O84010   3.597   6.304   7.512
27923WAT     H184011   3.607   6.219   7.564
27923WAT     H284012   3.685   6.329   7.471
27924WAT      O84013   4.070   9.742   3.399
27924WAT     H184014   4.040   9.743   3.303
27924WAT     H284015   4.170   9.743   3.403
27925WAT      O84016   4.999   1.654   7.168
27925WAT     H184017   5.066   1.587   7.140
27925WAT     H284018   4.995   1.658   7.268
27926WAT      O84019   9.287   8.696   0.455
27926WAT     H184020   9.326   8.660   0.540
27926WAT     H284021   9.192   8.664   0.446
27927WAT      O84022   0.771   4.142   8.501
27927WAT     H184023   0.694   4.153   8.564
27927WAT     H284024   0.856   4.166   8.547
27928WAT      O84025   5.762   2.986   3.627
27928WAT     H184026   5.741   3.046   3.704
27928WAT     H284027   5.785   3.041   3.547
27929WAT      O84028   3.989   8.808   2.378
27929WAT     H184029   3.996   8.812   2.478
27929WAT     H284030   4.041   8.883   2.338
27930WAT      O84031   7.436   7.484   1.070
27930WAT     H184032   7.413   7.579   1.091
27930WAT     H284033   7.519   7.482   1.014
27931WAT      O84034   0.052   5.354   2.788
27931WAT     H184035  -0.045   5.353   2.811
27931WAT     H284036   0.084   5.449   2.783
27932WAT      O84037   6.759   4.368   2.329
27932WAT     H184038   6.678   4.420   2.302
27932WAT     H284039   6.775   4.379   2.427
27933WAT      O84040   2.198   3.481   0.056
27933WAT     H184041   2.102   3.494   0.078
27933WAT     H284042   2.211   3.490  -0.043
27934WAT      O84043   5.729   4.737   5.654
27934WAT     H184044   5.754   4.761   5.748
27934WAT     H284045   5.812   4.717   5.602
27935WAT      O84046   6.591   7.049   1.148
27935WAT     H184047   6.505   7.093   1.121
27935WAT     H284048   6.571   6.970   1.206
27936WAT      O84049   7.055   6.258   6.418
27936WAT     H184050   7.077   6.164   6.442
27936WAT     H284051   7.074   6.318   6.496
27937WAT      O84052   6.808   4.138   8.267
27937WAT     H184053   6.882   4.141   8.200
27937WAT     H284054   6.748   4.217   8.255
27938WAT      O84055   2.054   0.412   0.113
27938WAT     H184056   2.123   0.419   0.042
27938WAT     H284057   2.009   0.322   0.108
27939WAT      O84058   6.006   0.693   7.302
27939WAT     H184059   6.026   0.672   7.398
27939WAT     H284060   5.930   0.757   7.297
27940WAT      O84061   1.979   0.791   9.070
27940WAT     H184062   2.006   0.787   9.167
27940WAT     H284063   1.958   0.886   9.045
27941WAT      O84064   3.333   7.793   5.175
27941WAT     H184065   3.313   7.797   5.077
27941WAT     H284066   3.252   7.821   5.227
27942WAT      O84067   8.198   3.312   4.510
27942WAT     H184068   8.108   3.300   4.470
27942WAT     H284069   8.226   3.226   4.555
27943WAT      O84070   6.646   9.267   9.778
27943WAT     H184071   6.566   9.277   9.719
27943WAT     H284072   6.729   9.268   9.723
27944WAT      O84073   4.033   1.634   3.455
27944WAT     H184074   3.962   1.602   3.392
27944WAT     H284075   4.030   1.581   3.539
27945WAT      O84076   5.285   0.873   5.242
27945WAT     H184077   5.359   0.893   5.306
27945WAT     H284078   5.200   0.855   5.292
27946WAT      O84079   4.656   0.039   4.701
27946WAT     H184080   4.625   0.130   4.672
27946WAT     H284081   4.641  -0.027   4.627
27947WAT      O84082   7.620   1.945   4.330
27947WAT     H184083   7.707   1.977   4.369
27947WAT     H284084   7.549   2.013   4.348
27948WAT      O84085   8.568   3.613   7.344
27948WAT     H184086   8.589   3.613   7.246
27948WAT     H284087   8.514   3.694   7.367
27949WAT      O84088   3.226   5.590   0.324
27949WAT     H184089   3.261   5.595   0.417
27949WAT     H284090   3.230   5.496   0.291
27950WAT      O84091   2.774   5.988   6.105
27950WAT     H184092   2.845   5.925   6.075
27950WAT     H284093   2.771   6.066   6.042
27951WAT      O84094   5.314   4.924   0.891
27951WAT     H184095   5.317   4.924   0.991
27951WAT     H284096   5.406   4.908   0.855
27952WAT      O84097   9.813   4.713   9.373
27952WAT     H184098   9.773   4.649   9.438
27952WAT     H284099   9.816   4.671   9.282
27953WAT      O84100   7.816   8.161   6.337
27953WAT     H184101   7.895   8.203   6.382
27953WAT     H284102   7.790   8.214   6.257
27954WAT      O84103   4.820   3.151   0.192
27954WAT     H184104   4.867   3.193   0.114
27954WAT     H284105   4.806   3.220   0.263
27955WAT      O84106   6.214   3.931   7.706
27955WAT     H184107   6.313   3.914   7.707
27955WAT     H284108   6.192   3.995   7.632
27956WAT      O84109   7.846   0.077   1.508
27956WAT     H184110   7.936   0.032   1.506
27956WAT     H284111   7.774   0.008   1.510
27957WAT      O84112   8.009   9.177   0.971
27957WAT     H184113   8.015   9.108   1.043
27957WAT     H284114   8.085   9.242   0.981
27958WAT      O84115   6.376   4.282   1.309
27958WAT     H184116   6.380   4.290   1.409
27958WAT     H284117   6.467   4.299   1.271
27959WAT      O84118   5.485   8.160   6.744
27959WAT     H184119   5.491   8.188   6.840
27959WAT     H284120   5.488   8.061   6.738
27960WAT      O84121   4.195   5.126   6.808
27960WAT     H184122   4.280   5.160   6.768
27960WAT     H284123   4.128   5.200   6.813
27961WAT      O84124   1.447   5.557   8.754
27961WAT     H184125   1.490   5.644   8.778
27961WAT     H284126   1.360   5.547   8.801
27962WAT      O84127   2.981   1.688   8.717
27962WAT     H184128   2.954   1.698   8.813
27962WAT     H284129   2.914   1.734   8.659
27963WAT      O84130   1.861   6.344   7.647
27963WAT     H184131   1.887   6.438   7.627
27963WAT     H284132   1.943   6.288   7.655
27964WAT      O84133   8.113   7.537   9.296
27964WAT     H184134   8.101   7.459   9.235
27964WAT     H284135   8.049   7.530   9.373
27965WAT      O84136   8.164   4.029   8.542
27965WAT     H184137   8.157   3.994   8.449
27965WAT     H284138   8.258   4.058   8.560
27966WAT      O84139   2.095   0.639   5.268
27966WAT     H184140   2.166   0.659   5.201
27966WAT     H284141   2.012   0.690   5.245
27967WAT      O84142   8.626   3.508   8.378
27967WAT     H184143   8.721   3.481   8.395
27967WAT     H284144   8.593   3.564   8.454
27968WAT      O84145   4.949   0.015   2.835
27968WAT     H184146   4.900   0.082   2.780
27968WAT     H284147   4.980   0.057   2.920
27969WAT      O84148   9.392   6.509   5.389
27969WAT     H184149   9.463   6.535   5.454
27969WAT     H284150   9.313   6.473   5.438
27970WAT      O84151   2.249   7.288   1.889
27970WAT     H184152   2.303   7.217   1.935
27970WAT     H284153   2.174   7.245   1.839
27971WAT      O84154   3.768   2.822   5.516
27971WAT     H184155   3.866   2.804   5.515
27971WAT     H284156   3.732   2.817   5.423
27972WAT      O84157   8.981   2.636   3.029
27972WAT     H184158   8.926   2.677   2.957
27972WAT     H284159   9.065   2.597   2.990
27973WAT      O84160   7.995   5.313   5.592
27973WAT     H184161   7.965   5.283   5.683
27973WAT     H284162   8.095   5.311   5.588
27974WAT      O84163   0.749   4.119   0.454
27974WAT     H184164   0.752   4.161   0.545
27974WAT     H284165   0.736   4.190   0.385
27975WAT      O84166   9.742   4.975   8.228
27975WAT     H184167   9.672   4.954   8.160
27975WAT     H284168   9.754   5.074   8.235
27976WAT      O84169   0.916   6.007   8.673
27976WAT     H184170   0.830   6.001   8.622
27976WAT     H284171   0.976   6.072   8.628
27977WAT      O84172   0.815   4.813   2.852
27977WAT     H184173   0.852   4.814   2.944
27977WAT     H284174   0.758   4.732   2.840
27978WAT      O84175   7.596   0.715   6.751
27978WAT     H184176   7.560   0.798   6.795
27978WAT     H284177   7.607   0.643   6.820
27979WAT      O84178   4.193   9.706   8.068
27979WAT     H184179   4.286   9.738   8.082
27979WAT     H284180   4.129   9.783   8.076
27980WAT      O84181   5.742   7.980   2.487
27980WAT     H184182   5.825   7.968   2.432
27980WAT     H284183   5.758   7.943   2.579
27981WAT      O84184   6.892   7.234   6.562
27981WAT     H184185   6.810   7.178   6.555
27981WAT     H284186   6.949   7.220   6.480
27982WAT      O84187   3.964   4.473   3.833
27982WAT     H184188   3.910   4.546   3.792
27982WAT     H284189   4.004   4.505   3.919
27983WAT      O84190   0.526   9.496   7.649
27983WAT     H184191   0.518   9.515   7.552
27983WAT     H284192   0.523   9.583   7.700
27984WAT      O84193   0.530   8.943   0.977
27984WAT     H184194   0.625   8.926   1.001
27984WAT     H284195   0.514   8.918   0.881
27985WAT      O84196   0.288   9.604   3.592
27985WAT     H184197   0.307   9.691   3.638
27985WAT     H284198   0.361   9.540   3.611
27986WAT      O84199   4.250   7.787   8.300
27986WAT     H184200   4.340   7.831   8.297
27986WAT     H284201   4.179   7.857   8.299
27987WAT      O84202   8.781   7.774   7.298
27987WAT     H184203   8.821   7.776   7.390
27987WAT     H284204   8.692   7.729   7.302
27988WAT      O84205   2.391   0.082   3.829
27988WAT     H184206   2.315   0.033   3.871
27988WAT     H284207   2.356   0.151   3.766
27989WAT      O84208   8.916   4.859   6.640
27989WAT     H184209   8.832   4.913   6.639
27989WAT     H284210   8.959   4.862   6.550
27990WAT      O84211   9.618   9.526   9.125
27990WAT     H184212   9.545   9.587   9.095
27990WAT     H284213   9.704   9.553   9.082
27991WAT      O84214   1.439   9.163   3.417
27991WAT     H184215   1.498   9.159   3.336
27991WAT     H284216   1.356   9.110   3.401
27992WAT      O84217   2.025   6.979   8.304
27992WAT     H184218   1.968   7.061   8.310
27992WAT     H284219   2.088   6.989   8.227
27993WAT      O84220   7.405   4.961   0.901
27993WAT     H184221   7.482   5.022   0.887
27993WAT     H284222   7.342   5.001   0.967
27994WAT      O84223   0.183   6.365   6.735
27994WAT     H184224   0.258   6.300   6.746
27994WAT     H284225   0.187   6.434   6.807
27995WAT      O84226   6.014   5.909   1.065
27995WAT     H184227   6.083   5.848   1.026
27995WAT     H284228   6.049   6.003   1.066
27996WAT      O84229   1.471   1.653   8.129
27996WAT     H184230   1.546   1.615   8.183
27996WAT     H284231   1.497   1.654   8.032
27997WAT      O84232   3.653   5.755   2.747
27997WAT     H184233   3.638   5.853   2.754
27997WAT     H284234   3.730   5.737   2.686
27998WAT      O84235   5.642   6.931   4.325
27998WAT     H184236   5.664   6.861   4.394
27998WAT     H284237   5.555   6.974   4.348
27999WAT      O84238   6.411   4.168   9.445
27999WAT     H184239   6.406   4.227   9.364
27999WAT     H284240   6.320   4.155   9.482
28000WAT      O84241   4.608   8.426   1.901
28000WAT     H184242   4.634   8.348   1.845
28000WAT     H284243   4.682   8.493   1.902
28001WAT      O84244   7.618   8.270   7.051
28001WAT     H184245   7.589   8.354   7.004
28001WAT     H284246   7.565   8.192   7.016
28002WAT      O84247   5.776   6.396   3.377
28002WAT     H184248   5.805   6.452   3.454
28002WAT     H284249   5.726   6.453   3.311
28003WAT      O84250   1.935   3.180   8.512
28003WAT     H184251   1.988   3.151   8.592
28003WAT     H284252   1.947   3.113   8.438
28004WAT      O84253   7.362   4.036   6.179
28004WAT     H184254   7.305   3.962   6.142
28004WAT     H284255   7.398   4.090   6.103
28005WAT      O84256   0.124   4.253   2.016
28005WAT     H184257   0.108   4.168   2.065
28005WAT     H284258   0.105   4.330   2.077
28006WAT      O84259   2.485   9.819   7.371
28006WAT     H184260   2.493   9.834   7.273
28006WAT     H284261   2.403   9.766   7.390
28007WAT      O84262   2.241   4.821   1.968
28007WAT     H184263   2.142   4.812   1.980
28007WAT     H284264   2.262   4.845   1.874
28008WAT      O84265   1.725   9.608   7.017
28008WAT     H184266   1.796   9.664   6.974
28008WAT     H284267   1.641   9.614   6.963
28009WAT      O84268   1.675   9.227   8.162
28009WAT     H184269   1.598   9.283   8.131
28009WAT     H284270   1.719   9.184   8.083
28010WAT      O84271   4.456   2.821   7.181
28010WAT     H184272   4.366   2.797   7.217
28010WAT     H284273   4.462   2.794   7.085
28011WAT      O84274   6.086   1.332   1.613
28011WAT     H184275   6.166   1.384   1.582
28011WAT     H284276   6.111   1.275   1.691
28012WAT      O84277   5.803   3.762   3.699
28012WAT     H184278   5.871   3.707   3.652
28012WAT     H284279   5.713   3.719   3.691
28013WAT      O84280   3.367   2.811   4.440
28013WAT     H184281   3.307   2.760   4.502
28013WAT     H284282   3.375   2.905   4.472
28014WAT      O84283   9.585   5.110   5.136
28014WAT     H184284   9.490   5.080   5.127
28014WAT     H284285   9.646   5.039   5.100
28015WAT      O84286   9.163   1.267   3.131
28015WAT     H184287   9.199   1.175   3.115
28015WAT     H284288   9.067   1.260   3.159
28016WAT      O84289   5.030   1.982   5.205
28016WAT     H184290   5.030   1.910   5.273
28016WAT     H284291   5.066   1.946   5.118
28017WAT      O84292   1.712   6.265   2.964
28017WAT     H184293   1.790   6.208   2.939
28017WAT     H284294   1.717   6.290   3.060
28018WAT      O84295   3.299   0.469   8.584
28018WAT     H184296   3.274   0.400   8.516
28018WAT     H284297   3.340   0.423   8.663
28019WAT      O84298   6.857   4.703   4.794
28019WAT     H184299   6.803   4.621   4.815
28019WAT     H284300   6.804   4.764   4.735
28020WAT      O84301   0.013   9.627   8.094
28020WAT     H184302   0.053   9.668   8.012
28020WAT     H284303  -0.080   9.598   8.075
28021WAT      O84304   2.020   6.948   3.254
28021WAT     H184305   2.096   6.905   3.303
28021WAT     H284306   2.001   6.896   3.171
28022WAT      O84307   7.034   3.492   3.119
28022WAT     H184308   7.124   3.526   3.094
28022WAT     H284309   6.971   3.503   3.041
28023WAT      O84310   8.091   1.735   4.006
28023WAT     H184311   8.058   1.825   4.033
28023WAT     H284312   8.182   1.743   3.966
28024WAT      O84313   5.946   2.344   0.701
28024WAT     H184314   6.021   2.394   0.658
28024WAT     H284315   5.919   2.268   0.643
28025WAT      O84316   1.795   3.907   6.848
28025WAT     H184317   1.715   3.872   6.798
28025WAT     H284318   1.862   3.943   6.783
28026WAT      O84319   3.419   1.272   2.488
28026WAT     H184320   3.467   1.275   2.576
28026WAT     H284321   3.398   1.365   2.458
28027WAT      O84322   2.861   0.253   2.068
28027WAT     H184323   2.926   0.192   2.021
28027WAT     H284324   2.800   0.198   2.125
28028WAT      O84325   3.581   5.413   1.222
28028WAT     H184326   3.561   5.367   1.135
28028WAT     H284327   3.561   5.351   1.298
28029WAT      O84328   6.397   0.237   2.965
28029WAT     H184329   6.299   0.250   2.982
28029WAT     H284330   6.423   0.286   2.882
28030WAT      O84331   8.665   8.023   8.638
28030WAT     H184332   8.631   8.113   8.610
28030WAT     H284333   8.752   8.005   8.592
28031WAT      O84334   7.734   6.317   1.706
28031WAT     H184335   7.699   6.399   1.750
28031WAT     H284336   7.680   6.297   1.624
28032WAT      O84337   7.568   4.964   1.373
28032WAT     H184338   7.649   4.914   1.344
28032WAT     H284339   7.593   5.029   1.445
28033WAT      O84340   5.825   5.149   6.793
28033WAT     H184341   5.864   5.111   6.877
28033WAT     H284342   5.782   5.237   6.813
28034WAT      O84343   3.853   1.427   2.717
28034WAT     H184344   3.883   1.475   2.635
28034WAT     H284345   3.909   1.346   2.731
28035WAT      O84346   3.956   4.002   5.295
28035WAT     H184347   3.859   3.988   5.314
28035WAT     H284348   3.965   4.054   5.209
28036WAT      O84349   4.627   1.746   7.867
28036WAT     H184350   4.577   1.716   7.786
28036WAT     H284351   4.719   1.774   7.842
28037WAT      O84352   8.960   2.110   6.554
28037WAT     H184353   8.924   2.147   6.469
28037WAT     H284354   9.020   2.177   6.597
28038WAT      O84355   4.503   3.648   0.788
28038WAT     H184356   4.525   3.741   0.759
28038WAT     H284357   4.485   3.591   0.708
28039WAT      O84358   4.829   5.194   9.083
28039WAT     H184359   4.858   5.196   9.179
28039WAT     H284360   4.907   5.170   9.025
28040WAT      O84361   3.021   8.689   9.159
28040WAT     H184362   2.949   8.732   9.105
28040WAT     H284363   3.003   8.591   9.166
28041WAT      O84364   3.841   7.832   7.751
28041WAT     H184365   3.844   7.844   7.652
28041WAT     H284366   3.757   7.784   7.776
28042WAT      O84367   1.672   8.741   2.776
28042WAT     H184368   1.687   8.644   2.790
28042WAT     H284369   1.678   8.762   2.678
28043WAT      O84370   2.564   9.346   4.080
28043WAT     H184371   2.490   9.381   4.022
28043WAT     H284372   2.595   9.258   4.044
28044WAT      O84373   7.995   3.484   9.021
28044WAT     H184374   7.993   3.571   8.972
28044WAT     H284375   7.989   3.409   8.955
28045WAT      O84376   9.520   9.342   8.939
28045WAT     H184377   9.442   9.293   8.978
28045WAT     H284378   9.572   9.386   9.012
28046WAT      O84379   2.043   1.469   7.296
28046WAT     H184380   2.033   1.449   7.198
28046WAT     H284381   2.085   1.559   7.307
28047WAT      O84382   6.701   6.157   9.468
28047WAT     H184383   6.645   6.186   9.391
28047WAT     H284384   6.646   6.156   9.552
28048WAT      O84385   3.570   2.637   0.440
28048WAT     H184386   3.519   2.552   0.426
28048WAT     H284387   3.510   2.705   0.482
28049WAT      O84388   9.787   4.293   5.950
28049WAT     H184389   9.748   4.211   5.908
28049WAT     H284390   9.861   4.267   6.012
28050WAT      O84391   0.738   4.801   1.276
28050WAT     H184392   0.731   4.783   1.178
28050WAT     H284393   0.787   4.887   1.291
28051WAT      O84394   8.204   0.087   4.130
28051WAT     H184395   8.137   0.052   4.195
28051WAT     H284396   8.287   0.033   4.134
28052WAT      O84397   5.693   3.664   5.317
28052WAT     H184398   5.690   3.752   5.365
28052WAT     H284399   5.784   3.649   5.280
28053WAT      O84400   3.914   4.206   8.054
28053WAT     H184401   3.960   4.283   8.098
28053WAT     H284402   3.880   4.144   8.125
28054WAT      O84403   0.525   1.893   2.581
28054WAT     H184404   0.589   1.843   2.640
28054WAT     H284405   0.527   1.990   2.603
28055WAT      O84406   6.782   5.724   0.111
28055WAT     H184407   6.811   5.783   0.186
28055WAT     H284408   6.801   5.629   0.134
28056WAT      O84409   7.009   5.037   5.136
28056WAT     H184410   7.041   4.951   5.177
28056WAT     H284411   6.981   5.021   5.042
28057WAT      O84412   4.578   5.564   7.182
28057WAT     H184413   4.494   5.596   7.223
28057WAT     H284414   4.656   5.610   7.224
28058WAT      O84415   8.414   6.128   2.657
28058WAT     H184416   8.488   6.092   2.599
28058WAT     H284417   8.424   6.227   2.666
28059WAT      O84418   5.838   7.340   1.924
28059WAT     H184419   5.801   7.247   1.923
28059WAT     H284420   5.929   7.339   1.966
28060WAT      O84421   6.721   7.557   8.048
28060WAT     H184422   6.654   7.598   8.110
28060WAT     H284423   6.811   7.596   8.066
28061WAT      O84424   2.588   2.690   7.877
28061WAT     H184425   2.678   2.723   7.848
28061WAT     H284426   2.529   2.678   7.797
28062WAT      O84427   4.210   7.381   7.446
28062WAT     H184428   4.193   7.390   7.348
28062WAT     H284429   4.195   7.286   7.473
28063WAT      O84430   9.802   7.915   7.485
28063WAT     H184431   9.800   7.890   7.388
28063WAT     H284432   9.896   7.907   7.520
28064WAT      O84433   1.910   9.021   4.773
28064WAT     H184434   1.956   9.003   4.686
28064WAT     H284435   1.816   9.049   4.755
28065WAT      O84436   4.781   8.789   0.577
28065WAT     H184437   4.695   8.820   0.617
28065WAT     H284438   4.786   8.819   0.482
28066WAT      O84439   1.860   4.177   1.234
28066WAT     H184440   1.847   4.083   1.202
28066WAT     H284441   1.801   4.194   1.313
28067WAT      O84442   7.192   2.652   6.401
28067WAT     H184443   7.148   2.711   6.334
28067WAT     H284444   7.228   2.707   6.476
28068WAT      O84445   8.732   5.521   8.624
28068WAT     H184446   8.722   5.471   8.538
28068WAT     H284447   8.699   5.615   8.613
28069WAT      O84448   6.969   2.964   3.885
28069WAT     H184449   6.950   3.054   3.846
28069WAT     H284450   7.062   2.936   3.861
28070WAT      O84451   7.412   0.104   8.275
28070WAT     H184452   7.361   0.145   8.350
28070WAT     H284453   7.467   0.175   8.230
28071WAT      O84454   6.446   5.783   4.318
28071WAT     H184455   6.489   5.818   4.235
28071WAT     H284456   6.400   5.696   4.299
28072WAT      O84457   4.789   1.570   7.038
28072WAT     H184458   4.835   1.501   6.984
28072WAT     H284459   4.856   1.624   7.089
28073WAT      O84460   2.163   9.302   8.393
28073WAT     H184461   2.089   9.369   8.377
28073WAT     H284462   2.212   9.326   8.476
28074WAT      O84463   6.113   5.974   6.392
28074WAT     H184464   6.022   6.013   6.374
28074WAT     H284465   6.165   5.969   6.307
28075WAT      O84466   1.719   2.691   4.266
28075WAT     H184467   1.715   2.717   4.170
28075WAT     H284468   1.639   2.636   4.290
28076WAT      O84469   1.758   0.786   6.824
28076WAT     H184470   1.810   0.857   6.777
28076WAT     H284471   1.814   0.746   6.896
28077WAT      O84472   0.736   3.756   4.041
28077WAT     H184473   0.746   3.802   4.129
28077WAT     H284474   0.643   3.770   4.007
28078WAT      O84475   8.305   5.538   7.369
28078WAT     H184476   8.255   5.609   7.320
28078WAT     H284477   8.391   5.519   7.322
28079WAT      O84478   4.490   9.340   8.739
28079WAT     H184479   4.566   9.345   8.674
28079WAT     H284480   4.527   9.332   8.832
28080WAT      O84481   7.144   3.650   4.941
28080WAT     H184482   7.216   3.716   4.960
28080WAT     H284483   7.077   3.691   4.879
28081WAT      O84484   2.598   8.360   1.965
28081WAT     H184485   2.685   8.328   1.927
28081WAT     H284486   2.615   8.410   2.050
28082WAT      O84487   0.987   3.379   7.926
28082WAT     H184488   0.914   3.439   7.894
28082WAT     H284489   1.056   3.367   7.854
28083WAT      O84490   6.548   5.700   0.834
28083WAT     H184491   6.625   5.740   0.783
28083WAT     H284492   6.537   5.604   0.807
28084WAT      O84493   7.304   3.729   3.692
28084WAT     H184494   7.222   3.693   3.648
28084WAT     H284495   7.354   3.786   3.627
28085WAT      O84496   0.038   5.478   6.378
28085WAT     H184497   0.070   5.384   6.383
28085WAT     H284498   0.033   5.516   6.471
28086WAT      O84499   6.077   7.074   6.754
28086WAT     H184500   5.998   7.020   6.723
28086WAT     H284501   6.066   7.169   6.724
28087WAT      O84502   3.503   3.644   3.209
28087WAT     H184503   3.457   3.711   3.151
28087WAT     H284504   3.483   3.552   3.177
28088WAT      O84505   4.280   0.215   7.959
28088WAT     H184506   4.282   0.314   7.943
28088WAT     H284507   4.242   0.170   7.878
28089WAT      O84508   7.833   0.520   5.975
28089WAT     H184509   7.818   0.548   5.881
28089WAT     H284510   7.927   0.541   6.003
28090WAT      O84511   0.510   0.514   1.095
28090WAT     H184512   0.484   0.549   1.185
28090WAT     H284513   0.604   0.482   1.098
28091WAT      O84514   6.200   8.492   0.970
28091WAT     H184515   6.278   8.542   1.009
28091WAT     H284516   6.119   8.550   0.972
28092WAT      O84517   2.793   4.587   1.257
28092WAT     H184518   2.888   4.602   1.286
28092WAT     H284519   2.784   4.611   1.160
28093WAT      O84520   9.704   9.794   3.952
28093WAT     H184521   9.777   9.737   3.916
28093WAT     H284522   9.727   9.890   3.939
28094WAT      O84523   3.516   2.310   6.018
28094WAT     H184524   3.552   2.267   6.101
28094WAT     H284525   3.592   2.343   5.962
28095WAT      O84526   3.344   2.307   4.861
28095WAT     H184527   3.356   2.404   4.880
28095WAT     H284528   3.247   2.284   4.860
28096WAT      O84529   8.955   4.899   8.760
28096WAT     H184530   8.934   4.899   8.858
28096WAT     H284531   8.928   4.987   8.721
28097WAT      O84532   9.724   0.734   5.829
28097WAT     H184533   9.682   0.700   5.913
28097WAT     H284534   9.652   0.757   5.763
28098WAT      O84535   5.788   6.290   7.182
28098WAT     H184536   5.830   6.363   7.127
28098WAT     H284537   5.805   6.202   7.139
28099WAT      O84538   8.113   5.117   4.879
28099WAT     H184539   8.157   5.166   4.804
28099WAT     H284540   8.016   5.106   4.860
28100WAT      O84541   4.966   5.879   7.292
28100WAT     H184542   4.955   5.911   7.198
28100WAT     H284543   5.063   5.880   7.316
28101WAT      O84544   1.909   1.427   6.131
28101WAT     H184545   1.900   1.526   6.143
28101WAT     H284546   1.853   1.398   6.054
28102WAT      O84547   6.928   5.825   8.993
28102WAT     H184548   6.983   5.909   8.987
28102WAT     H284549   6.958   5.760   8.923
28103WAT      O84550   6.002   6.812   5.754
28103WAT     H184551   5.926   6.859   5.799
28103WAT     H284552   5.967   6.741   5.694
28104WAT      O84553   6.114   2.007   0.659
28104WAT     H184554   6.072   1.944   0.593
28104WAT     H284555   6.086   2.101   0.637
28105WAT      O84556   7.691   7.826   8.747
28105WAT     H184557   7.711   7.890   8.821
28105WAT     H284558   7.776   7.792   8.708
28106WAT      O84559   3.053   3.549   4.278
28106WAT     H184560   3.145   3.519   4.255
28106WAT     H284561   2.991   3.471   4.274
28107WAT      O84562   8.874   5.773   0.053
28107WAT     H184563   8.902   5.853  -0.001
28107WAT     H284564   8.912   5.780   0.145
28108WAT      O84565   0.419   9.372   2.768
28108WAT     H184566   0.495   9.427   2.734
28108WAT     H284567   0.453   9.305   2.833
28109WAT      O84568   6.929   1.256   7.045
28109WAT     H184569   6.937   1.348   7.084
28109WAT     H284570   6.892   1.194   7.115
28110WAT      O84571   2.629   5.965   1.088
28110WAT     H184572   2.714   6.018   1.084
28110WAT     H284573   2.583   5.983   1.175
28111WAT      O84574   5.893   5.092   3.710
28111WAT     H184575   5.795   5.077   3.724
28111WAT     H284576   5.945   5.017   3.751
28112WAT      O84577   5.675   3.495   8.070
28112WAT     H184578   5.734   3.478   7.991
28112WAT     H284579   5.626   3.411   8.094
28113WAT      O84580   0.618   2.944   1.791
28113WAT     H184581   0.603   2.901   1.702
28113WAT     H284582   0.716   2.955   1.807
28114WAT      O84583   7.375   3.657   1.075
28114WAT     H184584   7.275   3.650   1.069
28114WAT     H284585   7.416   3.592   1.011
28115WAT      O84586   5.327   8.045   8.331
28115WAT     H184587   5.366   7.993   8.406
28115WAT     H284588   5.371   8.017   8.245
28116WAT      O84589   3.141   5.847   2.830
28116WAT     H184590   3.216   5.857   2.764
28116WAT     H284591   3.168   5.782   2.901
28117WAT      O84592   0.697   1.729   9.600
28117WAT     H184593   0.713   1.663   9.673
28117WAT     H284594   0.680   1.681   9.514
28118WAT      O84595   8.741   8.854   2.714
28118WAT     H184596   8.798   8.900   2.783
28118WAT     H284597   8.689   8.922   2.663
28119WAT      O84598   4.671   0.541   2.123
28119WAT     H184599   4.712   0.499   2.042
28119WAT     H284600   4.611   0.616   2.094
28120WAT      O84601   2.180   0.003   3.987
28120WAT     H184602   2.151   0.058   4.065
28120WAT     H284603   2.235  -0.074   4.019
28121WAT      O84604   6.376   1.012   6.838
28121WAT     H184605   6.374   0.917   6.806
28121WAT     H284606   6.345   1.072   6.764
28122WAT      O84607   2.002   6.782   1.858
28122WAT     H184608   1.904   6.766   1.857
28122WAT     H284609   2.051   6.695   1.850
28123WAT      O84610   3.460   5.929   2.055
28123WAT     H184611   3.436   5.839   2.093
28123WAT     H284612   3.549   5.924   2.010
28124WAT      O84613   5.105   6.321   1.240
28124WAT     H184614   5.197   6.335   1.205
28124WAT     H284615   5.076   6.402   1.291
28125WAT      O84616   0.722   4.738   0.678
28125WAT     H184617   0.664   4.656   0.676
28125WAT     H284618   0.678   4.808   0.734
28126WAT      O84619   5.426   5.376   7.384
28126WAT     H184620   5.478   5.385   7.469
28126WAT     H284621   5.359   5.450   7.379
28127WAT      O84622   2.994   6.527   2.619
28127WAT     H184623   2.969   6.430   2.621
28127WAT     H284624   3.086   6.539   2.655
28128WAT      O84625   1.889   5.507   9.417
28128WAT     H184626   1.954   5.483   9.490
28128WAT     H284627   1.835   5.586   9.445
28129WAT      O84628   8.819   0.221   0.599
28129WAT     H184629   8.794   0.255   0.508
28129WAT     H284630   8.808   0.295   0.666
28130WAT      O84631   3.527   4.521   4.885
28130WAT     H184632   3.562   4.596   4.828
28130WAT     H284633   3.580   4.438   4.867
28131WAT      O84634   7.145   4.665   2.610
28131WAT     H184635   7.073   4.692   2.673
28131WAT     H284636   7.105   4.639   2.522
28132WAT      O84637   6.233   0.078   8.693
28132WAT     H184638   6.176   0.002   8.663
28132WAT     H284639   6.328   0.060   8.668
28133WAT      O84640   7.672   9.732   1.084
28133WAT     H184641   7.633   9.772   1.167
28133WAT     H284642   7.747   9.789   1.051
28134WAT      O84643   5.123   9.132   1.274
28134WAT     H184644   5.125   9.230   1.253
28134WAT     H284645   5.155   9.081   1.194
28135WAT      O84646   3.031   1.252   3.968
28135WAT     H184647   2.973   1.197   4.029
28135WAT     H284648   2.978   1.281   3.889
28136WAT      O84649   7.102   9.346   5.271
28136WAT     H184650   7.053   9.403   5.337
28136WAT     H284651   7.040   9.319   5.198
28137WAT      O84652   1.592   0.383   9.608
28137WAT     H184653   1.511   0.427   9.646
28137WAT     H284654   1.674   0.418   9.654
28138WAT      O84655   5.072   4.010   0.006
28138WAT     H184656   5.041   3.915   0.014
28138WAT     H284657   5.165   4.018   0.042
28139WAT      O84658   9.582   4.784   3.483
28139WAT     H184659   9.674   4.811   3.454
28139WAT     H284660   9.544   4.855   3.541
28140WAT      O84661   0.194   9.310   0.654
28140WAT     H184662   0.233   9.282   0.741
28140WAT     H284663   0.109   9.260   0.638
28141WAT      O84664   5.030   0.480   7.095
28141WAT     H184665   5.000   0.442   7.008
28141WAT     H284666   4.981   0.565   7.113
28142WAT      O84667   6.309   0.032   0.946
28142WAT     H184668   6.359   0.083   1.016
28142WAT     H284669   6.375  -0.010   0.883
28143WAT      O84670   3.833   6.765   1.310
28143WAT     H184671   3.933   6.758   1.318
28143WAT     H284672   3.809   6.794   1.218
28144WAT      O84673   1.502   3.029   0.094
28144WAT     H184674   1.526   3.099   0.162
28144WAT     H284675   1.403   3.025   0.084
28145WAT      O84676   1.577   7.287   6.143
28145WAT     H184677   1.602   7.193   6.120
28145WAT     H284678   1.581   7.299   6.242
28146WAT      O84679   3.092   0.979   7.636
28146WAT     H184680   3.004   0.987   7.590
28146WAT     H284681   3.130   1.070   7.653
28147WAT      O84682   2.350   7.662   8.693
28147WAT     H184683   2.412   7.657   8.614
28147WAT     H284684   2.350   7.756   8.729
28148WAT      O84685   3.478   5.292   6.491
28148WAT     H184686   3.512   5.376   6.533
28148WAT     H284687   3.452   5.311   6.396
28149WAT      O84688   9.164   7.749   1.322
28149WAT     H184689   9.158   7.693   1.240
28149WAT     H284690   9.096   7.719   1.388
28150WAT      O84691   2.864   3.522   6.978
28150WAT     H184692   2.850   3.445   6.916
28150WAT     H284693   2.962   3.534   6.994
28151WAT      O84694   3.785   1.013   0.030
28151WAT     H184695   3.839   0.958  -0.034
28151WAT     H284696   3.822   1.003   0.122
28152WAT      O84697   8.015   8.773   5.974
28152WAT     H184698   7.965   8.826   5.904
28152WAT     H284699   8.052   8.836   6.043
28153WAT      O84700   6.984   3.313   0.311
28153WAT     H184701   6.978   3.354   0.402
28153WAT     H284702   6.997   3.386   0.243
28154WAT      O84703   5.570   9.105   8.622
28154WAT     H184704   5.473   9.089   8.641
28154WAT     H284705   5.594   9.063   8.534
28155WAT      O84706   4.477   8.128   8.124
28155WAT     H184707   4.421   8.058   8.079
28155WAT     H284708   4.546   8.161   8.059
28156WAT      O84709   4.256   2.843   0.505
28156WAT     H184710   4.188   2.878   0.569
28156WAT     H284711   4.223   2.757   0.464
28157WAT      O84712   8.925   7.014   7.624
28157WAT     H184713   8.888   6.973   7.541
28157WAT     H284714   8.965   7.103   7.602
28158WAT      O84715   8.962   2.283   2.742
28158WAT     H184716   8.970   2.379   2.714
28158WAT     H284717   8.892   2.238   2.688
28159WAT      O84718   5.370   0.849   8.067
28159WAT     H184719   5.468   0.842   8.087
28159WAT     H284720   5.348   0.789   7.990
28160WAT      O84721   9.544   7.668   5.340
28160WAT     H184722   9.548   7.691   5.438
28160WAT     H284723   9.591   7.581   5.324
28161WAT      O84724   1.746   4.442   9.861
28161WAT     H184725   1.799   4.358   9.876
28161WAT     H284726   1.786   4.517   9.913
28162WAT      O84727   1.797   2.218   3.370
28162WAT     H184728   1.729   2.172   3.313
28162WAT     H284729   1.888   2.204   3.331
28163WAT      O84730   9.086   3.106   3.419
28163WAT     H184731   9.072   3.042   3.343
28163WAT     H284732   9.158   3.171   3.395
28164WAT      O84733   5.793   7.654   2.213
28164WAT     H184734   5.767   7.557   2.208
28164WAT     H284735   5.893   7.661   2.212
28165WAT      O84736   9.655   8.384   9.299
28165WAT     H184737   9.718   8.340   9.363
28165WAT     H284738   9.584   8.318   9.273
28166WAT      O84739   8.138   7.523   9.734
28166WAT     H184740   8.234   7.505   9.714
28166WAT     H284741   8.128   7.544   9.832
28167WAT      O84742   7.344   2.137   9.765
28167WAT     H184743   7.436   2.157   9.732
28167WAT     H284744   7.338   2.040   9.790
28168WAT      O84745   4.997   5.521   4.512
28168WAT     H184746   5.058   5.596   4.488
28168WAT     H284747   5.045   5.434   4.499
28169WAT      O84748   8.739   3.980   3.734
28169WAT     H184749   8.686   3.993   3.818
28169WAT     H284750   8.723   3.888   3.699
28170WAT      O84751   2.012   3.947   0.143
28170WAT     H184752   1.952   3.881   0.097
28170WAT     H284753   2.077   3.985   0.077
28171WAT      O84754   8.638   8.812   3.123
28171WAT     H184755   8.598   8.798   3.032
28171WAT     H284756   8.738   8.815   3.115
28172WAT      O84757   3.387   6.894   3.110
28172WAT     H184758   3.343   6.804   3.104
28172WAT     H284759   3.366   6.947   3.029
28173WAT      O84760   3.520   7.097   5.874
28173WAT     H184761   3.592   7.107   5.943
28173WAT     H284762   3.533   7.165   5.802
28174WAT      O84763   0.937   8.995   2.628
28174WAT     H184764   0.996   8.999   2.708
28174WAT     H284765   0.846   8.963   2.654
28175WAT      O84766   2.202   1.487   0.037
28175WAT     H184767   2.278   1.530   0.086
28175WAT     H284768   2.119   1.539   0.053
28176WAT      O84769   7.934   3.784   5.882
28176WAT     H184770   7.965   3.738   5.965
28176WAT     H284771   8.014   3.811   5.827
28177WAT      O84772   4.084   6.080   0.411
28177WAT     H184773   4.159   6.106   0.472
28177WAT     H284774   4.033   6.162   0.384
28178WAT      O84775   7.641   5.893   0.488
28178WAT     H184776   7.556   5.910   0.438
28178WAT     H284777   7.620   5.876   0.584
28179WAT      O84778   0.856   9.474   6.543
28179WAT     H184779   0.877   9.508   6.451
28179WAT     H284780   0.905   9.528   6.611
28180WAT      O84781   9.409   6.731   5.235
28180WAT     H184782   9.389   6.644   5.281
28180WAT     H284783   9.383   6.725   5.139
28181WAT      O84784   4.647   9.296   5.323
28181WAT     H184785   4.593   9.357   5.381
28181WAT     H284786   4.732   9.271   5.369
28182WAT      O84787   8.722   0.290   5.443
28182WAT     H184788   8.798   0.353   5.454
28182WAT     H284789   8.755   0.202   5.410
28183WAT      O84790   5.205   6.111   1.395
28183WAT     H184791   5.143   6.085   1.469
28183WAT     H284792   5.163   6.184   1.340
28184WAT      O84793   9.729   4.722   3.876
28184WAT     H184794   9.810   4.693   3.825
28184WAT     H284795   9.716   4.661   3.954
28185WAT      O84796   1.235   2.882   5.023
28185WAT     H184797   1.213   2.830   4.940
28185WAT     H284798   1.252   2.977   4.999
28186WAT      O84799   9.428   8.210   8.965
28186WAT     H184800   9.445   8.266   8.884
28186WAT     H284801   9.330   8.192   8.972
28187WAT      O84802   3.247   0.081   5.471
28187WAT     H184803   3.263   0.151   5.401
28187WAT     H284804   3.313   0.007   5.460
28188WAT      O84805   3.139   2.544   6.771
28188WAT     H184806   3.156   2.588   6.859
28188WAT     H284807   3.221   2.550   6.714
28189WAT      O84808   2.814   1.976   7.093
28189WAT     H184809   2.862   1.993   7.007
28189WAT     H284810   2.874   1.925   7.155
28190WAT      O84811   6.086   9.719   0.102
28190WAT     H184812   5.994   9.747   0.130
28190WAT     H284813   6.154   9.774   0.151
28191WAT      O84814   6.090   4.408   2.326
28191WAT     H184815   6.076   4.428   2.423
28191WAT     H284816   6.004   4.378   2.285
28192WAT      O84817   9.205   8.170   7.400
28192WAT     H184818   9.126   8.118   7.432
28192WAT     H284819   9.279   8.107   7.375
28193WAT      O84820   0.138   3.157   4.095
28193WAT     H184821   0.114   3.183   4.188
28193WAT     H284822   0.086   3.214   4.030
28194WAT      O84823   7.000   3.050   8.603
28194WAT     H184824   6.918   3.003   8.637
28194WAT     H284825   6.975   3.139   8.567
28195WAT      O84826   2.633   3.514   0.835
28195WAT     H184827   2.656   3.441   0.770
28195WAT     H284828   2.660   3.602   0.798
28196WAT      O84829   9.064   7.945   7.192
28196WAT     H184830   9.020   7.998   7.119
28196WAT     H284831   9.047   7.847   7.177
28197WAT      O84832   5.392   5.461   1.173
28197WAT     H184833   5.327   5.460   1.248
28197WAT     H284834   5.351   5.418   1.093
28198WAT      O84835   2.166   9.480   0.569
28198WAT     H184836   2.165   9.458   0.666
28198WAT     H284837   2.228   9.417   0.522
28199WAT      O84838   8.175   9.679   0.266
28199WAT     H184839   8.163   9.581   0.283
28199WAT     H284840   8.203   9.724   0.351
28200WAT      O84841   4.967   3.087   2.871
28200WAT     H184842   4.977   3.152   2.796
28200WAT     H284843   5.044   3.023   2.870
28201WAT      O84844   2.836   5.733   8.220
28201WAT     H184845   2.922   5.765   8.180
28201WAT     H284846   2.835   5.753   8.318
28202WAT      O84847   2.971   8.267   7.801
28202WAT     H184848   3.048   8.320   7.837
28202WAT     H284849   2.999   8.172   7.790
28203WAT      O84850   2.779   9.711   2.492
28203WAT     H184851   2.863   9.756   2.525
28203WAT     H284852   2.776   9.617   2.526
28204WAT      O84853   3.936   7.795   7.203
28204WAT     H184854   3.930   7.880   7.151
28204WAT     H284855   4.012   7.801   7.268
28205WAT      O84856   4.940   6.447   3.406
28205WAT     H184857   4.978   6.426   3.315
28205WAT     H284858   4.846   6.480   3.396
28206WAT      O84859   0.368   0.996   1.658
28206WAT     H184860   0.361   1.045   1.745
28206WAT     H284861   0.277   0.969   1.628
28207WAT      O84862   6.027   2.341   8.542
28207WAT     H184863   5.951   2.352   8.477
28207WAT     H284864   6.099   2.286   8.499
28208WAT      O84865   2.596   3.662   9.015
28208WAT     H184866   2.634   3.574   9.046
28208WAT     H284867   2.544   3.703   9.089
28209WAT      O84868   7.566   8.818   5.104
28209WAT     H184869   7.484   8.763   5.090
28209WAT     H284870   7.646   8.766   5.075
28210WAT      O84871   6.826   1.398   4.201
28210WAT     H184872   6.890   1.352   4.141
28210WAT     H284873   6.774   1.466   4.149
28211WAT      O84874   1.772   3.169   5.667
28211WAT     H184875   1.838   3.222   5.720
28211WAT     H284876   1.793   3.178   5.570
28212WAT      O84877   8.599   0.036   1.279
28212WAT     H184878   8.570   0.101   1.349
28212WAT     H284879   8.697   0.021   1.285
28213WAT      O84880   0.172   9.011   3.550
28213WAT     H184881   0.118   9.025   3.468
28213WAT     H284882   0.268   9.028   3.530
28214WAT      O84883   4.851   1.133   3.960
28214WAT     H184884   4.943   1.095   3.960
28214WAT     H284885   4.793   1.080   4.022
28215WAT      O84886   5.630   8.253   0.611
28215WAT     H184887   5.629   8.165   0.563
28215WAT     H284888   5.723   8.274   0.639
28216WAT      O84889   2.553   5.169   7.081
28216WAT     H184890   2.502   5.211   7.156
28216WAT     H284891   2.556   5.230   7.003
28217WAT      O84892   9.755   8.965   9.027
28217WAT     H184893   9.715   9.037   8.971
28217WAT     H284894   9.683   8.921   9.081
28218WAT      O84895   3.956   0.969   8.747
28218WAT     H184896   3.880   0.945   8.687
28218WAT     H284897   3.998   1.054   8.716
28219WAT      O84898   5.837   4.111   6.862
28219WAT     H184899   5.872   4.198   6.897
28219WAT     H284900   5.903   4.038   6.881
28220WAT      O84901   0.771   2.975   9.713
28220WAT     H184902   0.835   2.949   9.640
28220WAT     H284903   0.686   3.009   9.672
28221WAT      O84904   3.288   6.498   3.573
28221WAT     H184905   3.311   6.469   3.666
28221WAT     H284906   3.333   6.585   3.553
28222WAT      O84907   3.127   5.715   8.301
28222WAT     H184908   3.094   5.668   8.383
28222WAT     H284909   3.108   5.813   8.309
28223WAT      O84910   8.393   3.787   7.712
28223WAT     H184911   8.475   3.782   7.769
28223WAT     H284912   8.321   3.837   7.762
28224WAT      O84913   8.617   2.700   9.783
28224WAT     H184914   8.616   2.797   9.807
28224WAT     H284915   8.524   2.664   9.785
28225WAT      O84916   2.366   4.763   6.584
28225WAT     H184917   2.377   4.688   6.650
28225WAT     H284918   2.383   4.850   6.631
28226WAT      O84919   0.069   4.976   9.570
28226WAT     H184920   0.082   4.977   9.470
28226WAT     H284921   0.154   5.004   9.614
28227WAT      O84922   6.253   8.439   3.691
28227WAT     H184923   6.197   8.386   3.628
28227WAT     H284924   6.199   8.466   3.771
28228WAT      O84925   4.079   4.366   7.862
28228WAT     H184926   4.141   4.423   7.916
28228WAT     H284927   4.016   4.319   7.923
28229WAT      O84928   6.483   6.179   9.241
28229WAT     H184929   6.421   6.101   9.252
28229WAT     H284930   6.447   6.257   9.293
28230WAT      O84931   1.095   1.262   3.714
28230WAT     H184932   1.003   1.228   3.694
28230WAT     H284933   1.100   1.358   3.688
28231WAT      O84934   2.133   0.262   2.322
28231WAT     H184935   2.214   0.222   2.365
28231WAT     H284936   2.160   0.329   2.254
28232WAT      O84937   1.478   2.398   0.553
28232WAT     H184938   1.392   2.435   0.588
28232WAT     H284939   1.459   2.338   0.475
28233WAT      O84940   2.745   6.687   7.345
28233WAT     H184941   2.730   6.774   7.298
28233WAT     H284942   2.810   6.632   7.293
28234WAT      O84943   5.173   3.025   5.157
28234WAT     H184944   5.104   3.081   5.112
28234WAT     H284945   5.165   3.036   5.257
28235WAT      O84946   3.568   9.385   8.322
28235WAT     H184947   3.564   9.306   8.383
28235WAT     H284948   3.663   9.407   8.301
28236WAT      O84949   2.542   8.077   5.631
28236WAT     H184950   2.462   8.069   5.691
28236WAT     H284951   2.624   8.050   5.681
28237WAT      O84952   3.340   9.172   7.506
28237WAT     H184953   3.408   9.245   7.503
28237WAT     H284954   3.380   9.088   7.469
28238WAT      O84955   0.696   8.758   4.298
28238WAT     H184956   0.667   8.839   4.348
28238WAT     H284957   0.643   8.751   4.213
28239WAT      O84958   8.881   0.996   1.095
28239WAT     H184959   8.783   1.011   1.107
28239WAT     H284960   8.897   0.899   1.076
28240WAT      O84961   3.523   4.345   8.436
28240WAT     H184962   3.459   4.346   8.512
28240WAT     H284963   3.548   4.439   8.412
28241WAT      O84964   7.507   8.802   2.970
28241WAT     H184965   7.589   8.845   3.007
28241WAT     H284966   7.426   8.849   3.005
28242WAT      O84967   5.772   1.368   6.882
28242WAT     H184968   5.790   1.372   6.784
28242WAT     H284969   5.675   1.348   6.897
28243WAT      O84970   1.923   2.142   7.204
28243WAT     H184971   2.005   2.156   7.260
28243WAT     H284972   1.906   2.044   7.194
28244WAT      O84973   3.989   6.865   0.201
28244WAT     H184974   4.008   6.928   0.276
28244WAT     H284975   3.981   6.917   0.116
28245WAT      O84976   2.568   6.995   2.451
28245WAT     H184977   2.555   6.896   2.461
28245WAT     H284978   2.516   7.042   2.522
28246WAT      O84979   4.897   4.247   2.742
28246WAT     H184980   4.930   4.252   2.648
28246WAT     H284981   4.975   4.236   2.804
28247WAT      O84982   9.127   7.944   4.248
28247WAT     H184983   9.145   7.911   4.341
28247WAT     H284984   9.212   7.943   4.195
28248WAT      O84985   7.937   4.384   1.338
28248WAT     H184986   7.843   4.354   1.325
28248WAT     H284987   7.941   4.453   1.411
28249WAT      O84988   6.036   6.141   9.489
28249WAT     H184989   5.988   6.157   9.403
28249WAT     H284990   6.017   6.048   9.520
28250WAT      O84991   2.340   1.726   9.271
28250WAT     H184992   2.268   1.748   9.337
28250WAT     H284993   2.417   1.685   9.320
28251WAT      O84994   3.321   6.589   4.494
28251WAT     H184995   3.357   6.559   4.582
28251WAT     H284996   3.364   6.536   4.421
28252WAT      O84997   1.409   0.257   2.124
28252WAT     H184998   1.446   0.172   2.162
28252WAT     H284999   1.393   0.245   2.026
28253WAT      O85000   3.698   1.411   1.198
28253WAT     H185001   3.752   1.480   1.245
28253WAT     H285002   3.714   1.418   1.099
28254WAT      O85003   7.110   5.192   6.389
28254WAT     H185004   7.108   5.161   6.293
28254WAT     H285005   7.078   5.117   6.448
28255WAT      O85006   5.884   0.442   3.279
28255WAT     H185007   5.909   0.526   3.232
28255WAT     H285008   5.833   0.464   3.362
28256WAT      O85009   6.108   8.235   3.560
28256WAT     H185010   6.047   8.227   3.639
28256WAT     H285011   6.064   8.194   3.480
28257WAT      O85012   7.587   1.564   0.566
28257WAT     H185013   7.665   1.615   0.604
28257WAT     H285014   7.588   1.471   0.603
28258WAT      O85015   5.421   5.407   5.099
28258WAT     H185016   5.328   5.387   5.129
28258WAT     H285017   5.480   5.415   5.180
28259WAT      O85018   6.985   7.299   3.387
28259WAT     H185019   6.980   7.316   3.485
28259WAT     H285020   7.073   7.329   3.351
28260WAT      O85021   7.843   0.672   3.045
28260WAT     H185022   7.901   0.608   2.996
28260WAT     H285023   7.897   0.752   3.071
28261WAT      O85024   9.549   2.770   1.470
28261WAT     H185025   9.554   2.781   1.569
28261WAT     H285026   9.529   2.674   1.449
28262WAT      O85027   1.542   9.824   2.044
28262WAT     H185028   1.572   9.735   2.081
28262WAT     H285029   1.442   9.827   2.043
28263WAT      O85030   7.156   1.434   1.878
28263WAT     H185031   7.069   1.399   1.844
28263WAT     H285032   7.205   1.362   1.927
28264WAT      O85033   8.863   6.502   4.891
28264WAT     H185034   8.894   6.594   4.918
28264WAT     H285035   8.918   6.434   4.939
28265WAT      O85036   5.186   0.007   0.731
28265WAT     H185037   5.201   0.106   0.723
28265WAT     H285038   5.206  -0.022   0.824
28266WAT      O85039   5.432   9.485   4.119
28266WAT     H185040   5.431   9.437   4.032
28266WAT     H285041   5.506   9.449   4.177
28267WAT      O85042   3.092   8.653   0.134
28267WAT     H185043   3.031   8.674   0.211
28267WAT     H285044   3.186   8.645   0.168
28268WAT      O85045   8.383   5.617   2.736
28268WAT     H185046   8.411   5.675   2.813
28268WAT     H285047   8.452   5.546   2.722
28269WAT      O85048   9.154   8.848   3.825
28269WAT     H185049   9.128   8.756   3.795
28269WAT     H285050   9.169   8.905   3.744
28270WAT      O85051   4.625   9.465   1.793
28270WAT     H185052   4.630   9.469   1.693
28270WAT     H285053   4.550   9.406   1.821
28271WAT      O85054   1.307   4.563   4.548
28271WAT     H185055   1.331   4.565   4.451
28271WAT     H285056   1.350   4.484   4.591
28272WAT      O85057   4.096   8.399   5.694
28272WAT     H185058   4.044   8.359   5.618
28272WAT     H285059   4.152   8.475   5.661
28273WAT      O85060   6.661   3.451   1.268
28273WAT     H185061   6.750   3.489   1.242
28273WAT     H285062   6.641   3.476   1.363
28274WAT      O85063   7.260   7.837   3.225
28274WAT     H185064   7.288   7.852   3.130
28274WAT     H285065   7.245   7.740   3.240
28275WAT      O85066   3.766   7.068   8.419
28275WAT     H185067   3.845   7.102   8.368
28275WAT     H285068   3.712   7.007   8.361
28276WAT      O85069   4.470   3.203   7.593
28276WAT     H185070   4.528   3.160   7.524
28276WAT     H285071   4.491   3.164   7.683
28277WAT      O85072   7.314   6.993   0.663
28277WAT     H185073   7.234   6.987   0.604
28277WAT     H285074   7.299   6.936   0.744
28278WAT      O85075   6.251   0.058   0.224
28278WAT     H185076   6.231   0.120   0.148
28278WAT     H285077   6.334   0.088   0.271
28279WAT      O85078   9.056   5.559   1.670
28279WAT     H185079   9.099   5.524   1.587
28279WAT     H285080   9.072   5.657   1.677
28280WAT      O85081   0.158   5.223   5.960
28280WAT     H185082   0.062   5.222   5.932
28280WAT     H285083   0.177   5.306   6.012
28281WAT      O85084   9.646   7.961   4.679
28281WAT     H185085   9.633   8.021   4.600
28281WAT     H285086   9.738   7.975   4.717
28282WAT      O85087   0.374   1.038   1.221
28282WAT     H185088   0.337   1.123   1.261
28282WAT     H285089   0.374   1.046   1.121
28283WAT      O85090   5.533   1.495   6.699
28283WAT     H185091   5.449   1.547   6.688
28283WAT     H285092   5.521   1.427   6.771
28284WAT      O85093   3.399   3.663   7.145
28284WAT     H185094   3.440   3.726   7.211
28284WAT     H285095   3.457   3.582   7.136
28285WAT      O85096   7.166   0.693   4.856
28285WAT     H185097   7.163   0.603   4.811
28285WAT     H285098   7.228   0.689   4.934
28286WAT      O85099   3.596   7.662   9.372
28286WAT     H185100   3.614   7.675   9.469
28286WAT     H285101   3.513   7.710   9.346
28287WAT      O85102   3.811   0.956   7.401
28287WAT     H185103   3.812   1.012   7.318
28287WAT     H285104   3.880   0.991   7.465
28288WAT      O85105   3.244   9.682   6.206
28288WAT     H185106   3.287   9.731   6.282
28288WAT     H285107   3.146   9.698   6.208
28289WAT      O85108   4.448   3.567   0.068
28289WAT     H185109   4.367   3.599   0.117
28289WAT     H285110   4.519   3.542   0.134
28290WAT      O85111   8.074   5.434   9.180
28290WAT     H185112   8.155   5.425   9.123
28290WAT     H285113   8.033   5.525   9.167
28291WAT      O85114   0.237   2.019   6.850
28291WAT     H185115   0.330   2.010   6.814
28291WAT     H285116   0.208   2.114   6.843
28292WAT      O85117   7.426   1.181   0.628
28292WAT     H185118   7.526   1.186   0.624
28292WAT     H285119   7.388   1.185   0.536
28293WAT      O85120   0.968   2.159   5.159
28293WAT     H185121   0.878   2.128   5.191
28293WAT     H285122   1.031   2.162   5.236
28294WAT      O85123   6.280   0.701   4.579
28294WAT     H185124   6.256   0.698   4.481
28294WAT     H285125   6.206   0.659   4.632
28295WAT      O85126   8.768   7.376   9.072
28295WAT     H185127   8.738   7.441   9.142
28295WAT     H285128   8.736   7.407   8.982
28296WAT      O85129   5.050   3.435   0.179
28296WAT     H185130   4.992   3.447   0.098
28296WAT     H285131   5.005   3.475   0.259
28297WAT      O85132   9.631   6.997   3.655
28297WAT     H185133   9.711   7.041   3.694
28297WAT     H285134   9.570   6.967   3.729
28298WAT      O85135   7.020   7.338   0.962
28298WAT     H185136   7.023   7.238   0.957
28298WAT     H285137   7.084   7.370   1.032
28299WAT      O85138   7.740   6.217   8.640
28299WAT     H185139   7.755   6.212   8.541
28299WAT     H285140   7.791   6.294   8.678
28300WAT      O85141   6.435   5.344   5.593
28300WAT     H185142   6.524   5.322   5.554
28300WAT     H285143   6.435   5.439   5.625
28301WAT      O85144   6.555   9.494   1.617
28301WAT     H185145   6.487   9.476   1.688
28301WAT     H285146   6.561   9.593   1.601
28302WAT      O85147   8.759   4.984   4.279
28302WAT     H185148   8.690   5.037   4.231
28302WAT     H285149   8.822   5.047   4.326
28303WAT      O85150   9.742   0.220   2.722
28303WAT     H185151   9.658   0.241   2.671
28303WAT     H285152   9.798   0.157   2.669
28304WAT      O85153   0.760   5.567   1.854
28304WAT     H185154   0.740   5.544   1.759
28304WAT     H285155   0.781   5.484   1.905
28305WAT      O85156   4.317   5.918   6.536
28305WAT     H185157   4.298   5.958   6.446
28305WAT     H285158   4.247   5.948   6.601
28306WAT      O85159   3.032   3.354   6.516
28306WAT     H185160   3.067   3.261   6.506
28306WAT     H285161   2.969   3.358   6.593
28307WAT      O85162   3.755   3.036   2.484
28307WAT     H185163   3.845   3.076   2.498
28307WAT     H285164   3.685   3.107   2.490
28308WAT      O85165   4.000   2.277   3.702
28308WAT     H185166   3.957   2.212   3.640
28308WAT     H285167   4.075   2.323   3.655
28309WAT      O85168   6.700   8.729   0.032
28309WAT     H185169   6.724   8.776  -0.054
28309WAT     H285170   6.725   8.633   0.024
28310WAT      O85171   3.001   7.839   5.130
28310WAT     H185172   2.981   7.762   5.068
28310WAT     H285173   3.045   7.912   5.079
28311WAT      O85174   1.646   0.471   1.829
28311WAT     H185175   1.727   0.477   1.771
28311WAT     H285176   1.594   0.389   1.805
28312WAT      O85177   9.330   3.647   1.973
28312WAT     H185178   9.342   3.627   1.875
28312WAT     H285179   9.244   3.608   2.005
28313WAT      O85180   4.749   2.608   2.740
28313WAT     H185181   4.806   2.562   2.807
28313WAT     H285182   4.749   2.706   2.757
28314WAT      O85183   2.727   5.838   7.239
28314WAT     H185184   2.729   5.829   7.338
28314WAT     H285185   2.632   5.843   7.207
28315WAT      O85186   2.652   7.403   1.806
28315WAT     H185187   2.668   7.322   1.862
28315WAT     H285188   2.716   7.475   1.832
28316WAT      O85189   1.923   1.711   0.706
28316WAT     H185190   1.970   1.762   0.779
28316WAT     H285191   1.951   1.746   0.617
28317WAT      O85192   0.283   5.176   7.257
28317WAT     H185193   0.264   5.142   7.349
28317WAT     H285194   0.351   5.248   7.261
28318WAT      O85195   4.559   4.560   8.172
28318WAT     H185196   4.528   4.466   8.189
28318WAT     H285197   4.489   4.624   8.202
28319WAT      O85198   8.143   9.389   3.608
28319WAT     H185199   8.154   9.374   3.707
28319WAT     H285200   8.058   9.346   3.577
28320WAT      O85201   1.323   0.382   8.807
28320WAT     H185202   1.350   0.333   8.890
28320WAT     H285203   1.367   0.472   8.806
28321WAT      O85204   0.293   0.863   6.592
28321WAT     H185205   0.256   0.904   6.508
28321WAT     H285206   0.336   0.935   6.647
28322WAT      O85207   1.706   7.960   4.447
28322WAT     H185208   1.689   7.987   4.542
28322WAT     H285209   1.678   8.033   4.385
28323WAT      O85210   6.732   2.879   2.373
28323WAT     H185211   6.783   2.954   2.416
28323WAT     H285212   6.791   2.833   2.306
28324WAT      O85213   4.979   5.962   6.727
28324WAT     H185214   4.983   6.061   6.742
28324WAT     H285215   4.956   5.943   6.632
28325WAT      O85216   2.647   4.403   0.772
28325WAT     H185217   2.588   4.368   0.699
28325WAT     H285218   2.595   4.466   0.829
28326WAT      O85219   6.542   7.735   6.741
28326WAT     H185220   6.546   7.635   6.743
28326WAT     H285221   6.460   7.764   6.691
28327WAT      O85222   1.925   0.343   1.035
28327WAT     H185223   1.938   0.385   1.125
28327WAT     H285224   1.867   0.262   1.044
28328WAT      O85225   2.045   5.191   5.085
28328WAT     H185226   1.958   5.180   5.036
28328WAT     H285227   2.112   5.234   5.025
28329WAT      O85228   7.815   7.739   7.292
28329WAT     H185229   7.734   7.775   7.245
28329WAT     H285230   7.890   7.804   7.282
28330WAT      O85231   7.341   1.284   6.696
28330WAT     H185232   7.255   1.302   6.648
28330WAT     H285233   7.327   1.211   6.763
28331WAT      O85234   5.300   7.813   3.519
28331WAT     H185235   5.348   7.888   3.562
28331WAT     H285236   5.359   7.769   3.451
28332WAT      O85237   4.884   5.032   1.441
28332WAT     H185238   4.931   4.984   1.514
28332WAT     H285239   4.788   5.004   1.438
28333WAT      O85240   0.839   0.529   5.106
28333WAT     H185241   0.805   0.439   5.078
28333WAT     H285242   0.915   0.555   5.046
28334WAT      O85243   2.075   1.765   6.293
28334WAT     H185244   2.146   1.831   6.318
28334WAT     H285245   2.070   1.693   6.362
28335WAT      O85246   8.947   0.700   8.288
28335WAT     H185247   8.961   0.797   8.266
28335WAT     H285248   8.997   0.644   8.222
28336WAT      O85249   0.800   9.681   6.020
28336WAT     H185250   0.789   9.596   5.968
28336WAT     H285251   0.819   9.757   5.958
28337WAT      O85252   9.100   6.998   1.484
28337WAT     H185253   9.134   7.076   1.432
28337WAT     H285254   9.027   7.028   1.545
28338WAT      O85255   9.671   6.491   4.400
28338WAT     H185256   9.761   6.528   4.375
28338WAT     H285257   9.649   6.518   4.494
28339WAT      O85258   9.846   4.847   2.557
28339WAT     H185259   9.899   4.868   2.639
28339WAT     H285260   9.767   4.790   2.582
28340WAT      O85261   3.952   4.963   0.983
28340WAT     H185262   3.976   4.877   1.028
28340WAT     H285263   3.911   4.943   0.894
28341WAT      O85264   0.411   6.158   9.044
28341WAT     H185265   0.361   6.235   9.083
28341WAT     H285266   0.373   6.072   9.079
28342WAT      O85267   1.937   6.778   1.496
28342WAT     H185268   1.869   6.736   1.556
28342WAT     H285269   1.933   6.736   1.406
28343WAT      O85270   5.540   3.571   7.561
28343WAT     H185271   5.634   3.600   7.579
28343WAT     H285272   5.480   3.650   7.563
28344WAT      O85273   7.947   5.237   5.847
28344WAT     H185274   7.985   5.158   5.896
28344WAT     H285275   7.908   5.302   5.913
28345WAT      O85276   7.207   6.941   9.449
28345WAT     H185277   7.285   6.878   9.440
28345WAT     H285278   7.202   6.999   9.368
28346WAT      O85279   0.878   5.364   0.360
28346WAT     H185280   0.828   5.279   0.347
28346WAT     H285281   0.976   5.344   0.370
28347WAT      O85282   9.858   8.420   5.053
28347WAT     H185283   9.910   8.381   5.129
28347WAT     H285284   9.760   8.410   5.071
28348WAT      O85285   5.350   4.741   7.679
28348WAT     H185286   5.252   4.757   7.667
28348WAT     H285287   5.367   4.642   7.686
28349WAT      O85288   9.218   9.198   6.710
28349WAT     H185289   9.233   9.100   6.698
28349WAT     H285290   9.256   9.227   6.798
28350WAT      O85291   2.378   6.041   2.958
28350WAT     H185292   2.344   6.135   2.951
28350WAT     H285293   2.478   6.042   2.964
28351WAT      O85294   6.780   4.460   9.343
28351WAT     H185295   6.770   4.456   9.442
28351WAT     H285296   6.857   4.403   9.314
28352WAT      O85297   9.656   6.128   7.318
28352WAT     H185298   9.676   6.135   7.220
28352WAT     H285299   9.687   6.210   7.364
28353WAT      O85300   2.523   3.094   8.388
28353WAT     H185301   2.528   3.022   8.318
28353WAT     H285302   2.436   3.142   8.380
28354WAT      O85303   2.145   6.137   3.818
28354WAT     H185304   2.046   6.148   3.807
28354WAT     H285305   2.177   6.197   3.891
28355WAT      O85306   2.498   1.568   6.007
28355WAT     H185307   2.401   1.592   6.015
28355WAT     H285308   2.526   1.573   5.911
28356WAT      O85309   7.428   1.780   0.575
28356WAT     H185310   7.459   1.830   0.494
28356WAT     H285311   7.476   1.692   0.579
28357WAT      O85312   5.761   3.623   4.649
28357WAT     H185313   5.686   3.669   4.601
28357WAT     H285314   5.723   3.553   4.710
28358WAT      O85315   8.704   0.730   1.725
28358WAT     H185316   8.765   0.668   1.775
28358WAT     H285317   8.623   0.680   1.695
28359WAT      O85318   9.200   5.696   5.964
28359WAT     H185319   9.150   5.734   5.887
28359WAT     H285320   9.298   5.699   5.944
28360WAT      O85321   0.213   5.602   1.725
28360WAT     H185322   0.125   5.559   1.704
28360WAT     H285323   0.274   5.596   1.646
28361WAT      O85324   5.786   0.009   7.923
28361WAT     H185325   5.844  -0.072   7.927
28361WAT     H285326   5.702  -0.007   7.974
28362WAT      O85327   8.505   9.407   2.360
28362WAT     H185328   8.506   9.430   2.263
28362WAT     H285329   8.452   9.475   2.410
28363WAT      O85330   3.379   6.661   7.092
28363WAT     H185331   3.340   6.622   7.009
28363WAT     H285332   3.397   6.759   7.078
28364WAT      O85333   6.298   4.965   3.635
28364WAT     H185334   6.386   4.918   3.635
28364WAT     H285335   6.285   5.012   3.548
28365WAT      O85336   3.067   1.474   8.936
28365WAT     H185337   3.093   1.526   9.017
28365WAT     H285338   3.136   1.404   8.918
28366WAT      O85339   4.073   6.994   0.414
28366WAT     H185340   4.165   7.015   0.380
28366WAT     H285341   4.077   6.912   0.471
28367WAT      O85342   9.163   2.788   6.758
28367WAT     H185343   9.164   2.781   6.659
28367WAT     H285344   9.117   2.708   6.797
28368WAT      O85345   9.427   5.357   9.221
28368WAT     H185346   9.456   5.269   9.182
28368WAT     H285347   9.505   5.404   9.262
28369WAT      O85348   4.107   2.371   3.099
28369WAT     H185349   4.167   2.433   3.048
28369WAT     H285350   4.156   2.286   3.117
28370WAT      O85351   4.149   4.708   9.841
28370WAT     H185352   4.088   4.643   9.796
28370WAT     H285353   4.103   4.796   9.850
28371WAT      O85354   3.117   5.342   1.277
28371WAT     H185355   3.017   5.348   1.276
28371WAT     H285356   3.146   5.251   1.305
28372WAT      O85357   9.533   9.642   6.614
28372WAT     H185358   9.564   9.589   6.535
28372WAT     H285359   9.582   9.612   6.696
28373WAT      O85360   0.766   0.676   7.781
28373WAT     H185361   0.841   0.666   7.716
28373WAT     H285362   0.783   0.754   7.840
28374WAT      O85363   7.942   0.640   0.642
28374WAT     H185364   7.933   0.617   0.545
28374WAT     H285365   7.907   0.732   0.657
28375WAT      O85366   7.607   3.414   5.822
28375WAT     H185367   7.658   3.370   5.896
28375WAT     H285368   7.631   3.511   5.819
28376WAT      O85369   3.713   2.772   6.257
28376WAT     H185370   3.773   2.796   6.333
28376WAT     H285371   3.706   2.672   6.250
28377WAT      O85372   0.719   1.320   2.607
28377WAT     H185373   0.705   1.229   2.646
28377WAT     H285374   0.645   1.380   2.637
28378WAT      O85375   5.169   9.572   5.303
28378WAT     H185376   5.171   9.514   5.384
28378WAT     H285377   5.254   9.561   5.251
28379WAT      O85378   2.874   7.923   2.731
28379WAT     H185379   2.914   7.955   2.817
28379WAT     H285380   2.936   7.944   2.655
28380WAT      O85381   3.356   3.602   9.530
28380WAT     H185382   3.428   3.620   9.463
28380WAT     H285383   3.318   3.511   9.515
28381WAT      O85384   3.607   5.957   5.019
28381WAT     H185385   3.568   5.865   5.025
28381WAT     H285386   3.679   5.958   4.949
28382WAT      O85387   5.250   6.918   7.410
28382WAT     H185388   5.181   6.846   7.417
28382WAT     H285389   5.229   6.992   7.474
28383WAT      O85390   3.364   1.389   9.725
28383WAT     H185391   3.371   1.304   9.673
28383WAT     H285392   3.395   1.466   9.669
28384WAT      O85393   9.591   4.980   0.198
28384WAT     H185394   9.515   4.917   0.213
28384WAT     H285395   9.580   5.061   0.255
28385WAT      O85396   9.260   5.799   9.806
28385WAT     H185397   9.199   5.829   9.880
28385WAT     H285398   9.332   5.868   9.793
28386WAT      O85399   3.699   5.815   7.217
28386WAT     H185400   3.608   5.804   7.258
28386WAT     H285401   3.689   5.827   7.118
28387WAT      O85402   4.425   3.174   6.533
28387WAT     H185403   4.421   3.153   6.631
28387WAT     H285404   4.425   3.089   6.481
28388WAT      O85405   8.760   7.700   5.031
28388WAT     H185406   8.836   7.675   5.091
28388WAT     H285407   8.712   7.779   5.070
28389WAT      O85408   7.668   1.619   2.641
28389WAT     H185409   7.693   1.715   2.657
28389WAT     H285410   7.632   1.580   2.726
28390WAT      O85411   4.585   7.688   2.899
28390WAT     H185412   4.676   7.659   2.930
28390WAT     H285413   4.593   7.777   2.853
28391WAT      O85414   8.190   4.356   1.593
28391WAT     H185415   8.227   4.321   1.507
28391WAT     H285416   8.169   4.280   1.654
28392WAT      O85417   1.000   8.979   6.731
28392WAT     H185418   0.942   9.048   6.687
28392WAT     H285419   1.068   9.025   6.788
28393WAT      O85420   8.352   7.247   6.492
28393WAT     H185421   8.339   7.169   6.431
28393WAT     H285422   8.374   7.329   6.438
28394WAT      O85423   0.724   4.455   5.253
28394WAT     H185424   0.765   4.516   5.185
28394WAT     H285425   0.659   4.506   5.309
28395WAT      O85426   0.944   4.691   7.756
28395WAT     H185427   1.024   4.633   7.772
28395WAT     H285428   0.861   4.639   7.778
28396WAT      O85429   2.703   4.348   7.581
28396WAT     H185430   2.777   4.415   7.578
28396WAT     H285431   2.708   4.289   7.501
28397WAT      O85432   9.024   6.882   2.587
28397WAT     H185433   9.040   6.915   2.680
28397WAT     H285434   9.057   6.788   2.579
28398WAT      O85435   6.287   7.186   5.691
28398WAT     H185436   6.252   7.157   5.780
28398WAT     H285437   6.385   7.204   5.699
28399WAT      O85438   2.528   6.915   3.018
28399WAT     H185439   2.504   6.913   2.921
28399WAT     H285440   2.626   6.902   3.028
28400WAT      O85441   4.134   3.965   5.483
28400WAT     H185442   4.081   3.970   5.398
28400WAT     H285443   4.230   3.983   5.463
28401WAT      O85444   3.708   0.174   5.933
28401WAT     H185445   3.681   0.172   6.030
28401WAT     H285446   3.772   0.248   5.917
28402WAT      O85447   5.421   3.755   4.701
28402WAT     H185448   5.456   3.754   4.608
28402WAT     H285449   5.332   3.710   4.704
28403WAT      O85450   1.139   0.958   6.946
28403WAT     H185451   1.151   1.037   7.007
28403WAT     H285452   1.199   0.884   6.975
28404WAT      O85453   5.227   6.713   9.452
28404WAT     H185454   5.140   6.677   9.421
28404WAT     H285455   5.259   6.662   9.532
28405WAT      O85456   3.949   4.713   1.129
28405WAT     H185457   4.025   4.660   1.166
28405WAT     H285458   3.869   4.704   1.188
28406WAT      O85459   7.822   7.601   8.052
28406WAT     H185460   7.857   7.512   8.081
28406WAT     H285461   7.812   7.660   8.132
28407WAT      O85462   8.605   4.632   5.615
28407WAT     H185463   8.520   4.626   5.665
28407WAT     H285464   8.625   4.727   5.593
28408WAT      O85465   8.477   2.394   1.190
28408WAT     H185466   8.498   2.317   1.250
28408WAT     H285467   8.399   2.445   1.226
28409WAT      O85468   2.134   8.565   1.519
28409WAT     H185469   2.169   8.659   1.524
28409WAT     H285470   2.108   8.534   1.611
28410WAT      O85471   6.900   7.358   8.986
28410WAT     H185472   6.899   7.421   9.064
28410WAT     H285473   6.914   7.265   9.019
28411WAT      O85474   0.203   9.336   9.885
28411WAT     H185475   0.119   9.341   9.832
28411WAT     H285476   0.191   9.385   9.972
28412WAT      O85477   8.032   0.457   7.796
28412WAT     H185478   8.008   0.548   7.762
28412WAT     H285479   8.121   0.431   7.761
28413WAT      O85480   1.388   1.076   3.610
28413WAT     H185481   1.390   1.002   3.677
28413WAT     H285482   1.443   1.051   3.530
28414WAT      O85483   4.777   4.526   9.220
28414WAT     H185484   4.872   4.518   9.251
28414WAT     H285485   4.770   4.495   9.125
28415WAT      O85486   6.592   5.230   2.706
28415WAT     H185487   6.611   5.230   2.804
28415WAT     H285488   6.673   5.261   2.657
28416WAT      O85489   3.011   3.565   7.275
28416WAT     H185490   2.969   3.513   7.201
28416WAT     H285491   3.037   3.655   7.241
28417WAT      O85492   1.538   9.321   7.467
28417WAT     H185493   1.440   9.309   7.481
28417WAT     H285494   1.586   9.234   7.481
28418WAT      O85495   2.965   6.983   9.145
28418WAT     H185496   2.970   6.978   9.045
28418WAT     H285497   2.871   7.004   9.173
28419WAT      O85498   6.113   8.494   8.506
28419WAT     H185499   6.210   8.482   8.487
28419WAT     H285500   6.077   8.414   8.553
28420WAT      O85501   0.309   5.951   2.336
28420WAT     H185502   0.313   6.049   2.352
28420WAT     H285503   0.358   5.903   2.409
28421WAT      O85504   9.085   9.811   5.225
28421WAT     H185505   9.109   9.780   5.133
28421WAT     H285506   9.100   9.737   5.291
28422WAT      O85507   4.602   8.985   3.185
28422WAT     H185508   4.648   9.063   3.143
28422WAT     H285509   4.639   8.970   3.277
28423WAT      O85510   9.705   5.540   1.612
28423WAT     H185511   9.607   5.527   1.625
28423WAT     H285512   9.750   5.552   1.700
28424WAT      O85513   2.492   3.317   5.940
28424WAT     H185514   2.409   3.354   5.981
28424WAT     H285515   2.468   3.263   5.859
28425WAT      O85516   2.616   0.759   2.683
28425WAT     H185517   2.583   0.674   2.724
28425WAT     H285518   2.716   0.762   2.690
28426WAT      O85519   9.185   0.287   2.930
28426WAT     H185520   9.180   0.248   3.022
28426WAT     H285521   9.241   0.369   2.931
28427WAT      O85522   2.593   6.858   7.837
28427WAT     H185523   2.605   6.827   7.743
28427WAT     H285524   2.682   6.862   7.883
28428WAT      O85525   1.771   7.409   7.748
28428WAT     H185526   1.696   7.380   7.808
28428WAT     H285527   1.828   7.330   7.726
28429WAT      O85528   6.062   7.414   9.505
28429WAT     H185529   6.141   7.410   9.566
28429WAT     H285530   5.989   7.356   9.541
28430WAT      O85531   8.705   1.611   4.845
28430WAT     H185532   8.784   1.669   4.867
28430WAT     H285533   8.694   1.606   4.746
28431WAT      O85534   5.071   4.741   7.643
28431WAT     H185535   5.062   4.806   7.568
28431WAT     H285536   5.031   4.779   7.726
28432WAT      O85537   6.500   9.533   1.081
28432WAT     H185538   6.442   9.462   1.041
28432WAT     H285539   6.551   9.579   1.008
28433WAT      O85540   9.436   0.346   1.459
28433WAT     H185541   9.413   0.398   1.377
28433WAT     H285542   9.462   0.253   1.432
28434WAT      O85543   2.982   9.052   8.859
28434WAT     H185544   2.906   9.090   8.806
28434WAT     H285545   3.047   9.008   8.797
28435WAT      O85546   1.540   4.364   0.278
28435WAT     H185547   1.529   4.290   0.212
28435WAT     H285548   1.599   4.333   0.352
28436WAT      O85549   3.450   9.816   9.193
28436WAT     H185550   3.525   9.877   9.168
28436WAT     H285551   3.363   9.862   9.175
28437WAT      O85552   0.294   3.089   9.651
28437WAT     H185553   0.204   3.105   9.609
28437WAT     H285554   0.304   2.992   9.672
28438WAT      O85555   3.673   2.538   4.862
28438WAT     H185556   3.633   2.512   4.774
28438WAT     H285557   3.609   2.596   4.912
28439WAT      O85558   8.153   6.706   3.085
28439WAT     H185559   8.059   6.714   3.117
28439WAT     H285560   8.202   6.639   3.140
28440WAT      O85561   1.986   5.248   0.861
28440WAT     H185562   2.000   5.346   0.844
28440WAT     H285563   1.964   5.233   0.957
28441WAT      O85564   3.241   1.195   0.184
28441WAT     H185565   3.161   1.136   0.173
28441WAT     H285566   3.317   1.160   0.130
28442WAT      O85567   7.387   3.980   8.099
28442WAT     H185568   7.429   3.973   8.190
28442WAT     H285569   7.308   3.920   8.095
28443WAT      O85570   8.457   2.103   6.413
28443WAT     H185571   8.430   2.012   6.447
28443WAT     H285572   8.523   2.144   6.475
28444WAT      O85573   5.640   9.734   5.753
28444WAT     H185574   5.674   9.700   5.665
28444WAT     H285575   5.653   9.664   5.823
28445WAT      O85576   4.110   5.007   0.623
28445WAT     H185577   4.141   5.035   0.532
28445WAT     H285578   4.011   5.017   0.628
28446WAT      O85579   0.505   1.294   5.353
28446WAT     H185580   0.410   1.323   5.347
28446WAT     H285581   0.553   1.349   5.421
28447WAT      O85582   3.795   2.082   1.923
28447WAT     H185583   3.890   2.053   1.933
28447WAT     H285584   3.774   2.151   1.993
28448WAT      O85585   2.786   9.585   4.696
28448WAT     H185586   2.798   9.667   4.640
28448WAT     H285587   2.731   9.518   4.647
28449WAT      O85588   5.417   3.603   8.059
28449WAT     H185589   5.425   3.702   8.068
28449WAT     H285590   5.505   3.560   8.079
28450WAT      O85591   2.242   3.694   3.985
28450WAT     H185592   2.258   3.609   4.034
28450WAT     H285593   2.143   3.712   3.982
28451WAT      O85594   7.685   8.039   2.411
28451WAT     H185595   7.713   7.958   2.463
28451WAT     H285596   7.586   8.052   2.420
28452WAT      O85597   9.862   2.777   4.545
28452WAT     H185598   9.836   2.694   4.595
28452WAT     H285599   9.946   2.815   4.585
28453WAT      O85600   7.705   2.625   7.508
28453WAT     H185601   7.765   2.563   7.459
28453WAT     H285602   7.651   2.678   7.443
28454WAT      O85603   1.192   3.252   5.197
28454WAT     H185604   1.201   3.201   5.111
28454WAT     H285605   1.174   3.348   5.176
28455WAT      O85606   0.778   0.478   1.145
28455WAT     H185607   0.762   0.392   1.096
28455WAT     H285608   0.816   0.545   1.081
28456WAT      O85609   0.995   2.657   3.826
28456WAT     H185610   0.948   2.589   3.882
28456WAT     H285611   1.013   2.619   3.735
28457WAT      O85612   4.775   5.847   2.922
28457WAT     H185613   4.863   5.799   2.914
28457WAT     H285614   4.734   5.827   3.011
28458WAT      O85615   0.434   4.069   4.556
28458WAT     H185616   0.406   4.059   4.651
28458WAT     H285617   0.439   4.166   4.532
28459WAT      O85618   8.168   4.431   1.210
28459WAT     H185619   8.229   4.374   1.265
28459WAT     H285620   8.075   4.425   1.247
28460WAT      O85621   9.731   9.635   5.767
28460WAT     H185622   9.695   9.675   5.851
28460WAT     H285623   9.798   9.697   5.726
28461WAT      O85624   0.665   1.474   5.505
28461WAT     H185625   0.668   1.540   5.430
28461WAT     H285626   0.737   1.406   5.492
28462WAT      O85627   1.202   8.424   8.912
28462WAT     H185628   1.148   8.493   8.865
28462WAT     H285629   1.239   8.359   8.846
28463WAT      O85630   3.990   8.427   4.969
28463WAT     H185631   3.918   8.362   4.992
28463WAT     H285632   3.968   8.473   4.883
28464WAT      O85633   6.160   6.799   8.383
28464WAT     H185634   6.070   6.759   8.365
28464WAT     H285635   6.151   6.873   8.449
28465WAT      O85636   5.376   9.384   4.872
28465WAT     H185637   5.441   9.345   4.936
28465WAT     H285638   5.360   9.319   4.797
28466WAT      O85639   7.507   0.008   7.632
28466WAT     H185640   7.423  -0.036   7.599
28466WAT     H285641   7.484   0.098   7.671
28467WAT      O85642   4.613   7.888   6.107
28467WAT     H185643   4.573   7.809   6.154
28467WAT     H285644   4.546   7.962   6.104
28468WAT      O85645   0.986   7.350   6.182
28468WAT     H185646   1.073   7.313   6.215
28468WAT     H285647   0.966   7.436   6.229
28469WAT      O85648   8.854   1.002   0.609
28469WAT     H185649   8.903   1.040   0.688
28469WAT     H285650   8.915   0.997   0.530
28470WAT      O85651   9.062   1.529   7.366
28470WAT     H185652   9.010   1.579   7.296
28470WAT     H285653   9.106   1.450   7.324
28471WAT      O85654   2.477   8.907   7.992
28471WAT     H185655   2.413   8.839   7.957
28471WAT     H285656   2.455   8.996   7.952
28472WAT      O85657   9.770   5.000   8.676
28472WAT     H185658   9.749   5.089   8.716
28472WAT     H285659   9.693   4.969   8.621
28473WAT      O85660   6.365   9.686   6.214
28473WAT     H185661   6.369   9.665   6.116
28473WAT     H285662   6.438   9.750   6.237
28474WAT      O85663   5.294   0.660   3.808
28474WAT     H185664   5.333   0.594   3.743
28474WAT     H285665   5.236   0.612   3.873
28475WAT      O85666   3.990   1.781   7.303
28475WAT     H185667   4.081   1.805   7.336
28475WAT     H285668   3.928   1.859   7.318
28476WAT      O85669   7.537   4.493   7.914
28476WAT     H185670   7.513   4.416   7.856
28476WAT     H285671   7.454   4.541   7.943
28477WAT      O85672   0.983   3.626   5.859
28477WAT     H185673   1.051   3.694   5.833
28477WAT     H285674   0.892   3.667   5.859
28478WAT      O85675   7.846   5.186   7.717
28478WAT     H185676   7.765   5.169   7.661
28478WAT     H285677   7.841   5.130   7.801
28479WAT      O85678   2.924   2.882   0.483
28479WAT     H185679   2.870   2.847   0.407
28479WAT     H285680   3.001   2.935   0.447
28480WAT      O85681   5.121   6.483   0.027
28480WAT     H185682   5.068   6.399   0.027
28480WAT     H285683   5.090   6.543   0.101
28481WAT      O85684   7.757   1.688   1.314
28481WAT     H185685   7.790   1.781   1.322
28481WAT     H285686   7.761   1.643   1.403
28482WAT      O85687   2.238   4.657   4.784
28482WAT     H185688   2.205   4.586   4.721
28482WAT     H285689   2.322   4.625   4.828
28483WAT      O85690   1.906   6.086   2.459
28483WAT     H185691   1.964   6.010   2.430
28483WAT     H285692   1.814   6.052   2.482
28484WAT      O85693   4.821   3.033   7.266
28484WAT     H185694   4.848   3.129   7.272
28484WAT     H285695   4.836   3.000   7.173
28485WAT      O85696   6.887   0.038   0.987
28485WAT     H185697   6.986   0.046   0.997
28485WAT     H285698   6.842   0.081   1.066
28486WAT      O85699   8.544   6.368   7.271
28486WAT     H185700   8.508   6.459   7.253
28486WAT     H285701   8.516   6.339   7.363
28487WAT      O85702   3.540   2.696   1.695
28487WAT     H185703   3.567   2.792   1.699
28487WAT     H285704   3.579   2.648   1.774
28488WAT      O85705   8.367   8.193   0.895
28488WAT     H185706   8.425   8.274   0.886
28488WAT     H285707   8.278   8.211   0.854
28489WAT      O85708   1.584   5.894   2.959
28489WAT     H185709   1.647   5.869   2.885
28489WAT     H285710   1.575   5.817   3.022
28490WAT      O85711   9.408   3.112   2.167
28490WAT     H185712   9.355   3.186   2.126
28490WAT     H285713   9.422   3.131   2.264
28491WAT      O85714   2.906   7.608   6.749
28491WAT     H185715   2.910   7.548   6.828
28491WAT     H285716   2.870   7.558   6.670
28492WAT      O85717   9.001   2.115   3.211
28492WAT     H185718   9.085   2.123   3.264
28492WAT     H285719   9.022   2.089   3.117
28493WAT      O85720   2.777   3.401   2.914
28493WAT     H185721   2.803   3.387   2.819
28493WAT     H285722   2.835   3.345   2.974
28494WAT      O85723   0.345   6.485   0.607
28494WAT     H185724   0.313   6.567   0.654
28494WAT     H285725   0.322   6.404   0.662
28495WAT      O85726   4.891   4.429   6.453
28495WAT     H185727   4.937   4.503   6.403
28495WAT     H285728   4.907   4.441   6.551
28496WAT      O85729   5.653   0.175   0.001
28496WAT     H185730   5.656   0.087   0.050
28496WAT     H285731   5.655   0.250   0.066
28497WAT      O85732   1.692   8.227   2.110
28497WAT     H185733   1.694   8.127   2.106
28497WAT     H285734   1.682   8.264   2.018
28498WAT      O85735   3.989   0.353   3.843
28498WAT     H185736   3.983   0.255   3.862
28498WAT     H285737   4.004   0.403   3.929
28499WAT      O85738   9.147   4.002   4.428
28499WAT     H185739   9.054   3.970   4.407
28499WAT     H285740   9.143   4.100   4.447
28500WAT      O85741   7.423   9.658   8.906
28500WAT     H185742   7.400   9.724   8.835
28500WAT     H285743   7.512   9.680   8.945
28501WAT      O85744   4.712   2.696   7.112
28501WAT     H185745   4.678   2.640   7.037
28501WAT     H285746   4.636   2.721   7.173
28502WAT      O85747   6.432   4.823   7.395
28502WAT     H185748   6.390   4.775   7.318
28502WAT     H285749   6.363   4.881   7.439
28503WAT      O85750   2.570   6.829   6.161
28503WAT     H185751   2.542   6.840   6.066
28503WAT     H285752   2.664   6.793   6.164
28504WAT      O85753   8.246   8.749   7.770
28504WAT     H185754   8.317   8.802   7.816
28504WAT     H285755   8.157   8.770   7.811
28505WAT      O85756   9.539   1.625   5.507
28505WAT     H185757   9.472   1.585   5.444
28505WAT     H285758   9.513   1.719   5.528
28506WAT      O85759   3.654   2.130   1.195
28506WAT     H185760   3.674   2.228   1.186
28506WAT     H285761   3.735   2.077   1.169
28507WAT      O85762   0.809   6.713   6.463
28507WAT     H185763   0.753   6.657   6.525
28507WAT     H285764   0.784   6.809   6.474
28508WAT      O85765   7.759   4.158   8.864
28508WAT     H185766   7.837   4.213   8.833
28508WAT     H285767   7.686   4.162   8.795
28509WAT      O85768   4.814   5.592   9.194
28509WAT     H185769   4.867   5.548   9.266
28509WAT     H285770   4.742   5.647   9.235
28510WAT      O85771   4.048   7.775   1.608
28510WAT     H185772   4.135   7.808   1.646
28510WAT     H285773   3.979   7.847   1.615
28511WAT      O85774   3.210   7.998   6.628
28511WAT     H185775   3.184   7.910   6.669
28511WAT     H285776   3.253   7.982   6.539
28512WAT      O85777   4.488   4.759   0.268
28512WAT     H185778   4.516   4.852   0.294
28512WAT     H285779   4.564   4.696   0.284
28513WAT      O85780   4.873   2.749   2.258
28513WAT     H185781   4.796   2.727   2.198
28513WAT     H285782   4.841   2.756   2.353
28514WAT      O85783   1.406   9.659   9.097
28514WAT     H185784   1.492   9.712   9.100
28514WAT     H285785   1.348   9.686   9.173
28515WAT      O85786   7.075   9.713   8.822
28515WAT     H185787   7.079   9.780   8.747
28515WAT     H285788   7.150   9.648   8.813
28516WAT      O85789   8.076   4.315   7.153
28516WAT     H185790   8.023   4.388   7.109
28516WAT     H285791   8.144   4.280   7.089
28517WAT      O85792   2.792   8.600   8.616
28517WAT     H185793   2.727   8.625   8.687
28517WAT     H285794   2.777   8.658   8.535
28518WAT      O85795   9.074   2.023   4.082
28518WAT     H185796   9.032   2.085   4.148
28518WAT     H285797   9.045   1.929   4.101
28519WAT      O85798   6.518   7.284   1.813
28519WAT     H185799   6.471   7.334   1.740
28519WAT     H285800   6.603   7.245   1.777
28520WAT      O85801   8.931   8.371   0.084
28520WAT     H185802   8.980   8.285   0.102
28520WAT     H285803   8.987   8.430   0.026
28521WAT      O85804   1.457   4.435   6.837
28521WAT     H185805   1.373   4.396   6.874
28521WAT     H285806   1.529   4.433   6.906
28522WAT      O85807   6.680   3.769   4.646
28522WAT     H185808   6.593   3.740   4.686
28522WAT     H285809   6.664   3.848   4.586
28523WAT      O85810   6.900   6.896   6.519
28523WAT     H185811   6.891   6.821   6.585
28523WAT     H285812   6.992   6.934   6.523
28524WAT      O85813   9.433   4.435   4.489
28524WAT     H185814   9.357   4.491   4.522
28524WAT     H285815   9.456   4.367   4.558
28525WAT      O85816   1.103   5.169   6.162
28525WAT     H185817   1.160   5.087   6.152
28525WAT     H285818   1.157   5.243   6.201
28526WAT      O85819   2.828   4.804   2.221
28526WAT     H185820   2.787   4.800   2.130
28526WAT     H285821   2.763   4.844   2.285
28527WAT      O85822   8.899   9.458   9.206
28527WAT     H185823   8.821   9.510   9.243
28527WAT     H285824   8.869   9.405   9.126
28528WAT      O85825   1.473   1.180   7.042
28528WAT     H185826   1.465   1.179   6.942
28528WAT     H285827   1.514   1.094   7.072
28529WAT      O85828   9.270   3.616   6.560
28529WAT     H185829   9.361   3.642   6.526
28529WAT     H285830   9.205   3.615   6.484
28530WAT      O85831   6.297   2.272   5.184
28530WAT     H185832   6.392   2.240   5.174
28530WAT     H285833   6.240   2.196   5.213
28531WAT      O85834   7.928   6.663   0.960
28531WAT     H185835   7.950   6.574   1.001
28531WAT     H285836   7.923   6.654   0.861
28532WAT      O85837   6.936   1.250   2.118
28532WAT     H185838   6.980   1.176   2.169
28532WAT     H285839   6.854   1.216   2.072
28533WAT      O85840   3.377   7.311   5.012
28533WAT     H185841   3.466   7.345   4.981
28533WAT     H285842   3.374   7.308   5.112
28534WAT      O85843   7.530   8.478   0.102
28534WAT     H185844   7.442   8.432   0.105
28534WAT     H285845   7.542   8.522   0.013
28535WAT      O85846   2.698   7.232   4.416
28535WAT     H185847   2.673   7.218   4.320
28535WAT     H285848   2.625   7.283   4.462
28536WAT      O85849   7.850   1.971   8.393
28536WAT     H185850   7.868   1.960   8.296
28536WAT     H285851   7.782   2.043   8.406
28537WAT      O85852   3.695   7.300   2.999
28537WAT     H185853   3.691   7.352   3.085
28537WAT     H285854   3.663   7.207   3.015
28538WAT      O85855   7.101   0.578  -0.001
28538WAT     H185856   7.091   0.606   0.094
28538WAT     H285857   7.098   0.479  -0.008
28539WAT      O85858   1.342   4.507   6.387
28539WAT     H185859   1.394   4.529   6.469
28539WAT     H285860   1.379   4.559   6.310
28540WAT      O85861   3.712   4.025   5.377
28540WAT     H185862   3.643   3.977   5.322
28540WAT     H285863   3.716   3.984   5.468
28541WAT      O85864   7.621   6.874   8.115
28541WAT     H185865   7.629   6.898   8.019
28541WAT     H285866   7.709   6.843   8.150
28542WAT      O85867   8.942   8.101   1.685
28542WAT     H185868   8.893   8.138   1.765
28542WAT     H285869   8.951   8.002   1.696
28543WAT      O85870   5.514   2.213   6.328
28543WAT     H185871   5.614   2.215   6.329
28543WAT     H285872   5.482   2.192   6.236
28544WAT      O85873   8.301   1.162   9.747
28544WAT     H185874   8.363   1.099   9.701
28544WAT     H285875   8.307   1.148   9.846
28545WAT      O85876   4.383   9.428   0.023
28545WAT     H185877   4.430   9.342   0.044
28545WAT     H285878   4.339   9.463   0.105
28546WAT      O85879   3.026   0.669   4.792
28546WAT     H185880   3.081   0.604   4.845
28546WAT     H285881   3.070   0.687   4.704
28547WAT      O85882   7.533   9.536   7.277
28547WAT     H185883   7.575   9.596   7.345
28547WAT     H285884   7.435   9.530   7.294
28548WAT      O85885   8.991   4.933   2.891
28548WAT     H185886   9.069   4.937   2.954
28548WAT     H285887   8.996   5.011   2.828
28549WAT      O85888   7.196   7.096   8.834
28549WAT     H185889   7.286   7.054   8.828
28549WAT     H285890   7.152   7.095   8.744
28550WAT      O85891   5.820   7.614   7.351
28550WAT     H185892   5.910   7.614   7.308
28550WAT     H285893   5.769   7.533   7.321
28551WAT      O85894   5.692   2.730   0.641
28551WAT     H185895   5.679   2.712   0.544
28551WAT     H285896   5.660   2.651   0.694
28552WAT      O85897   2.573   1.017   9.529
28552WAT     H185898   2.500   0.969   9.579
28552WAT     H285899   2.626   1.072   9.593
28553WAT      O85900   4.752   9.544   9.277
28553WAT     H185901   4.848   9.570   9.279
28553WAT     H285902   4.739   9.465   9.218
28554WAT      O85903   1.251   7.956   6.007
28554WAT     H185904   1.314   7.932   6.081
28554WAT     H285905   1.277   8.045   5.969
28555WAT      O85906   8.036   0.163   3.239
28555WAT     H185907   7.961   0.161   3.173
28555WAT     H285908   8.004   0.126   3.326
28556WAT      O85909   4.986   6.466   6.561
28556WAT     H185910   5.016   6.510   6.645
28556WAT     H285911   4.907   6.515   6.524
28557WAT      O85912   7.967   2.448   4.955
28557WAT     H185913   8.037   2.490   5.012
28557WAT     H285914   7.962   2.350   4.975
28558WAT      O85915   2.304   1.798   2.425
28558WAT     H185916   2.351   1.871   2.375
28558WAT     H285917   2.369   1.753   2.487
28559WAT      O85918   8.978   8.758   3.392
28559WAT     H185919   9.064   8.790   3.432
28559WAT     H285920   8.955   8.669   3.431
28560WAT      O85921   9.214   6.359   7.526
28560WAT     H185922   9.154   6.332   7.450
28560WAT     H285923   9.206   6.458   7.541
28561WAT      O85924   1.744   3.422   7.138
28561WAT     H185925   1.832   3.401   7.095
28561WAT     H285926   1.736   3.370   7.223
28562WAT      O85927   5.843   0.869   8.323
28562WAT     H185928   5.920   0.931   8.341
28562WAT     H285929   5.857   0.784   8.373
28563WAT      O85930   1.188   8.995   3.451
28563WAT     H185931   1.175   8.964   3.546
28563WAT     H285932   1.136   9.079   3.436
28564WAT      O85933   7.243   1.191   6.018
28564WAT     H185934   7.165   1.130   6.032
28564WAT     H285935   7.295   1.161   5.938
28565WAT      O85936   2.627   2.465   3.698
28565WAT     H185937   2.541   2.504   3.728
28565WAT     H285938   2.703   2.513   3.742
28566WAT      O85939   2.140   7.542   6.198
28566WAT     H185940   2.196   7.577   6.273
28566WAT     H285941   2.176   7.575   6.111
28567WAT      O85942   0.525   6.321   2.593
28567WAT     H185943   0.523   6.394   2.662
28567WAT     H285944   0.613   6.321   2.547
28568WAT      O85945   4.689   0.152   2.440
28568WAT     H185946   4.748   0.082   2.400
28568WAT     H285947   4.730   0.242   2.428
28569WAT      O85948   2.360   9.341   9.035
28569WAT     H185949   2.396   9.434   9.049
28569WAT     H285950   2.261   9.344   9.032
28570WAT      O85951   0.435   1.560   6.353
28570WAT     H185952   0.440   1.659   6.365
28570WAT     H285953   0.404   1.517   6.438
28571WAT      O85954   2.356   5.889   6.056
28571WAT     H185955   2.352   5.965   5.992
28571WAT     H285956   2.435   5.901   6.116
28572WAT      O85957   0.321   2.776   5.988
28572WAT     H185958   0.364   2.698   6.036
28572WAT     H285959   0.332   2.858   6.044
28573WAT      O85960   7.960   7.354   8.565
28573WAT     H185961   7.872   7.319   8.599
28573WAT     H285962   7.999   7.416   8.633
28574WAT      O85963   0.181   4.341   2.588
28574WAT     H185964   0.195   4.308   2.494
28574WAT     H285965   0.266   4.330   2.640
28575WAT      O85966   2.912   8.382   9.405
28575WAT     H185967   2.982   8.350   9.342
28575WAT     H285968   2.901   8.316   9.479
28576WAT      O85969   8.719   9.440   7.309
28576WAT     H185970   8.817   9.419   7.319
28576WAT     H285971   8.666   9.375   7.363
28577WAT      O85972   3.593   9.258   0.398
28577WAT     H185973   3.518   9.313   0.361
28577WAT     H285974   3.578   9.162   0.373
28578WAT      O85975   5.079   7.918   3.370
28578WAT     H185976   5.092   8.014   3.393
28578WAT     H285977   5.152   7.864   3.411
28579WAT      O85978   9.361   8.143   4.348
28579WAT     H185979   9.342   8.048   4.373
28579WAT     H285980   9.449   8.171   4.388
28580WAT      O85981   0.017   8.600   4.378
28580WAT     H185982   0.100   8.562   4.336
28580WAT     H285983   0.027   8.699   4.388
28581WAT      O85984   9.468   8.925   6.322
28581WAT     H185985   9.558   8.895   6.293
28581WAT     H285986   9.402   8.851   6.309
28582WAT      O85987   6.665   5.137   7.536
28582WAT     H185988   6.688   5.217   7.481
28582WAT     H285989   6.712   5.056   7.500
28583WAT      O85990   8.102   1.921   3.064
28583WAT     H185991   8.200   1.903   3.069
28583WAT     H285992   8.061   1.909   3.154
28584WAT      O85993   7.544   5.650   8.785
28584WAT     H185994   7.574   5.742   8.809
28584WAT     H285995   7.491   5.611   8.861
28585WAT      O85996   6.020   5.483   5.139
28585WAT     H185997   5.931   5.525   5.156
28585WAT     H285998   6.039   5.416   5.211
28586WAT      O85999   3.502   5.681   1.174
28586WAT     H186000   3.499   5.725   1.264
28586WAT     H286001   3.560   5.600   1.178
28587WAT      O86002   7.994   6.510   9.644
28587WAT     H186003   7.947   6.521   9.731
28587WAT     H286004   8.024   6.416   9.633
28588WAT      O86005   9.469   7.176   5.226
28588WAT     H186006   9.460   7.207   5.132
28588WAT     H286007   9.411   7.231   5.286
28589WAT      O86008   2.578   7.383   0.237
28589WAT     H186009   2.532   7.330   0.165
28589WAT     H286010   2.528   7.372   0.323
28590WAT      O86011   9.618   9.425   5.934
28590WAT     H186012   9.668   9.456   5.853
28590WAT     H286013   9.680   9.376   5.995
28591WAT      O86014   0.038   2.976   7.320
28591WAT     H186015   0.072   2.970   7.226
28591WAT     H286016   0.068   2.895   7.371
28592WAT      O86017   8.121   2.358   6.891
28592WAT     H186018   8.147   2.400   6.978
28592WAT     H286019   8.024   2.335   6.892
28593WAT      O86020   1.829   4.119   0.918
28593WAT     H186021   1.913   4.137   0.970
28593WAT     H286022   1.772   4.202   0.918
28594WAT      O86023   8.099   5.007   8.989
28594WAT     H186024   8.195   5.032   8.998
28594WAT     H286025   8.051   5.031   9.073
28595WAT      O86026   7.482   1.729   1.771
28595WAT     H186027   7.533   1.648   1.740
28595WAT     H286028   7.530   1.772   1.847
28596WAT      O86029   7.399   4.473   8.907
28596WAT     H186030   7.447   4.416   8.974
28596WAT     H286031   7.307   4.492   8.939
28597WAT      O86032   2.500   2.232   0.108
28597WAT     H186033   2.441   2.302   0.068
28597WAT     H286034   2.517   2.253   0.204
28598WAT      O86035   4.570   1.226   4.492
28598WAT     H186036   4.626   1.258   4.569
28598WAT     H286037   4.495   1.291   4.476
28599WAT      O86038   7.950   5.392   0.676
28599WAT     H186039   8.030   5.404   0.617
28599WAT     H286040   7.944   5.470   0.739
28600WAT      O86041   7.045   3.858   0.229
28600WAT     H186042   7.017   3.796   0.156
28600WAT     H286043   7.002   3.947   0.215
28601WAT      O86044   1.612   2.762   0.695
28601WAT     H186045   1.695   2.817   0.681
28601WAT     H286046   1.624   2.672   0.653
28602WAT      O86047   5.053   3.114   3.451
28602WAT     H186048   5.113   3.117   3.371
28602WAT     H286049   5.033   3.019   3.475
28603WAT      O86050   6.880   8.789   3.537
28603WAT     H186051   6.830   8.737   3.606
28603WAT     H286052   6.829   8.786   3.451
28604WAT      O86053   0.732   5.962   4.514
28604WAT     H186054   0.633   5.953   4.514
28604WAT     H286055   0.762   6.006   4.429
28605WAT      O86056   0.664   2.242   9.051
28605WAT     H186057   0.714   2.322   9.085
28605WAT     H286058   0.639   2.257   8.955
28606WAT      O86059   3.263   5.534   1.449
28606WAT     H186060   3.242   5.443   1.413
28606WAT     H286061   3.289   5.526   1.545
28607WAT      O86062   0.473   9.162   7.289
28607WAT     H186063   0.458   9.124   7.198
28607WAT     H286064   0.398   9.224   7.313
28608WAT      O86065   2.711   8.326   7.843
28608WAT     H186066   2.696   8.383   7.762
28608WAT     H286067   2.809   8.309   7.855
28609WAT      O86068   1.107   1.486   6.573
28609WAT     H186069   1.126   1.577   6.608
28609WAT     H286070   1.190   1.449   6.530
28610WAT      O86071   3.054   8.242   6.601
28610WAT     H186072   3.100   8.164   6.643
28610WAT     H286073   2.959   8.218   6.582
28611WAT      O86074   7.902   9.072   9.396
28611WAT     H186075   7.976   9.006   9.399
28611WAT     H286076   7.938   9.161   9.368
28612WAT      O86077   2.824   5.287   5.056
28612WAT     H186078   2.896   5.304   5.124
28612WAT     H286079   2.735   5.287   5.100
28613WAT      O86080   6.473   0.031   7.564
28613WAT     H186081   6.421  -0.043   7.606
28613WAT     H286082   6.571   0.016   7.580
28614WAT      O86083   3.439   1.603   3.917
28614WAT     H186084   3.349   1.628   3.882
28614WAT     H286085   3.509   1.623   3.848
28615WAT      O86086   0.444   4.660   3.167
28615WAT     H186087   0.421   4.587   3.103
28615WAT     H286088   0.450   4.623   3.259
28616WAT      O86089   7.729   4.809   1.217
28616WAT     H186090   7.670   4.730   1.227
28616WAT     H286091   7.697   4.865   1.141
28617WAT      O86092   2.666   6.979   0.260
28617WAT     H186093   2.653   6.883   0.286
28617WAT     H286094   2.632   6.992   0.166
28618WAT      O86095   1.270   2.027   2.337
28618WAT     H186096   1.205   2.102   2.325
28618WAT     H286097   1.234   1.944   2.295
28619WAT      O86098   1.390   4.870   0.485
28619WAT     H186099   1.343   4.904   0.404
28619WAT     H286100   1.343   4.902   0.568
28620WAT      O86101   7.024   7.938   3.149
28620WAT     H186102   7.034   8.032   3.117
28620WAT     H286103   7.108   7.910   3.196
28621WAT      O86104   4.987   5.792   7.757
28621WAT     H186105   4.995   5.891   7.764
28621WAT     H286106   4.898   5.762   7.792
28622WAT      O86107   9.382   6.604   3.167
28622WAT     H186108   9.439   6.535   3.122
28622WAT     H286109   9.422   6.695   3.153
28623WAT      O86110   1.567   5.543   3.649
28623WAT     H186111   1.541   5.637   3.668
28623WAT     H286112   1.667   5.538   3.639
28624WAT      O86113   8.078   9.339   6.313
28624WAT     H186114   7.982   9.337   6.284
28624WAT     H286115   8.088   9.286   6.397
28625WAT      O86116   8.387   7.528   4.529
28625WAT     H186117   8.462   7.526   4.594
28625WAT     H286118   8.414   7.579   4.447
28626WAT      O86119   3.108   1.270   7.641
28626WAT     H186120   3.173   1.341   7.667
28626WAT     H286121   3.032   1.310   7.590
28627WAT      O86122   3.480   1.698   6.541
28627WAT     H186123   3.473   1.660   6.449
28627WAT     H286124   3.389   1.702   6.583
28628WAT      O86125   0.601   6.619   5.060
28628WAT     H186126   0.675   6.668   5.013
28628WAT     H286127   0.641   6.559   5.129
28629WAT      O86128   6.218   0.842   1.612
28629WAT     H186129   6.301   0.796   1.581
28629WAT     H286130   6.226   0.864   1.709
28630WAT      O86131   7.638   9.754   9.051
28630WAT     H186132   7.673   9.837   9.008
28630WAT     H286133   7.715   9.694   9.074
28631WAT      O86134   3.926   4.352   5.906
28631WAT     H186135   3.958   4.370   5.999
28631WAT     H286136   3.888   4.436   5.867
28632WAT      O86137   1.733   6.832   1.910
28632WAT     H186138   1.769   6.821   2.003
28632WAT     H286139   1.705   6.927   1.897
28633WAT      O86140   2.075   0.924   5.700
28633WAT     H186141   2.049   0.991   5.771
28633WAT     H286142   1.994   0.873   5.671
28634WAT      O86143   2.689   6.135   3.795
28634WAT     H186144   2.676   6.039   3.820
28634WAT     H286145   2.756   6.141   3.721
28635WAT      O86146   9.365   2.415   8.544
28635WAT     H186147   9.346   2.371   8.632
28635WAT     H286148   9.412   2.351   8.484
28636WAT      O86149   3.001   8.032   0.014
28636WAT     H186150   3.002   7.981   0.100
28636WAT     H286151   2.923   8.003  -0.042
28637WAT      O86152   8.060   6.395   3.541
28637WAT     H186153   8.032   6.423   3.633
28637WAT     H286154   8.030   6.464   3.475
28638WAT      O86155   3.257   4.954   0.088
28638WAT     H186156   3.230   5.022   0.156
28638WAT     H286157   3.321   4.889   0.129
28639WAT      O86158   6.648   5.619   8.656
28639WAT     H186159   6.627   5.569   8.571
28639WAT     H286160   6.609   5.571   8.734
28640WAT      O86161   8.618   0.363   9.024
28640WAT     H186162   8.674   0.393   9.101
28640WAT     H286163   8.523   0.353   9.053
28641WAT      O86164   9.398   4.300   3.092
28641WAT     H186165   9.339   4.225   3.060
28641WAT     H286166   9.348   4.357   3.157
28642WAT      O86167   6.571   4.183   7.474
28642WAT     H186168   6.509   4.226   7.539
28642WAT     H286169   6.615   4.104   7.517
28643WAT      O86170   0.426   4.239   6.511
28643WAT     H186171   0.397   4.144   6.505
28643WAT     H286172   0.400   4.276   6.600
28644WAT      O86173   1.119   9.515   3.232
28644WAT     H186174   1.035   9.479   3.272
28644WAT     H286175   1.136   9.608   3.266
28645WAT      O86176   4.045   5.392   7.624
28645WAT     H186177   4.043   5.311   7.682
28645WAT     H286178   4.067   5.473   7.679
28646WAT      O86179   5.808   9.830   0.715
28646WAT     H186180   5.821   9.846   0.617
28646WAT     H286181   5.897   9.815   0.758
28647WAT      O86182   6.851   5.847   9.710
28647WAT     H186183   6.889   5.940   9.711
28647WAT     H286184   6.806   5.829   9.797
28648WAT      O86185   9.692   0.092   0.645
28648WAT     H186186   9.716   0.123   0.553
28648WAT     H286187   9.686   0.171   0.706
28649WAT      O86188   7.549   1.070   4.099
28649WAT     H186189   7.516   1.131   4.027
28649WAT     H286190   7.541   0.975   4.069
28650WAT      O86191   5.910   3.885   6.275
28650WAT     H186192   5.824   3.924   6.307
28650WAT     H286193   5.984   3.915   6.335
28651WAT      O86194   5.550   4.816   6.752
28651WAT     H186195   5.615   4.783   6.821
28651WAT     H286196   5.594   4.885   6.694
28652WAT      O86197   5.850   4.753   0.626
28652WAT     H186198   5.938   4.757   0.578
28652WAT     H286199   5.785   4.815   0.582
28653WAT      O86200   1.064   2.209   0.440
28653WAT     H186201   1.002   2.286   0.453
28653WAT     H286202   1.106   2.215   0.349
28654WAT      O86203   9.244   2.120   1.257
28654WAT     H186204   9.239   2.020   1.261
28654WAT     H286205   9.184   2.153   1.184
28655WAT      O86206   3.786   4.861   5.376
28655WAT     H186207   3.871   4.914   5.371
28655WAT     H286208   3.799   4.783   5.437
28656WAT      O86209   5.752   0.278   7.928
28656WAT     H186210   5.777   0.181   7.938
28656WAT     H286211   5.834   0.334   7.924
28657WAT      O86212   7.501   0.535   9.367
28657WAT     H186213   7.404   0.541   9.346
28657WAT     H286214   7.520   0.447   9.412
28658WAT      O86215   9.882   8.884   5.490
28658WAT     H186216   9.918   8.816   5.554
28658WAT     H286217   9.843   8.961   5.541
28659WAT      O86218   2.630   3.938   4.591
28659WAT     H186219   2.557   3.982   4.644
28659WAT     H286220   2.675   3.869   4.647
28660WAT      O86221   6.145   5.588   0.995
28660WAT     H186222   6.198   5.570   1.078
28660WAT     H286223   6.047   5.577   1.016
28661WAT      O86224   8.217   2.945   8.243
28661WAT     H186225   8.293   2.881   8.232
28661WAT     H286226   8.149   2.905   8.304
28662WAT      O86227   4.152   0.369   5.995
28662WAT     H186228   4.131   0.272   6.005
28662WAT     H286229   4.239   0.380   5.947
28663WAT      O86230   4.370   2.953   4.575
28663WAT     H186231   4.407   3.012   4.504
28663WAT     H286232   4.408   2.861   4.565
28664WAT      O86233   4.239   7.043   2.619
28664WAT     H186234   4.308   7.098   2.665
28664WAT     H286235   4.172   7.010   2.686
28665WAT      O86236   8.820   4.264   9.523
28665WAT     H186237   8.893   4.207   9.485
28665WAT     H286238   8.733   4.238   9.482
28666WAT      O86239   0.624   2.761   8.676
28666WAT     H186240   0.634   2.847   8.726
28666WAT     H286241   0.582   2.779   8.587
28667WAT      O86242   4.677   7.885   7.186
28667WAT     H186243   4.652   7.919   7.096
28667WAT     H286244   4.654   7.788   7.193
28668WAT      O86245   1.778   1.765   7.468
28668WAT     H186246   1.710   1.724   7.407
28668WAT     H286247   1.836   1.827   7.417
28669WAT      O86248   1.452   8.121   5.653
28669WAT     H186249   1.484   8.152   5.743
28669WAT     H286250   1.526   8.128   5.587
28670WAT      O86251   6.722   2.789   1.893
28670WAT     H186252   6.711   2.697   1.857
28670WAT     H286253   6.642   2.814   1.948
28671WAT      O86254   8.938   7.061   6.127
28671WAT     H186255   8.981   6.974   6.102
28671WAT     H286256   8.853   7.072   6.077
28672WAT      O86257   1.002   7.705   2.897
28672WAT     H186258   0.959   7.702   2.988
28672WAT     H286259   0.966   7.783   2.846
28673WAT      O86260   8.169   4.017   4.127
28673WAT     H186261   8.259   4.011   4.171
28673WAT     H286262   8.098   4.023   4.198
28674WAT      O86263   6.983   9.344   7.391
28674WAT     H186264   6.973   9.272   7.322
28674WAT     H286265   6.944   9.314   7.477
28675WAT      O86266   0.301   6.378   2.076
28675WAT     H186267   0.399   6.359   2.085
28675WAT     H286268   0.281   6.469   2.114
28676WAT      O86269   2.795   3.209   5.397
28676WAT     H186270   2.855   3.185   5.321
28676WAT     H286271   2.715   3.149   5.397
28677WAT      O86272   6.927   0.878   0.546
28677WAT     H186273   6.874   0.794   0.551
28677WAT     H286274   6.973   0.895   0.633
28678WAT      O86275   5.928   0.840   2.323
28678WAT     H186276   5.886   0.760   2.365
28678WAT     H286277   5.862   0.915   2.322
28679WAT      O86278   0.948   2.729   1.196
28679WAT     H186279   0.956   2.688   1.287
28679WAT     H286280   0.882   2.804   1.198
28680WAT      O86281   3.988   3.152   2.552
28680WAT     H186282   4.053   3.142   2.477
28680WAT     H286283   4.021   3.105   2.633
28681WAT      O86284   6.463   9.147   8.983
28681WAT     H186285   6.513   9.199   8.914
28681WAT     H286286   6.417   9.069   8.938
28682WAT      O86287   6.979   0.638   8.363
28682WAT     H186288   7.060   0.661   8.418
28682WAT     H286289   6.905   0.702   8.385
28683WAT      O86290   7.858   8.569   5.630
28683WAT     H186291   7.798   8.645   5.654
28683WAT     H286292   7.803   8.489   5.607
28684WAT      O86293   7.626   7.908   4.926
28684WAT     H186294   7.684   7.828   4.917
28684WAT     H286295   7.541   7.894   4.875
28685WAT      O86296   4.251   3.832   0.908
28685WAT     H186297   4.282   3.842   1.002
28685WAT     H286298   4.314   3.879   0.846
28686WAT      O86299   9.190   4.969   9.614
28686WAT     H186300   9.100   4.928   9.609
28686WAT     H286301   9.211   4.993   9.709
28687WAT      O86302   6.393   8.770   3.332
28687WAT     H186303   6.360   8.749   3.240
28687WAT     H286304   6.315   8.788   3.393
28688WAT      O86305   8.981   7.691   5.230
28688WAT     H186306   9.006   7.785   5.209
28688WAT     H286307   8.993   7.675   5.328
28689WAT      O86308   1.351   5.581   5.935
28689WAT     H186309   1.305   5.561   5.849
28689WAT     H286310   1.396   5.670   5.929
28690WAT      O86311   9.676   0.615   7.455
28690WAT     H186312   9.767   0.645   7.485
28690WAT     H286313   9.683   0.530   7.404
28691WAT      O86314   0.214   4.884   7.331
28691WAT     H186315   0.127   4.931   7.346
28691WAT     H286316   0.239   4.833   7.414
28692WAT      O86317   8.449   2.065   3.728
28692WAT     H186318   8.546   2.085   3.709
28692WAT     H286319   8.407   2.027   3.646
28693WAT      O86320   3.070   1.909   9.670
28693WAT     H186321   3.158   1.865   9.686
28693WAT     H286322   3.008   1.889   9.746
28694WAT      O86323   3.877   5.290   5.056
28694WAT     H186324   3.922   5.216   5.007
28694WAT     H286325   3.879   5.373   5.001
28695WAT      O86326   5.448   7.690   1.352
28695WAT     H186327   5.503   7.611   1.379
28695WAT     H286328   5.485   7.728   1.267
28696WAT      O86329   1.270   0.160   3.323
28696WAT     H186330   1.201   0.196   3.385
28696WAT     H286331   1.340   0.229   3.306
28697WAT      O86332   2.519   5.863   2.629
28697WAT     H186333   2.445   5.927   2.650
28697WAT     H286334   2.607   5.911   2.634
28698WAT      O86335   2.428   5.124   8.811
28698WAT     H186336   2.495   5.122   8.737
28698WAT     H286337   2.336   5.115   8.773
28699WAT      O86338   6.951   5.233   4.169
28699WAT     H186339   6.984   5.307   4.110
28699WAT     H286340   7.029   5.185   4.208
28700WAT      O86341   2.133   4.159   7.141
28700WAT     H186342   2.198   4.234   7.144
28700WAT     H286343   2.055   4.185   7.084
28701WAT      O86344   5.397   7.178   0.095
28701WAT     H186345   5.396   7.078   0.096
28701WAT     H286346   5.303   7.213   0.095
28702WAT      O86347   0.149   7.728   7.477
28702WAT     H186348   0.133   7.662   7.551
28702WAT     H286349   0.202   7.805   7.512
28703WAT      O86350   7.572   8.462   5.875
28703WAT     H186351   7.512   8.539   5.855
28703WAT     H286352   7.648   8.492   5.931
28704WAT      O86353   1.801   7.064   0.472
28704WAT     H186354   1.756   7.146   0.436
28704WAT     H286355   1.874   7.091   0.534
28705WAT      O86356   8.861   1.767   9.611
28705WAT     H186357   8.776   1.770   9.663
28705WAT     H286358   8.840   1.775   9.513
28706WAT      O86359   0.346   0.281   5.801
28706WAT     H186360   0.310   0.192   5.772
28706WAT     H286361   0.445   0.275   5.812
28707WAT      O86362   1.717   0.745   2.980
28707WAT     H186363   1.720   0.723   2.882
28707WAT     H286364   1.785   0.815   3.000
28708WAT      O86365   6.501   7.189   3.085
28708WAT     H186366   6.467   7.272   3.041
28708WAT     H286367   6.591   7.206   3.125
28709WAT      O86368   6.637   1.955   4.838
28709WAT     H186369   6.620   1.925   4.744
28709WAT     H286370   6.551   1.956   4.889
28710WAT      O86371   1.973   3.991   6.657
28710WAT     H186372   2.053   4.030   6.703
28710WAT     H286373   2.001   3.914   6.600
28711WAT      O86374   9.768   1.555   7.474
28711WAT     H186375   9.798   1.480   7.414
28711WAT     H286376   9.731   1.630   7.419
28712WAT      O86377   6.101   5.272   7.818
28712WAT     H186378   6.055   5.183   7.817
28712WAT     H286379   6.194   5.260   7.853
28713WAT      O86380   0.946   1.317   4.375
28713WAT     H186381   0.959   1.256   4.296
28713WAT     H286382   0.864   1.372   4.362
28714WAT      O86383   2.319   5.284   5.814
28714WAT     H186384   2.399   5.308   5.759
28714WAT     H286385   2.244   5.348   5.793
28715WAT      O86386   0.118   5.069   7.770
28715WAT     H186387   0.061   4.995   7.734
28715WAT     H286388   0.124   5.061   7.870
28716WAT      O86389   8.986   1.250   4.236
28716WAT     H186390   9.067   1.203   4.269
28716WAT     H286391   8.908   1.229   4.296
28717WAT      O86392   8.145   6.844   7.969
28717WAT     H186393   8.054   6.808   7.952
28717WAT     H286394   8.152   6.937   7.934
28718WAT      O86395   3.842   0.949   0.730
28718WAT     H186396   3.766   0.951   0.665
28718WAT     H286397   3.880   0.857   0.735
28719WAT      O86398   2.261   2.026   2.719
28719WAT     H186399   2.344   1.977   2.745
28719WAT     H286400   2.187   1.960   2.706
28720WAT      O86401   6.374   6.831   4.618
28720WAT     H186402   6.372   6.886   4.534
28720WAT     H286403   6.449   6.765   4.612
28721WAT      O86404   8.841   3.755   8.106
28721WAT     H186405   8.934   3.792   8.115
28721WAT     H286406   8.844   3.656   8.115
28722WAT      O86407   3.463   0.952   0.967
28722WAT     H186408   3.368   0.924   0.952
28722WAT     H286409   3.495   0.918   1.055
28723WAT      O86410   1.158   0.673   2.721
28723WAT     H186411   1.211   0.692   2.804
28723WAT     H286412   1.064   0.703   2.735
28724WAT      O86413   8.085   3.517   6.569
28724WAT     H186414   8.019   3.540   6.640
28724WAT     H286415   8.178   3.531   6.603
28725WAT      O86416   6.302   4.695   7.193
28725WAT     H186417   6.332   4.692   7.098
28725WAT     H286418   6.225   4.758   7.202
28726WAT      O86419   3.255   0.673   2.243
28726WAT     H186420   3.166   0.628   2.238
28726WAT     H286421   3.328   0.604   2.242
28727WAT      O86422   1.680   8.511   8.303
28727WAT     H186423   1.766   8.561   8.301
28727WAT     H286424   1.651   8.498   8.398
28728WAT      O86425   4.827   3.488   5.764
28728WAT     H186426   4.910   3.543   5.758
28728WAT     H286427   4.810   3.464   5.860
28729WAT      O86428   8.006   5.833   5.847
28729WAT     H186429   8.045   5.924   5.862
28729WAT     H286430   8.068   5.764   5.886
28730WAT      O86431   1.608   2.996   3.694
28730WAT     H186432   1.621   3.071   3.629
28730WAT     H286433   1.659   3.015   3.778
28731WAT      O86434   7.459   3.043   5.393
28731WAT     H186435   7.380   3.061   5.336
28731WAT     H286436   7.429   3.024   5.487
28732WAT      O86437   3.473   6.303   5.825
28732WAT     H186438   3.485   6.342   5.916
28732WAT     H286439   3.551   6.330   5.767
28733WAT      O86440   4.212   5.365   4.822
28733WAT     H186441   4.147   5.320   4.761
28733WAT     H286442   4.305   5.342   4.795
28734WAT      O86443   8.509   5.962   5.159
28734WAT     H186444   8.540   5.909   5.080
28734WAT     H286445   8.481   5.900   5.232
28735WAT      O86446   8.447   8.671   4.734
28735WAT     H186447   8.498   8.715   4.660
28735WAT     H286448   8.350   8.667   4.709
28736WAT      O86449   6.528   2.248   8.066
28736WAT     H186450   6.458   2.194   8.018
28736WAT     H286451   6.498   2.343   8.073
28737WAT      O86452   3.896   2.359   0.464
28737WAT     H186453   3.990   2.360   0.430
28737WAT     H286454   3.873   2.449   0.503
28738WAT      O86455   1.856   7.557   8.589
28738WAT     H186456   1.791   7.482   8.601
28738WAT     H286457   1.808   7.644   8.599
28739WAT      O86458   9.585   4.916   9.387
28739WAT     H186459   9.621   5.003   9.419
28739WAT     H286460   9.658   4.848   9.384
28740WAT      O86461   1.613   7.499   5.981
28740WAT     H186462   1.631   7.426   6.047
28740WAT     H286463   1.695   7.516   5.926
28741WAT      O86464   4.429   8.046   5.767
28741WAT     H186465   4.379   8.130   5.787
28741WAT     H286466   4.369   7.983   5.717
28742WAT      O86467   5.772   9.223   6.456
28742WAT     H186468   5.760   9.272   6.542
28742WAT     H286469   5.820   9.137   6.473
28743WAT      O86470   2.659   2.225   5.601
28743WAT     H186471   2.587   2.291   5.622
28743WAT     H286472   2.644   2.187   5.509
28744WAT      O86473   8.818   8.116   3.334
28744WAT     H186474   8.908   8.138   3.372
28744WAT     H286475   8.826   8.040   3.270
28745WAT      O86476   2.573   7.842   4.550
28745WAT     H186477   2.570   7.855   4.650
28745WAT     H286478   2.483   7.813   4.518
28746WAT      O86479   2.928   2.089   2.910
28746WAT     H186480   2.850   2.153   2.911
28746WAT     H286481   2.917   2.026   2.833
28747WAT      O86482   9.832   9.702   6.370
28747WAT     H186483   9.903   9.685   6.301
28747WAT     H286484   9.841   9.635   6.444
28748WAT      O86485   9.260   5.707   0.725
28748WAT     H186486   9.297   5.761   0.801
28748WAT     H286487   9.165   5.683   0.744
28749WAT      O86488   7.442   0.582   1.210
28749WAT     H186489   7.393   0.631   1.138
28749WAT     H286490   7.378   0.524   1.261
28750WAT      O86491   6.827   1.661   4.567
28750WAT     H186492   6.870   1.571   4.557
28750WAT     H286493   6.893   1.725   4.606
28751WAT      O86494   6.631   0.533   4.432
28751WAT     H186495   6.536   0.501   4.438
28751WAT     H286496   6.631   0.629   4.406
28752WAT      O86497   8.228   8.641   6.617
28752WAT     H186498   8.227   8.563   6.681
28752WAT     H286499   8.279   8.616   6.535
28753WAT      O86500   3.645   4.446   5.641
28753WAT     H186501   3.641   4.378   5.715
28753WAT     H286502   3.634   4.401   5.553
28754WAT      O86503   0.479   7.554   0.069
28754WAT     H186504   0.555   7.489   0.067
28754WAT     H286505   0.436   7.554   0.160
28755WAT      O86506   9.809   3.959   4.701
28755WAT     H186507   9.875   4.029   4.728
28755WAT     H286508   9.843   3.910   4.620
28756WAT      O86509   1.934   9.315   4.936
28756WAT     H186510   1.846   9.329   4.891
28756WAT     H286511   2.008   9.336   4.871
28757WAT      O86512   8.316   0.245   5.879
28757WAT     H186513   8.274   0.214   5.794
28757WAT     H286514   8.288   0.186   5.955
28758WAT      O86515   5.748   9.506   5.940
28758WAT     H186516   5.832   9.497   5.886
28758WAT     H286517   5.771   9.534   6.033
28759WAT      O86518   5.475   7.199   6.605
28759WAT     H186519   5.462   7.149   6.690
28759WAT     H286520   5.402   7.175   6.541
28760WAT      O86521   3.637   9.751   7.871
28760WAT     H186522   3.586   9.837   7.878
28760WAT     H286523   3.665   9.736   7.777
28761WAT      O86524   3.100   7.068   3.353
28761WAT     H186525   3.086   7.106   3.444
28761WAT     H286526   3.016   7.079   3.299
28762WAT      O86527   8.992   4.385   5.430
28762WAT     H186528   9.055   4.439   5.486
28762WAT     H286529   8.931   4.447   5.380
28763WAT      O86530   9.035   6.529   3.517
28763WAT     H186531   9.134   6.541   3.510
28763WAT     H286532   8.990   6.581   3.444
28764WAT      O86533   3.989   8.053   9.542
28764WAT     H186534   4.042   8.111   9.480
28764WAT     H286535   3.983   8.096   9.632
28765WAT      O86536   5.511   2.151   7.965
28765WAT     H186537   5.505   2.224   8.033
28765WAT     H286538   5.592   2.095   7.983
28766WAT      O86539   9.404   5.261   0.060
28766WAT     H186540   9.359   5.350   0.068
28766WAT     H286541   9.415   5.220   0.150
28767WAT      O86542   7.915   0.740   9.382
28767WAT     H186543   7.892   0.828   9.340
28767WAT     H286544   7.841   0.674   9.364
28768WAT      O86545   0.765   0.722   1.939
28768WAT     H186546   0.809   0.691   2.023
28768WAT     H286547   0.769   0.649   1.870
28769WAT      O86548   9.007   9.180   2.307
28769WAT     H186549   9.008   9.277   2.327
28769WAT     H286550   8.936   9.161   2.238
28770WAT      O86551   1.317   2.979   9.423
28770WAT     H186552   1.355   2.887   9.424
28770WAT     H286553   1.367   3.035   9.356
28771WAT      O86554   6.525   8.152   9.752
28771WAT     H186555   6.519   8.187   9.846
28771WAT     H286556   6.445   8.096   9.733
28772WAT      O86557   1.711   4.897   7.222
28772WAT     H186558   1.629   4.852   7.257
28772WAT     H286559   1.760   4.941   7.298
28773WAT      O86560   8.231   8.422   8.776
28773WAT     H186561   8.144   8.379   8.752
28773WAT     H286562   8.232   8.517   8.745
28774WAT      O86563   4.800   5.480   1.447
28774WAT     H186564   4.808   5.444   1.354
28774WAT     H286565   4.813   5.579   1.445
28775WAT      O86566   0.588   6.400   1.656
28775WAT     H186567   0.506   6.457   1.662
28775WAT     H286568   0.637   6.402   1.744
28776WAT      O86569   5.018   7.009   2.747
28776WAT     H186570   4.948   7.071   2.783
28776WAT     H286571   5.108   7.036   2.780
28777WAT      O86572   2.128   8.711   8.400
28777WAT     H186573   2.200   8.752   8.345
28777WAT     H286574   2.151   8.720   8.497
28778WAT      O86575   6.020   1.731   6.570
28778WAT     H186576   6.040   1.695   6.479
28778WAT     H286577   5.941   1.683   6.608
28779WAT      O86578   4.718   6.572   9.820
28779WAT     H186579   4.626   6.543   9.792
28779WAT     H286580   4.758   6.502   9.879
28780WAT      O86581   1.058   8.464   0.859
28780WAT     H186582   0.990   8.526   0.819
28780WAT     H286583   1.143   8.470   0.807
28781WAT      O86584   7.614   6.568   1.079
28781WAT     H186585   7.674   6.640   1.045
28781WAT     H286586   7.667   6.484   1.094
28782WAT      O86587   3.268   0.275   6.241
28782WAT     H186588   3.235   0.370   6.238
28782WAT     H286589   3.216   0.220   6.176
28783WAT      O86590   5.834   1.779   8.059
28783WAT     H186591   5.922   1.799   8.103
28783WAT     H286592   5.817   1.680   8.063
28784WAT      O86593   0.612   8.685   2.357
28784WAT     H186594   0.544   8.660   2.426
28784WAT     H286595   0.696   8.634   2.372
28785WAT      O86596   4.533   2.502   1.516
28785WAT     H186597   4.509   2.563   1.592
28785WAT     H286598   4.456   2.496   1.453
28786WAT      O86599   8.426   0.204   0.827
28786WAT     H186600   8.480   0.212   0.910
28786WAT     H286601   8.330   0.225   0.848
28787WAT      O86602   4.155   9.560   4.031
28787WAT     H186603   4.134   9.483   4.090
28787WAT     H286604   4.136   9.646   4.080
28788WAT      O86605   7.174   0.821   7.388
28788WAT     H186606   7.106   0.879   7.432
28788WAT     H286607   7.146   0.804   7.293
28789WAT      O86608   6.182   5.260   7.486
28789WAT     H186609   6.245   5.192   7.522
28789WAT     H286610   6.228   5.314   7.415
28790WAT      O86611   9.677   3.588   4.226
28790WAT     H186612   9.721   3.677   4.232
28790WAT     H286613   9.731   3.520   4.275
28791WAT      O86614   8.047   6.656   8.539
28791WAT     H186615   8.047   6.740   8.593
28791WAT     H286616   8.138   6.643   8.498
28792WAT      O86617   4.612   5.746   5.465
28792WAT     H186618   4.580   5.689   5.390
28792WAT     H286619   4.567   5.835   5.461
28793WAT      O86620   1.835   5.730   5.332
28793WAT     H186621   1.922   5.749   5.377
28793WAT     H286622   1.775   5.810   5.341
28794WAT      O86623   1.892   8.197   8.099
28794WAT     H186624   1.926   8.282   8.058
28794WAT     H286625   1.967   8.153   8.149
28795WAT      O86626   4.436   6.493   9.048
28795WAT     H186627   4.437   6.437   8.965
28795WAT     H286628   4.385   6.446   9.120
28796WAT      O86629   1.230   9.497   2.115
28796WAT     H186630   1.171   9.462   2.042
28796WAT     H286631   1.212   9.447   2.199
28797WAT      O86632   8.541   0.667   4.984
28797WAT     H186633   8.523   0.640   4.889
28797WAT     H286634   8.549   0.766   4.990
28798WAT      O86635   6.632   5.679   7.443
28798WAT     H186636   6.554   5.705   7.385
28798WAT     H286637   6.707   5.649   7.385
28799WAT      O86638   4.816   6.527   1.675
28799WAT     H186639   4.792   6.596   1.742
28799WAT     H286640   4.732   6.485   1.639
28800WAT      O86641   8.438   2.583   4.294
28800WAT     H186642   8.488   2.568   4.379
28800WAT     H286643   8.483   2.534   4.220
28801WAT      O86644   4.648   0.079   8.220
28801WAT     H186645   4.744   0.063   8.197
28801WAT     H286646   4.643   0.127   8.307
28802WAT      O86647   3.308   6.866   5.551
28802WAT     H186648   3.391   6.874   5.606
28802WAT     H286649   3.333   6.856   5.455
28803WAT      O86650   8.609   2.408   6.354
28803WAT     H186651   8.518   2.423   6.394
28803WAT     H286652   8.645   2.495   6.321
28804WAT      O86653   2.385   9.812   9.621
28804WAT     H186654   2.452   9.747   9.587
28804WAT     H286655   2.306   9.814   9.559
28805WAT      O86656   0.313   1.913   8.210
28805WAT     H186657   0.393   1.963   8.243
28805WAT     H286658   0.278   1.854   8.283
28806WAT      O86659   6.515   9.803   0.763
28806WAT     H186660   6.568   9.760   0.837
28806WAT     H286661   6.519   9.745   0.682
28807WAT      O86662   1.882   0.089   7.436
28807WAT     H186663   1.962   0.080   7.377
28807WAT     H286664   1.833   0.173   7.413
28808WAT      O86665   1.148   8.737   4.683
28808WAT     H186666   1.115   8.667   4.746
28808WAT     H286667   1.236   8.772   4.717
28809WAT      O86668   5.360   4.570   6.379
28809WAT     H186669   5.336   4.602   6.471
28809WAT     H286670   5.421   4.636   6.337
28810WAT      O86671   9.433   3.183   1.601
28810WAT     H186672   9.377   3.132   1.666
28810WAT     H286673   9.524   3.198   1.640
28811WAT      O86674   7.958   1.492   8.095
28811WAT     H186675   7.929   1.542   8.176
28811WAT     H286676   8.057   1.493   8.088
28812WAT      O86677   2.719   7.576   4.880
28812WAT     H186678   2.690   7.655   4.826
28812WAT     H286679   2.660   7.498   4.858
28813WAT      O86680   8.081   6.247   8.482
28813WAT     H186681   8.158   6.285   8.431
28813WAT     H286682   8.022   6.320   8.514
28814WAT      O86683   5.936   2.674   1.675
28814WAT     H186684   5.836   2.669   1.676
28814WAT     H286685   5.968   2.700   1.583
28815WAT      O86686   6.665   0.618   5.098
28815WAT     H186687   6.568   0.641   5.110
28815WAT     H286688   6.721   0.681   5.152
28816WAT      O86689   2.512   1.969   0.038
28816WAT     H186690   2.441   1.958  -0.032
28816WAT     H286691   2.506   2.061   0.077
28817WAT      O86692   9.732   3.200   9.144
28817WAT     H186693   9.816   3.243   9.111
28817WAT     H286694   9.752   3.108   9.176
28818WAT      O86695   4.070   7.609   4.913
28818WAT     H186696   4.067   7.589   4.815
28818WAT     H286697   4.010   7.546   4.962
28819WAT      O86698   9.697   6.209   4.365
28819WAT     H186699   9.702   6.307   4.384
28819WAT     H286700   9.625   6.168   4.422
28820WAT      O86701   2.894   8.196   9.608
28820WAT     H186702   2.844   8.125   9.558
28820WAT     H286703   2.930   8.157   9.693
28821WAT      O86704   7.394   0.377   6.959
28821WAT     H186705   7.396   0.304   7.027
28821WAT     H286706   7.351   0.458   6.999
28822WAT      O86707   2.005   2.966   2.572
28822WAT     H186708   2.018   2.886   2.630
28822WAT     H286709   2.030   3.049   2.623
28823WAT      O86710   4.809   3.177   2.025
28823WAT     H186711   4.798   3.223   2.113
28823WAT     H286712   4.722   3.140   1.995
28824WAT      O86713   5.389   2.055   1.989
28824WAT     H186714   5.460   2.065   2.060
28824WAT     H286715   5.325   2.131   1.996
28825WAT      O86716   2.227   9.223   5.557
28825WAT     H186717   2.310   9.188   5.514
28825WAT     H286718   2.175   9.147   5.596
28826WAT      O86719   4.809   0.901   4.557
28826WAT     H186720   4.894   0.932   4.601
28826WAT     H286721   4.831   0.861   4.468
28827WAT      O86722   8.940   5.240   5.544
28827WAT     H186723   8.954   5.302   5.621
28827WAT     H286724   8.993   5.156   5.559
28828WAT      O86725   3.865   1.078   1.547
28828WAT     H186726   3.888   0.985   1.517
28828WAT     H286727   3.782   1.108   1.500
28829WAT      O86728   5.993   8.677   0.962
28829WAT     H186729   5.894   8.677   0.946
28829WAT     H286730   6.013   8.724   1.048
28830WAT      O86731   1.158   1.477   4.495
28830WAT     H186732   1.119   1.422   4.422
28830WAT     H286733   1.119   1.569   4.493
28831WAT      O86734   3.231   9.636   6.919
28831WAT     H186735   3.326   9.613   6.895
28831WAT     H286736   3.186   9.678   6.841
28832WAT      O86737   6.701   0.253   5.602
28832WAT     H186738   6.658   0.248   5.512
28832WAT     H286739   6.646   0.201   5.668
28833WAT      O86740   9.525   0.890   4.162
28833WAT     H186741   9.544   0.866   4.066
28833WAT     H286742   9.461   0.824   4.201
28834WAT      O86743   0.192   1.220   6.314
28834WAT     H186744   0.211   1.292   6.247
28834WAT     H286745   0.119   1.250   6.376
28835WAT      O86746   4.341   8.992   5.989
28835WAT     H186747   4.399   9.067   6.019
28835WAT     H286748   4.397   8.923   5.942
28836WAT      O86749   3.218   2.794   1.619
28836WAT     H186750   3.256   2.821   1.707
28836WAT     H286751   3.140   2.732   1.634
28837WAT      O86752   6.554   0.272   2.475
28837WAT     H186753   6.647   0.296   2.501
28837WAT     H286754   6.531   0.182   2.513
28838WAT      O86755   9.827   5.477   5.983
28838WAT     H186756   9.861   5.489   5.890
28838WAT     H286757   9.902   5.491   6.048
28839WAT      O86758   0.637   4.373   1.756
28839WAT     H186759   0.612   4.468   1.735
28839WAT     H286760   0.725   4.371   1.804
28840WAT      O86761   7.987   6.081   3.827
28840WAT     H186762   8.037   6.140   3.764
28840WAT     H286763   8.042   6.000   3.847
28841WAT      O86764   4.134   5.247   2.590
28841WAT     H186765   4.103   5.254   2.685
28841WAT     H286766   4.055   5.233   2.530
28842WAT      O86767   3.106   2.904   2.630
28842WAT     H186768   3.146   2.864   2.548
28842WAT     H286769   3.104   2.835   2.703
28843WAT      O86770   4.969   7.163   0.878
28843WAT     H186771   4.891   7.166   0.815
28843WAT     H286772   4.945   7.108   0.958
28844WAT      O86773   2.426   5.750   7.714
28844WAT     H186774   2.456   5.734   7.620
28844WAT     H286775   2.378   5.669   7.748
28845WAT      O86776   4.008   8.040   5.141
28845WAT     H186777   4.100   8.032   5.104
28845WAT     H286778   3.986   7.959   5.195
28846WAT      O86779   7.134   8.514   0.301
28846WAT     H186780   7.044   8.557   0.309
28846WAT     H286781   7.152   8.461   0.384
28847WAT      O86782   6.349   0.743   6.745
28847WAT     H186783   6.256   0.740   6.708
28847WAT     H286784   6.391   0.653   6.737
28848WAT      O86785   2.208   7.992   1.959
28848WAT     H186786   2.284   8.051   1.930
28848WAT     H286787   2.229   7.953   2.049
28849WAT      O86788   9.806   4.951   3.718
28849WAT     H186789   9.806   4.953   3.618
28849WAT     H286790   9.756   4.871   3.750
28850WAT      O86791   4.313   1.985   3.693
28850WAT     H186792   4.241   1.992   3.763
28850WAT     H286793   4.384   2.052   3.711
28851WAT      O86794   7.202   1.390   3.947
28851WAT     H186795   7.254   1.438   4.018
28851WAT     H286796   7.212   1.438   3.860
28852WAT      O86797   4.504   5.505   6.904
28852WAT     H186798   4.582   5.510   6.842
28852WAT     H286799   4.536   5.512   6.999
28853WAT      O86800   6.360   5.246   9.627
28853WAT     H186801   6.274   5.205   9.658
28853WAT     H286802   6.436   5.203   9.675
28854WAT      O86803   0.523   4.659   9.888
28854WAT     H186804   0.492   4.627   9.978
28854WAT     H286805   0.567   4.584   9.839
28855WAT      O86806   7.826   1.242   5.606
28855WAT     H186807   7.853   1.195   5.523
28855WAT     H286808   7.884   1.322   5.620
28856WAT      O86809   2.226   5.669   5.549
28856WAT     H186810   2.203   5.572   5.540
28856WAT     H286811   2.316   5.686   5.510
28857WAT      O86812   0.891   8.317   0.371
28857WAT     H186813   0.806   8.315   0.424
28857WAT     H286814   0.913   8.412   0.348
28858WAT      O86815   1.551   6.979   5.846
28858WAT     H186816   1.557   7.077   5.825
28858WAT     H286817   1.485   6.937   5.785
28859WAT      O86818   6.387   4.107   1.997
28859WAT     H186819   6.330   4.053   1.934
28859WAT     H286820   6.477   4.121   1.956
28860WAT      O86821   8.624   7.006   4.592
28860WAT     H186822   8.678   6.925   4.615
28860WAT     H286823   8.652   7.040   4.502
28861WAT      O86824   6.297   3.544   2.589
28861WAT     H186825   6.291   3.599   2.673
28861WAT     H286826   6.392   3.515   2.575
28862WAT      O86827   6.239   5.260   2.688
28862WAT     H186828   6.323   5.260   2.743
28862WAT     H286829   6.192   5.347   2.699
28863WAT      O86830   6.653   2.510   3.960
28863WAT     H186831   6.710   2.589   3.940
28863WAT     H286832   6.704   2.426   3.938
28864WAT      O86833   3.674   9.332   0.659
28864WAT     H186834   3.677   9.295   0.566
28864WAT     H286835   3.578   9.339   0.689
28865WAT      O86836   6.126   1.433   7.018
28865WAT     H186837   6.094   1.422   6.924
28865WAT     H286838   6.080   1.367   7.077
28866WAT      O86839   8.878   9.180   1.426
28866WAT     H186840   8.887   9.252   1.494
28866WAT     H286841   8.871   9.091   1.472
28867WAT      O86842   7.466   8.595   1.777
28867WAT     H186843   7.423   8.564   1.861
28867WAT     H286844   7.440   8.535   1.701
28868WAT      O86845   3.684   6.812   0.297
28868WAT     H186846   3.670   6.911   0.290
28868WAT     H286847   3.776   6.789   0.267
28869WAT      O86848   4.264   9.358   5.192
28869WAT     H186849   4.313   9.438   5.227
28869WAT     H286850   4.300   9.276   5.236
28870WAT      O86851   2.579   9.078   4.008
28870WAT     H186852   2.504   9.036   4.060
28870WAT     H286853   2.647   9.009   3.986
28871WAT      O86854   7.476   9.395   1.005
28871WAT     H186855   7.562   9.346   1.018
28871WAT     H286856   7.422   9.348   0.935
28872WAT      O86857   6.061   5.080   8.860
28872WAT     H186858   6.103   4.992   8.838
28872WAT     H286859   6.128   5.153   8.848
28873WAT      O86860   7.119   4.785   5.189
28873WAT     H186861   7.109   4.724   5.110
28873WAT     H286862   7.131   4.730   5.272
28874WAT      O86863   1.202   1.051   1.772
28874WAT     H186864   1.197   1.018   1.677
28874WAT     H286865   1.117   1.098   1.794
28875WAT      O86866   5.157   2.225   8.336
28875WAT     H186867   5.155   2.220   8.236
28875WAT     H286868   5.155   2.132   8.374
28876WAT      O86869   4.740   9.442   4.788
28876WAT     H186870   4.833   9.478   4.782
28876WAT     H286871   4.702   9.463   4.878
28877WAT      O86872   0.494   9.256   4.661
28877WAT     H186873   0.420   9.194   4.636
28877WAT     H286874   0.509   9.322   4.588
28878WAT      O86875   5.387   6.016   7.801
28878WAT     H186876   5.386   6.046   7.705
28878WAT     H286877   5.306   5.961   7.819
28879WAT      O86878   7.378   3.283   5.901
28879WAT     H186879   7.459   3.323   5.857
28879WAT     H286880   7.310   3.355   5.916
28880WAT      O86881   4.817   2.919   7.015
28880WAT     H186882   4.752   2.989   6.986
28880WAT     H286883   4.768   2.839   7.049
28881WAT      O86884   1.133   1.770   1.940
28881WAT     H186885   1.211   1.807   1.888
28881WAT     H286886   1.099   1.840   2.003
28882WAT      O86887   0.766   6.265   1.066
28882WAT     H186888   0.670   6.283   1.043
28882WAT     H286889   0.822   6.278   0.984
28883WAT      O86890   3.077   9.818   8.422
28883WAT     H186891   3.065   9.849   8.327
28883WAT     H286892   3.050   9.892   8.484
28884WAT      O86893   7.095   5.542   3.674
28884WAT     H186894   7.195   5.540   3.670
28884WAT     H286895   7.066   5.621   3.728
28885WAT      O86896   0.285   9.755   6.548
28885WAT     H186897   0.244   9.830   6.601
28885WAT     H286898   0.383   9.772   6.538
28886WAT      O86899   7.671   5.425   4.506
28886WAT     H186900   7.758   5.473   4.511
28886WAT     H286901   7.613   5.470   4.438
28887WAT      O86902   0.529   7.731   9.045
28887WAT     H186903   0.438   7.752   9.082
28887WAT     H286904   0.527   7.736   8.946
28888WAT      O86905   8.087   7.144   5.994
28888WAT     H186906   8.109   7.232   6.035
28888WAT     H286907   8.008   7.104   6.040
28889WAT      O86908   7.644   9.684   7.480
28889WAT     H186909   7.597   9.739   7.549
28889WAT     H286910   7.743   9.694   7.491
28890WAT      O86911   9.007   8.258   5.064
28890WAT     H186912   9.037   8.353   5.075
28890WAT     H286913   9.084   8.197   5.082
28891WAT      O86914   4.708   2.582   3.802
28891WAT     H186915   4.673   2.490   3.820
28891WAT     H286916   4.788   2.576   3.742
28892WAT      O86917   7.802   9.158   7.077
28892WAT     H186918   7.820   9.188   6.983
28892WAT     H286919   7.742   9.225   7.122
28893WAT      O86920   5.282   3.598   6.328
28893WAT     H186921   5.310   3.666   6.260
28893WAT     H286922   5.319   3.509   6.303
28894WAT      O86923   3.663   3.738   5.290
28894WAT     H186924   3.588   3.791   5.248
28894WAT     H286925   3.746   3.748   5.235
28895WAT      O86926   6.982   5.972   5.709
28895WAT     H186927   6.964   6.036   5.635
28895WAT     H286928   6.998   6.022   5.794
28896WAT      O86929   5.017   6.855   3.050
28896WAT     H186930   5.002   6.769   3.002
28896WAT     H286931   4.934   6.910   3.047
28897WAT      O86932   7.605   8.377   0.476
28897WAT     H186933   7.630   8.282   0.456
28897WAT     H286934   7.537   8.379   0.549
28898WAT      O86935   8.621   8.564   3.506
28898WAT     H186936   8.603   8.466   3.516
28898WAT     H286937   8.593   8.612   3.589
28899WAT      O86938   4.296   9.153   5.487
28899WAT     H186939   4.201   9.125   5.505
28899WAT     H286940   4.347   9.075   5.450
28900WAT      O86941   3.741   3.759   7.176
28900WAT     H186942   3.739   3.674   7.122
28900WAT     H286943   3.815   3.817   7.141
28901WAT      O86944   2.818   6.069   0.895
28901WAT     H186945   2.822   6.159   0.853
28901WAT     H286946   2.848   6.076   0.991
28902WAT      O86947   7.418   7.882   0.775
28902WAT     H186948   7.325   7.848   0.788
28902WAT     H286949   7.422   7.978   0.804
28903WAT      O86950   2.261   1.680   6.065
28903WAT     H186951   2.302   1.757   6.016
28903WAT     H286952   2.207   1.714   6.142
28904WAT      O86953   1.490   2.972   4.854
28904WAT     H186954   1.552   2.934   4.923
28904WAT     H286955   1.493   3.072   4.857
28905WAT      O86956   3.268   2.641   0.364
28905WAT     H186957   3.227   2.603   0.281
28905WAT     H286958   3.253   2.579   0.441
28906WAT      O86959   6.418   4.834   8.623
28906WAT     H186960   6.455   4.927   8.614
28906WAT     H286961   6.493   4.768   8.624
28907WAT      O86962   6.716   9.593   3.238
28907WAT     H186963   6.766   9.564   3.320
28907WAT     H286964   6.767   9.666   3.192
28908WAT      O86965   9.299   1.826   0.640
28908WAT     H186966   9.263   1.870   0.723
28908WAT     H286967   9.225   1.811   0.575
28909WAT      O86968   5.160   1.376   5.448
28909WAT     H186969   5.094   1.307   5.478
28909WAT     H286970   5.130   1.413   5.360
28910WAT      O86971   1.655   6.607   8.265
28910WAT     H186972   1.697   6.592   8.176
28910WAT     H286973   1.664   6.524   8.321
28911WAT      O86974   3.928   4.190   3.524
28911WAT     H186975   3.878   4.107   3.498
28911WAT     H286976   3.934   4.195   3.624
28912WAT      O86977   4.727   7.602   7.105
28912WAT     H186978   4.702   7.616   7.201
28912WAT     H286979   4.696   7.512   7.075
28913WAT      O86980   8.202   3.855   0.376
28913WAT     H186981   8.257   3.889   0.452
28913WAT     H286982   8.118   3.909   0.368
28914WAT      O86983   6.925   9.226   9.280
28914WAT     H186984   6.936   9.286   9.200
28914WAT     H286985   6.856   9.157   9.261
28915WAT      O86986   0.831   6.419   9.130
28915WAT     H186987   0.896   6.468   9.072
28915WAT     H286988   0.772   6.361   9.072
28916WAT      O86989   0.242   5.225   9.505
28916WAT     H186990   0.331   5.253   9.540
28916WAT     H286991   0.177   5.301   9.515
28917WAT      O86992   2.848   8.576   1.884
28917WAT     H186993   2.900   8.525   1.952
28917WAT     H286994   2.785   8.515   1.837
28918WAT      O86995   5.923   1.849   8.830
28918WAT     H186996   5.993   1.866   8.900
28918WAT     H286997   5.944   1.905   8.749
28919WAT      O86998   0.644   4.271   1.138
28919WAT     H186999   0.560   4.234   1.098
28919WAT     H287000   0.625   4.364   1.172
28920WAT      O87001   6.353   6.443   4.666
28920WAT     H187002   6.405   6.486   4.739
28920WAT     H287003   6.308   6.360   4.701
28921WAT      O87004   2.072   8.911   7.910
28921WAT     H187005   2.039   8.904   8.004
28921WAT     H287006   2.045   9.000   7.872
28922WAT      O87007   8.766   9.405   0.894
28922WAT     H187008   8.836   9.393   0.965
28922WAT     H287009   8.676   9.388   0.934
28923WAT      O87010   0.794   5.264   1.743
28923WAT     H187011   0.755   5.274   1.651
28923WAT     H287012   0.880   5.214   1.737
28924WAT      O87013   7.466   4.078   0.950
28924WAT     H187014   7.425   4.037   1.031
28924WAT     H287015   7.533   4.147   0.977
28925WAT      O87016   3.584   3.823   4.751
28925WAT     H187017   3.546   3.743   4.798
28925WAT     H287018   3.569   3.904   4.806
28926WAT      O87019   0.761   0.609   0.321
28926WAT     H187020   0.813   0.523   0.324
28926WAT     H287021   0.724   0.621   0.229
28927WAT      O87022   1.568   3.758   2.510
28927WAT     H187023   1.555   3.668   2.551
28927WAT     H287024   1.565   3.751   2.411
28928WAT      O87025   6.355   3.696   3.904
28928WAT     H187026   6.343   3.740   3.993
28928WAT     H287027   6.276   3.636   3.887
28929WAT      O87028   3.040   0.098   4.721
28929WAT     H187029   2.996   0.174   4.672
28929WAT     H287030   3.036   0.115   4.820
28930WAT      O87031   2.561   2.113   0.987
28930WAT     H187032   2.626   2.186   1.006
28930WAT     H287033   2.478   2.127   1.041
28931WAT      O87034   0.252   4.372   8.788
28931WAT     H187035   0.258   4.410   8.695
28931WAT     H287036   0.322   4.414   8.846
28932WAT      O87037   1.477   8.540   4.223
28932WAT     H187038   1.455   8.556   4.127
28932WAT     H287039   1.466   8.443   4.244
28933WAT      O87040   6.477   2.880   2.274
28933WAT     H187041   6.424   2.817   2.330
28933WAT     H287042   6.567   2.894   2.314
28934WAT      O87043   0.345   8.661   4.962
28934WAT     H187044   0.250   8.644   4.935
28934WAT     H287045   0.407   8.614   4.898
28935WAT      O87046   6.108   2.807   4.678
28935WAT     H187047   6.119   2.902   4.708
28935WAT     H287048   6.012   2.781   4.688
28936WAT      O87049   4.007   3.498   5.165
28936WAT     H187050   4.002   3.582   5.219
28936WAT     H287051   4.022   3.521   5.069
28937WAT      O87052   5.116   4.327   4.322
28937WAT     H187053   5.068   4.264   4.383
28937WAT     H287054   5.073   4.417   4.326
28938WAT      O87055   0.787   8.304   6.330
28938WAT     H187056   0.853   8.317   6.404
28938WAT     H287057   0.810   8.221   6.279
28939WAT      O87058   1.109   0.068   7.699
28939WAT     H187059   1.013   0.080   7.722
28939WAT     H287060   1.139   0.141   7.637
28940WAT      O87061   5.912   7.126   1.385
28940WAT     H187062   5.978   7.171   1.445
28940WAT     H287063   5.958   7.092   1.303
28941WAT      O87064   8.070   5.383   2.792
28941WAT     H187065   8.078   5.352   2.697
28941WAT     H287066   8.077   5.482   2.796
28942WAT      O87067   6.331   8.290   2.948
28942WAT     H187068   6.296   8.318   2.859
28942WAT     H287069   6.291   8.348   3.019
28943WAT      O87070   5.157   7.118   7.595
28943WAT     H187071   5.153   7.169   7.681
28943WAT     H287072   5.140   7.179   7.518
28944WAT      O87073   4.242   8.958   7.540
28944WAT     H187074   4.294   8.966   7.455
28944WAT     H287075   4.210   8.864   7.551
28945WAT      O87076   3.614   9.564   9.051
28945WAT     H187077   3.534   9.599   9.001
28945WAT     H287078   3.587   9.486   9.106
28946WAT      O87079   5.680   6.932   0.783
28946WAT     H187080   5.594   6.974   0.810
28946WAT     H287081   5.706   6.966   0.692
28947WAT      O87082   8.484   2.668   2.024
28947WAT     H187083   8.481   2.674   2.123
28947WAT     H287084   8.529   2.583   1.997
28948WAT      O87085   9.686   7.536   3.557
28948WAT     H187086   9.713   7.455   3.608
28948WAT     H287087   9.735   7.616   3.592
28949WAT      O87088   9.632   4.662   8.755
28949WAT     H187089   9.663   4.567   8.744
28949WAT     H287090   9.533   4.663   8.764
28950WAT      O87091   1.400   8.134   6.990
28950WAT     H187092   1.372   8.043   7.020
28950WAT     H287093   1.333   8.170   6.925
28951WAT      O87094   3.816   3.127   9.351
28951WAT     H187095   3.813   3.181   9.435
28951WAT     H287096   3.764   3.173   9.279
28952WAT      O87097   6.082   7.724   2.192
28952WAT     H187098   6.142   7.703   2.269
28952WAT     H287099   6.123   7.691   2.107
28953WAT      O87100   9.797   4.706   7.183
28953WAT     H187101   9.807   4.659   7.095
28953WAT     H287102   9.884   4.707   7.231
28954WAT      O87103   8.458   8.263   5.585
28954WAT     H187104   8.546   8.215   5.583
28954WAT     H287105   8.470   8.356   5.550
28955WAT      O87106   7.865   8.433   8.315
28955WAT     H187107   7.789   8.399   8.260
28955WAT     H287108   7.893   8.523   8.283
28956WAT      O87109   0.180   7.970   2.959
28956WAT     H187110   0.138   7.882   2.939
28956WAT     H287111   0.278   7.959   2.973
28957WAT      O87112   1.607   4.346   8.506
28957WAT     H187113   1.582   4.249   8.514
28957WAT     H287114   1.670   4.370   8.579
28958WAT      O87115   9.152   6.406   4.061
28958WAT     H187116   9.223   6.344   4.029
28958WAT     H287117   9.155   6.411   4.161
28959WAT      O87118   9.687   8.651   0.372
28959WAT     H187119   9.661   8.698   0.456
28959WAT     H287120   9.646   8.698   0.294
28960WAT      O87121   3.151   3.350   9.525
28960WAT     H187122   3.100   3.423   9.572
28960WAT     H287123   3.115   3.339   9.432
28961WAT      O87124   4.351   4.487   4.237
28961WAT     H187125   4.394   4.478   4.326
28961WAT     H287126   4.422   4.497   4.167
28962WAT      O87127   5.149   8.487   1.475
28962WAT     H187128   5.242   8.511   1.446
28962WAT     H287129   5.103   8.569   1.509
28963WAT      O87130   5.769   0.654   0.003
28963WAT     H187131   5.711   0.589   0.052
28963WAT     H287132   5.859   0.614  -0.012
28964WAT      O87133   1.896   7.440   6.233
28964WAT     H187134   1.827   7.493   6.184
28964WAT     H287135   1.983   7.490   6.233
28965WAT      O87136   5.921   9.645   5.117
28965WAT     H187137   5.930   9.725   5.058
28965WAT     H287138   6.010   9.599   5.124
28966WAT      O87139   0.783   1.585   6.609
28966WAT     H187140   0.820   1.527   6.537
28966WAT     H287141   0.820   1.678   6.600
28967WAT      O87142   2.702   8.974   0.585
28967WAT     H187143   2.644   8.915   0.641
28967WAT     H287144   2.734   9.051   0.641
28968WAT      O87145   7.716   2.705   3.597
28968WAT     H187146   7.746   2.798   3.618
28968WAT     H287147   7.727   2.648   3.679
28969WAT      O87148   6.804   2.710   4.272
28969WAT     H187149   6.810   2.630   4.332
28969WAT     H287150   6.895   2.729   4.233
28970WAT      O87151   6.182   7.848   1.768
28970WAT     H187152   6.124   7.893   1.836
28970WAT     H287153   6.235   7.917   1.718
28971WAT      O87154   6.635   6.977   1.987
28971WAT     H187155   6.639   6.894   2.043
28971WAT     H287156   6.720   7.028   1.998
28972WAT      O87157   3.971   5.926   7.562
28972WAT     H187158   3.977   6.024   7.585
28972WAT     H287159   4.005   5.913   7.469
28973WAT      O87160   4.105   8.863   4.020
28973WAT     H187161   4.084   8.830   4.113
28973WAT     H287162   4.194   8.908   4.021
28974WAT      O87163   0.219   0.710   9.224
28974WAT     H187164   0.300   0.750   9.268
28974WAT     H287165   0.242   0.682   9.131
28975WAT      O87166   4.111   6.152   7.837
28975WAT     H187167   4.039   6.169   7.771
28975WAT     H287168   4.106   6.219   7.911
28976WAT      O87169   4.787   1.195   0.457
28976WAT     H187170   4.700   1.160   0.490
28976WAT     H287171   4.811   1.278   0.508
28977WAT      O87172   0.098   2.403   7.648
28977WAT     H187173   0.112   2.309   7.677
28977WAT     H287174   0.157   2.424   7.570
28978WAT      O87175   8.736   1.094   8.784
28978WAT     H187176   8.781   1.176   8.818
28978WAT     H287177   8.724   1.028   8.858
28979WAT      O87178   4.573   8.071   4.121
28979WAT     H187179   4.615   8.160   4.136
28979WAT     H287180   4.474   8.082   4.108
28980WAT      O87181   2.968   5.981   7.505
28980WAT     H187182   2.893   5.933   7.461
28980WAT     H287183   2.932   6.054   7.563
28981WAT      O87184   6.619   1.579   7.552
28981WAT     H187185   6.699   1.545   7.601
28981WAT     H287186   6.602   1.674   7.578
28982WAT      O87187   4.347   8.023   0.461
28982WAT     H187188   4.413   7.963   0.506
28982WAT     H287189   4.268   8.037   0.521
28983WAT      O87190   4.800   2.220   3.732
28983WAT     H187191   4.780   2.145   3.670
28983WAT     H287192   4.744   2.211   3.815
28984WAT      O87193   7.917   9.693   7.397
28984WAT     H187194   7.999   9.747   7.380
28984WAT     H287195   7.934   9.597   7.375
28985WAT      O87196   4.744   7.542   6.724
28985WAT     H187197   4.743   7.624   6.668
28985WAT     H287198   4.654   7.499   6.722
28986WAT      O87199   3.523   5.449   2.161
28986WAT     H187200   3.478   5.386   2.224
28986WAT     H287201   3.520   5.412   2.068
28987WAT      O87202   1.818   9.794   6.169
28987WAT     H187203   1.836   9.708   6.217
28987WAT     H287204   1.726   9.790   6.128
28988WAT      O87205   8.127   1.768   0.148
28988WAT     H187206   8.153   1.739   0.056
28988WAT     H287207   8.029   1.759   0.160
28989WAT      O87208   5.455   2.749   9.039
28989WAT     H187209   5.534   2.695   9.009
28989WAT     H287210   5.415   2.707   9.121
28990WAT      O87211   9.785   0.206   2.248
28990WAT     H187212   9.860   0.140   2.237
28990WAT     H287213   9.737   0.215   2.161
28991WAT      O87214   9.031   3.417   1.497
28991WAT     H187215   9.123   3.447   1.472
28991WAT     H287216   9.013   3.439   1.593
28992WAT      O87217   1.965   0.237   3.932
28992WAT     H187218   1.992   0.312   3.993
28992WAT     H287219   2.028   0.160   3.943
28993WAT      O87220   2.267   7.738   4.810
28993WAT     H187221   2.184   7.748   4.755
28993WAT     H287222   2.318   7.658   4.779
28994WAT      O87223   8.311   1.104   2.039
28994WAT     H187224   8.351   1.142   1.956
28994WAT     H287225   8.256   1.175   2.085
28995WAT      O87226   0.282   4.174   3.673
28995WAT     H187227   0.262   4.168   3.771
28995WAT     H287228   0.296   4.083   3.635
28996WAT      O87229   2.220   3.827   3.692
28996WAT     H187230   2.128   3.865   3.683
28996WAT     H287231   2.244   3.820   3.789
28997WAT      O87232   6.435   8.733   7.512
28997WAT     H187233   6.339   8.741   7.488
28997WAT     H287234   6.463   8.637   7.508
28998WAT      O87235   6.761   5.336   7.312
28998WAT     H187236   6.740   5.433   7.305
28998WAT     H287237   6.860   5.323   7.307
28999WAT      O87238   9.407   3.372   0.474
28999WAT     H187239   9.451   3.350   0.388
28999WAT     H287240   9.346   3.450   0.462
29000WAT      O87241   9.059   9.208   2.682
29000WAT     H187242   9.061   9.308   2.691
29000WAT     H287243   8.967   9.179   2.655
29001WAT      O87244   0.524   2.926   5.838
29001WAT     H187245   0.477   3.009   5.807
29001WAT     H287246   0.467   2.879   5.906
29002WAT      O87247   9.285   8.294   2.514
29002WAT     H187248   9.267   8.331   2.605
29002WAT     H287249   9.205   8.307   2.456
29003WAT      O87250   6.711   0.055   8.999
29003WAT     H187251   6.805   0.085   8.984
29003WAT     H287252   6.668   0.115   9.067
29004WAT      O87253   7.521   4.047   6.391
29004WAT     H187254   7.571   4.132   6.374
29004WAT     H287255   7.458   4.030   6.316
29005WAT      O87256   0.840   2.590   8.687
29005WAT     H187257   0.904   2.629   8.753
29005WAT     H287258   0.753   2.639   8.692
29006WAT      O87259   7.758   1.951   3.151
29006WAT     H187260   7.795   1.887   3.219
29006WAT     H287261   7.831   2.013   3.121
29007WAT      O87262   0.502   8.133   9.771
29007WAT     H187263   0.477   8.120   9.867
29007WAT     H287264   0.525   8.044   9.731
29008WAT      O87265   6.043   1.066   4.508
29008WAT     H187266   6.135   1.081   4.543
29008WAT     H287267   5.986   1.146   4.528
29009WAT      O87268   3.526   0.446   6.937
29009WAT     H187269   3.543   0.350   6.915
29009WAT     H287270   3.504   0.455   7.035
29010WAT      O87271   8.819   3.430   3.653
29010WAT     H187272   8.737   3.375   3.636
29010WAT     H287273   8.793   3.526   3.664
29011WAT      O87274   5.594   2.954   6.050
29011WAT     H187275   5.514   3.015   6.044
29011WAT     H287276   5.601   2.916   6.142
29012WAT      O87277   3.048   0.079   4.331
29012WAT     H187278   3.122   0.039   4.386
29012WAT     H287279   3.040   0.176   4.352
29013WAT      O87280   1.762   9.094   0.524
29013WAT     H187281   1.789   9.100   0.620
29013WAT     H287282   1.828   9.145   0.468
29014WAT      O87283   5.996   5.392   4.439
29014WAT     H187284   5.952   5.465   4.387
29014WAT     H287285   5.985   5.305   4.391
29015WAT      O87286   5.807   7.137   0.237
29015WAT     H187287   5.897   7.119   0.278
29015WAT     H287288   5.761   7.210   0.288
29016WAT      O87289   3.203   8.027   9.744
29016WAT     H187290   3.131   8.029   9.813
29016WAT     H287291   3.288   7.994   9.785
29017WAT      O87292   2.367   7.504   1.739
29017WAT     H187293   2.315   7.457   1.810
29017WAT     H287294   2.465   7.489   1.753
29018WAT      O87295   4.979   7.272   1.459
29018WAT     H187296   4.961   7.368   1.480
29018WAT     H287297   4.896   7.230   1.421
29019WAT      O87298   7.091   3.379   3.772
29019WAT     H187299   7.004   3.400   3.817
29019WAT     H287300   7.166   3.386   3.839
29020WAT      O87301   9.768   9.020   1.086
29020WAT     H187302   9.689   8.961   1.107
29020WAT     H287303   9.834   8.968   1.033
29021WAT      O87304   6.819   9.357   1.182
29021WAT     H187305   6.777   9.389   1.097
29021WAT     H287306   6.915   9.333   1.165
29022WAT      O87307   3.817   8.187   8.234
29022WAT     H187308   3.875   8.234   8.167
29022WAT     H287309   3.724   8.181   8.200
29023WAT      O87310   3.413   2.753   7.362
29023WAT     H187311   3.455   2.843   7.350
29023WAT     H287312   3.321   2.764   7.401
29024WAT      O87313   8.309   3.656   2.934
29024WAT     H187314   8.401   3.692   2.915
29024WAT     H287315   8.290   3.666   3.032
29025WAT      O87316   9.782   3.590   2.867
29025WAT     H187317   9.721   3.647   2.922
29025WAT     H287318   9.779   3.621   2.772
29026WAT      O87319   0.707   9.226   7.044
29026WAT     H187320   0.754   9.147   7.082
29026WAT     H287321   0.612   9.202   7.023
29027WAT      O87322   4.798   7.617   7.956
29027WAT     H187323   4.802   7.686   7.883
29027WAT     H287324   4.708   7.574   7.957
29028WAT      O87325   5.638   6.670   5.919
29028WAT     H187326   5.607   6.657   5.825
29028WAT     H287327   5.569   6.633   5.982
29029WAT      O87328   2.170   0.022   9.482
29029WAT     H187329   2.142  -0.012   9.392
29029WAT     H287330   2.098   0.002   9.548
29030WAT      O87331   0.716   6.560   0.197
29030WAT     H187332   0.746   6.521   0.109
29030WAT     H287333   0.796   6.578   0.254
29031WAT      O87334   3.780   6.152   5.323
29031WAT     H187335   3.715   6.205   5.378
29031WAT     H287336   3.764   6.054   5.338
29032WAT      O87337   3.461   5.682   6.777
29032WAT     H187338   3.439   5.631   6.860
29032WAT     H287339   3.528   5.753   6.798
29033WAT      O87340   3.937   3.576   0.443
29033WAT     H187341   4.030   3.585   0.479
29033WAT     H287342   3.883   3.520   0.505
29034WAT      O87343   3.913   3.264   8.375
29034WAT     H187344   3.934   3.166   8.368
29034WAT     H287345   3.853   3.279   8.453
29035WAT      O87346   8.997   0.870   7.554
29035WAT     H187347   9.004   0.815   7.471
29035WAT     H287348   8.979   0.965   7.529
29036WAT      O87349   8.586   1.530   9.672
29036WAT     H187350   8.590   1.625   9.703
29036WAT     H287351   8.574   1.528   9.573
29037WAT      O87352   7.506   5.133   5.020
29037WAT     H187353   7.507   5.121   5.119
29037WAT     H287354   7.491   5.045   4.975
29038WAT      O87355   8.474   5.847   6.047
29038WAT     H187356   8.536   5.919   6.016
29038WAT     H287357   8.383   5.885   6.060
29039WAT      O87358   6.658   0.852   4.893
29039WAT     H187359   6.567   0.829   4.860
29039WAT     H287360   6.723   0.780   4.868
29040WAT      O87361   4.636   4.478   6.939
29040WAT     H187362   4.684   4.563   6.963
29040WAT     H287363   4.578   4.493   6.859
29041WAT      O87364   9.809   8.278   8.094
29041WAT     H187365   9.810   8.370   8.134
29041WAT     H287366   9.872   8.274   8.016
29042WAT      O87367   9.373   6.371   1.969
29042WAT     H187368   9.409   6.306   1.902
29042WAT     H287369   9.447   6.433   1.997
29043WAT      O87370   8.067   6.419   5.567
29043WAT     H187371   8.097   6.484   5.496
29043WAT     H287372   8.001   6.464   5.627
29044WAT      O87373   1.215   8.568   1.945
29044WAT     H187374   1.133   8.512   1.950
29044WAT     H287375   1.285   8.520   1.891
29045WAT      O87376   9.197   6.723   5.717
29045WAT     H187377   9.174   6.626   5.727
29045WAT     H287378   9.269   6.746   5.783
29046WAT      O87379   0.227   7.435   5.080
29046WAT     H187380   0.276   7.364   5.129
29046WAT     H287381   0.253   7.433   4.983
29047WAT      O87382   1.011   5.571   2.866
29047WAT     H187383   1.085   5.599   2.927
29047WAT     H287384   0.933   5.634   2.878
29048WAT      O87385   4.578   3.572   5.709
29048WAT     H187386   4.673   3.542   5.713
29048WAT     H287387   4.573   3.670   5.729
29049WAT      O87388   7.294   4.762   8.213
29049WAT     H187389   7.238   4.843   8.230
29049WAT     H287390   7.388   4.789   8.194
29050WAT      O87391   6.938   8.860   6.353
29050WAT     H187392   6.900   8.936   6.405
29050WAT     H287393   7.034   8.879   6.331
29051WAT      O87394   6.453   6.878   5.830
29051WAT     H187395   6.438   6.897   5.927
29051WAT     H287396   6.370   6.837   5.791
29052WAT      O87397   7.545   4.406   8.688
29052WAT     H187398   7.568   4.490   8.639
29052WAT     H287399   7.472   4.425   8.754
29053WAT      O87400   6.140   4.309   8.761
29053WAT     H187401   6.088   4.366   8.696
29053WAT     H287402   6.099   4.218   8.764
29054WAT      O87403   6.336   1.191   7.904
29054WAT     H187404   6.434   1.207   7.898
29054WAT     H287405   6.295   1.257   7.967
29055WAT      O87406   8.573   1.691   1.048
29055WAT     H187407   8.625   1.617   1.091
29055WAT     H287408   8.622   1.723   0.966
29056WAT      O87409   7.540   8.548   6.958
29056WAT     H187410   7.461   8.574   7.014
29056WAT     H287411   7.512   8.541   6.862
29057WAT      O87412   2.261   0.704   8.984
29057WAT     H187413   2.297   0.750   8.903
29057WAT     H287414   2.161   0.708   8.982
29058WAT      O87415   5.762   2.435   5.796
29058WAT     H187416   5.688   2.484   5.749
29058WAT     H287417   5.773   2.472   5.888
29059WAT      O87418   8.318   2.489   0.442
29059WAT     H187419   8.238   2.532   0.401
29059WAT     H287420   8.335   2.529   0.532
29060WAT      O87421   3.384   4.607   6.478
29060WAT     H187422   3.353   4.537   6.414
29060WAT     H287423   3.455   4.663   6.435
29061WAT      O87424   8.952   9.369   6.918
29061WAT     H187425   8.971   9.449   6.862
29061WAT     H287426   8.943   9.288   6.859
29062WAT      O87427   8.557   7.470   6.161
29062WAT     H187428   8.506   7.399   6.112
29062WAT     H287429   8.493   7.533   6.205
29063WAT      O87430   0.414   9.637   0.198
29063WAT     H187431   0.502   9.605   0.163
29063WAT     H287432   0.350   9.561   0.203
29064WAT      O87433   5.742   4.195   7.967
29064WAT     H187434   5.789   4.139   8.035
29064WAT     H287435   5.707   4.136   7.894
29065WAT      O87436   3.751   9.766   5.452
29065WAT     H187437   3.729   9.819   5.534
29065WAT     H287438   3.810   9.689   5.478
29066WAT      O87439   3.387   5.170   3.952
29066WAT     H187440   3.346   5.080   3.972
29066WAT     H287441   3.330   5.217   3.885
29067WAT      O87442   1.847   5.158   1.097
29067WAT     H187443   1.772   5.117   1.045
29067WAT     H287444   1.811   5.228   1.159
29068WAT      O87445   1.210   0.509   4.076
29068WAT     H187446   1.251   0.452   4.148
29068WAT     H287447   1.111   0.512   4.089
29069WAT      O87448   2.398   5.305   4.436
29069WAT     H187449   2.345   5.255   4.367
29069WAT     H287450   2.487   5.262   4.446
29070WAT      O87451   0.823   0.019   2.928
29070WAT     H187452   0.756   0.002   3.000
29070WAT     H287453   0.905  -0.035   2.945
29071WAT      O87454   8.555   1.458   5.603
29071WAT     H187455   8.466   1.496   5.578
29071WAT     H287456   8.579   1.384   5.540
29072WAT      O87457   7.337   0.930   2.458
29072WAT     H187458   7.297   1.021   2.445
29072WAT     H287459   7.302   0.868   2.389
29073WAT      O87460   9.008   7.979   2.454
29073WAT     H187461   8.930   8.012   2.506
29073WAT     H287462   9.093   8.012   2.496
29074WAT      O87463   9.522   3.115   6.511
29074WAT     H187464   9.515   3.030   6.460
29074WAT     H287465   9.538   3.095   6.608
29075WAT      O87466   3.243   2.862   9.850
29075WAT     H187467   3.285   2.856   9.940
29075WAT     H287468   3.179   2.787   9.837
29076WAT      O87469   3.723   4.322   3.034
29076WAT     H187470   3.774   4.392   2.983
29076WAT     H287471   3.753   4.231   3.005
29077WAT      O87472   2.206   1.383   8.241
29077WAT     H187473   2.208   1.407   8.338
29077WAT     H287474   2.294   1.345   8.214
29078WAT      O87475   4.920   1.897   6.153
29078WAT     H187476   4.881   1.847   6.075
29078WAT     H287477   4.869   1.981   6.168
29079WAT      O87478   0.724   9.248   7.446
29079WAT     H187479   0.642   9.197   7.418
29079WAT     H287480   0.718   9.342   7.412
29080WAT      O87481   3.064   4.059   5.117
29080WAT     H187482   3.158   4.028   5.101
29080WAT     H287483   3.027   4.098   5.033
29081WAT      O87484   4.461   9.760   5.987
29081WAT     H187485   4.375   9.743   6.035
29081WAT     H287486   4.519   9.818   6.044
29082WAT      O87487   7.644   4.873   6.796
29082WAT     H187488   7.679   4.890   6.888
29082WAT     H287489   7.710   4.819   6.745
29083WAT      O87490   0.435   4.619   7.375
29083WAT     H187491   0.381   4.618   7.460
29083WAT     H287492   0.532   4.627   7.397
29084WAT      O87493   3.461   2.143   1.414
29084WAT     H187494   3.521   2.142   1.334
29084WAT     H287495   3.412   2.056   1.420
29085WAT      O87496   1.974   8.165   4.532
29085WAT     H187497   2.062   8.125   4.557
29085WAT     H287498   1.944   8.127   4.444
29086WAT      O87499   7.737   6.836   5.900
29086WAT     H187500   7.744   6.737   5.909
29086WAT     H287501   7.643   6.865   5.918
29087WAT      O87502   6.211   6.611   4.834
29087WAT     H187503   6.281   6.581   4.769
29087WAT     H287504   6.144   6.537   4.848
29088WAT      O87505   0.492   3.258   6.151
29088WAT     H187506   0.551   3.321   6.100
29088WAT     H287507   0.506   3.271   6.249
29089WAT      O87508   9.363   3.523   3.146
29089WAT     H187509   9.463   3.526   3.142
29089WAT     H287510   9.332   3.429   3.127
29090WAT      O87511   1.562   2.300   5.498
29090WAT     H187512   1.627   2.231   5.528
29090WAT     H287513   1.607   2.364   5.436
29091WAT      O87514   6.741   2.902   8.633
29091WAT     H187515   6.663   2.947   8.589
29091WAT     H287516   6.717   2.808   8.657
29092WAT      O87517   0.411   2.573   6.140
29092WAT     H187518   0.428   2.624   6.225
29092WAT     H287519   0.400   2.476   6.161
29093WAT      O87520   1.205   5.204   3.168
29093WAT     H187521   1.109   5.192   3.141
29093WAT     H287522   1.246   5.114   3.184
29094WAT      O87523   1.127   7.366   1.529
29094WAT     H187524   1.163   7.369   1.436
29094WAT     H287525   1.121   7.458   1.566
29095WAT      O87526   7.952   2.311   2.196
29095WAT     H187527   8.001   2.247   2.255
29095WAT     H287528   7.968   2.287   2.100
29096WAT      O87529   2.050   8.850   6.558
29096WAT     H187530   2.128   8.802   6.597
29096WAT     H287531   1.967   8.826   6.608
29097WAT      O87532   1.836   6.314   8.838
29097WAT     H187533   1.823   6.406   8.875
29097WAT     H287534   1.914   6.314   8.776
29098WAT      O87535   8.204   9.388   1.091
29098WAT     H187536   8.279   9.375   1.155
29098WAT     H287537   8.144   9.461   1.124
29099WAT      O87538   0.261   8.377   0.789
29099WAT     H187539   0.234   8.315   0.715
29099WAT     H287540   0.309   8.325   0.860
29100WAT      O87541   4.986   0.289   0.895
29100WAT     H187542   4.992   0.196   0.929
29100WAT     H287543   5.061   0.306   0.830
29101WAT      O87544   7.967   3.038   3.152
29101WAT     H187545   8.044   3.004   3.097
29101WAT     H287546   7.985   3.021   3.249
29102WAT      O87547   6.926   1.120   9.352
29102WAT     H187548   7.012   1.075   9.332
29102WAT     H287549   6.887   1.083   9.436
29103WAT      O87550   9.681   5.314   1.943
29103WAT     H187551   9.627   5.231   1.953
29103WAT     H287552   9.634   5.390   1.989
29104WAT      O87553   0.490   3.042   2.805
29104WAT     H187554   0.424   3.048   2.879
29104WAT     H287555   0.574   3.089   2.830
29105WAT      O87556   8.219   6.115   5.302
29105WAT     H187557   8.166   6.036   5.332
29105WAT     H287558   8.302   6.083   5.256
29106WAT      O87559   2.708   3.347   0.654
29106WAT     H187560   2.719   3.403   0.572
29106WAT     H287561   2.770   3.269   0.650
29107WAT      O87562   3.435   4.195   2.064
29107WAT     H187563   3.381   4.129   2.011
29107WAT     H287564   3.523   4.209   2.019
29108WAT      O87565   4.180   6.361   8.791
29108WAT     H187566   4.122   6.418   8.849
29108WAT     H287567   4.267   6.407   8.775
29109WAT      O87568   3.752   0.918   3.758
29109WAT     H187569   3.719   0.970   3.837
29109WAT     H287570   3.725   0.822   3.768
29110WAT      O87571   7.376   3.737   7.735
29110WAT     H187572   7.414   3.674   7.667
29110WAT     H287573   7.432   3.819   7.739
29111WAT      O87574   1.705   2.752   3.993
29111WAT     H187575   1.616   2.785   3.961
29111WAT     H287576   1.743   2.689   3.925
29112WAT      O87577   2.218   2.935   7.741
29112WAT     H187578   2.199   2.945   7.643
29112WAT     H287579   2.140   2.969   7.793
29113WAT      O87580   2.469   6.303   6.065
29113WAT     H187581   2.471   6.400   6.090
29113WAT     H287582   2.454   6.295   5.966
29114WAT      O87583   1.312   2.011   6.538
29114WAT     H187584   1.385   1.972   6.482
29114WAT     H287585   1.242   2.050   6.479
29115WAT      O87586   9.434   5.406   3.484
29115WAT     H187587   9.479   5.318   3.502
29115WAT     H287588   9.503   5.478   3.477
29116WAT      O87589   4.994   5.822   4.148
29116WAT     H187590   4.907   5.863   4.176
29116WAT     H287591   5.051   5.806   4.228
29117WAT      O87592   5.776   7.052   0.551
29117WAT     H187593   5.867   7.055   0.511
29117WAT     H287594   5.724   7.134   0.524
29118WAT      O87595   4.331   5.131   2.004
29118WAT     H187596   4.386   5.136   1.921
29118WAT     H287597   4.298   5.222   2.028
29119WAT      O87598   6.450   0.729   1.528
29119WAT     H187599   6.456   0.671   1.610
29119WAT     H287600   6.433   0.672   1.448
29120WAT      O87601   7.282   9.744   1.320
29120WAT     H187602   7.313   9.652   1.295
29120WAT     H287603   7.186   9.741   1.346
29121WAT      O87604   7.788   7.231   5.753
29121WAT     H187605   7.735   7.260   5.674
29121WAT     H287606   7.798   7.132   5.752
29122WAT      O87607   5.027   2.920   5.655
29122WAT     H187608   5.059   2.890   5.565
29122WAT     H287609   5.100   2.907   5.722
29123WAT      O87610   0.407   7.877   8.500
29123WAT     H187611   0.467   7.957   8.507
29123WAT     H287612   0.316   7.899   8.535
29124WAT      O87613   1.494   6.239   0.129
29124WAT     H187614   1.477   6.253   0.227
29124WAT     H287615   1.456   6.151   0.102
29125WAT      O87616   0.210   6.568   9.529
29125WAT     H187617   0.292   6.511   9.523
29125WAT     H287618   0.237   6.661   9.555
29126WAT      O87619   6.748   6.459   2.527
29126WAT     H187620   6.675   6.394   2.508
29126WAT     H287621   6.831   6.432   2.478
29127WAT      O87622   5.698   7.330   0.496
29127WAT     H187623   5.612   7.338   0.447
29127WAT     H287624   5.763   7.398   0.461
29128WAT      O87625   0.235   9.334   8.677
29128WAT     H187626   0.304   9.274   8.718
29128WAT     H287627   0.249   9.427   8.709
29129WAT      O87628   6.113   4.375   1.003
29129WAT     H187629   6.068   4.438   0.940
29129WAT     H287630   6.052   4.299   1.024
29130WAT      O87631   4.085   2.918   0.081
29130WAT     H187632   4.016   2.966   0.026
29130WAT     H287633   4.109   2.832   0.036
29131WAT      O87634   8.626   3.159   3.316
29131WAT     H187635   8.663   3.066   3.321
29131WAT     H287636   8.626   3.190   3.221
29132WAT      O87637   4.520   0.739   2.014
29132WAT     H187638   4.485   0.656   1.972
29132WAT     H287639   4.444   0.792   2.053
29133WAT      O87640   4.494   0.096   6.391
29133WAT     H187641   4.558   0.020   6.380
29133WAT     H287642   4.435   0.102   6.311
29134WAT      O87643   1.071   8.624   3.954
29134WAT     H187644   1.139   8.588   3.889
29134WAT     H287645   1.097   8.597   4.047
29135WAT      O87646   9.671   9.358   9.356
29135WAT     H187647   9.655   9.421   9.281
29135WAT     H287648   9.739   9.397   9.419
29136WAT      O87649   7.614   7.286   5.555
29136WAT     H187650   7.593   7.257   5.462
29136WAT     H287651   7.542   7.347   5.588
29137WAT      O87652   9.285   5.691   6.563
29137WAT     H187653   9.272   5.598   6.598
29137WAT     H287654   9.212   5.750   6.596
29138WAT      O87655   6.845   1.016   9.578
29138WAT     H187656   6.797   1.075   9.644
29138WAT     H287657   6.820   0.921   9.594
29139WAT      O87658   1.360   1.449   6.441
29139WAT     H187659   1.430   1.419   6.377
29139WAT     H287660   1.356   1.549   6.443
29140WAT      O87661   8.932   7.175   8.823
29140WAT     H187662   8.956   7.090   8.870
29140WAT     H287663   8.838   7.169   8.789
29141WAT      O87664   7.636   0.723   1.483
29141WAT     H187665   7.579   0.683   1.411
29141WAT     H287666   7.666   0.651   1.546
29142WAT      O87667   1.193   4.025   0.437
29142WAT     H187668   1.200   4.066   0.346
29142WAT     H287669   1.097   4.006   0.458
29143WAT      O87670   8.790   0.743   5.783
29143WAT     H187671   8.793   0.800   5.701
29143WAT     H287672   8.789   0.801   5.864
29144WAT      O87673   0.557   2.734   1.976
29144WAT     H187674   0.557   2.819   1.924
29144WAT     H287675   0.478   2.678   1.949
29145WAT      O87676   0.970   6.839   4.577
29145WAT     H187677   1.008   6.908   4.639
29145WAT     H287678   0.960   6.878   4.486
29146WAT      O87679   8.095   3.729   6.114
29146WAT     H187680   8.157   3.793   6.069
29146WAT     H287681   8.116   3.724   6.212
29147WAT      O87682   8.667   3.839   4.800
29147WAT     H187683   8.753   3.863   4.844
29147WAT     H287684   8.640   3.912   4.737
29148WAT      O87685   4.074   5.488   5.759
29148WAT     H187686   4.153   5.461   5.813
29148WAT     H287687   4.096   5.569   5.704
29149WAT      O87688   5.321   7.241   5.592
29149WAT     H187689   5.320   7.183   5.511
29149WAT     H287690   5.234   7.290   5.600
29150WAT      O87691   7.988   7.370   4.076
29150WAT     H187692   7.927   7.447   4.092
29150WAT     H287693   8.011   7.366   3.979
29151WAT      O87694   4.406   1.013   4.343
29151WAT     H187695   4.339   1.025   4.269
29151WAT     H287696   4.421   1.100   4.389
29152WAT      O87697   8.157   1.973   8.205
29152WAT     H187698   8.062   1.959   8.175
29152WAT     H287699   8.188   1.894   8.257
29153WAT      O87700   1.624   2.229   8.672
29153WAT     H187701   1.704   2.187   8.714
29153WAT     H287702   1.541   2.199   8.721
29154WAT      O87703   1.306   8.118   3.511
29154WAT     H187704   1.305   8.218   3.520
29154WAT     H287705   1.338   8.093   3.419
29155WAT      O87706   0.545   2.433   9.756
29155WAT     H187707   0.557   2.355   9.694
29155WAT     H287708   0.609   2.424   9.833
29156WAT      O87709   9.543   8.075   7.000
29156WAT     H187710   9.505   7.986   7.026
29156WAT     H287711   9.574   8.123   7.082
29157WAT      O87712   7.907   9.525   8.747
29157WAT     H187713   7.930   9.616   8.781
29157WAT     H287714   7.926   9.457   8.818
29158WAT      O87715   3.724   0.233   4.010
29158WAT     H187716   3.655   0.176   3.966
29158WAT     H287717   3.813   0.189   4.002
29159WAT      O87718   8.161   9.179   5.039
29159WAT     H187719   8.186   9.269   5.003
29159WAT     H287720   8.132   9.120   4.963
29160WAT      O87721   5.147   7.298   2.822
29160WAT     H187722   5.179   7.299   2.727
29160WAT     H287723   5.047   7.293   2.823
29161WAT      O87724   9.838   6.552   9.061
29161WAT     H187725   9.904   6.612   9.106
29161WAT     H287726   9.784   6.604   8.995
29162WAT      O87727   9.064   1.356   6.549
29162WAT     H187728   9.161   1.360   6.527
29162WAT     H287729   9.010   1.374   6.467
29163WAT      O87730   4.979   4.572   7.089
29163WAT     H187731   5.060   4.626   7.109
29163WAT     H287732   4.913   4.628   7.039
29164WAT      O87733   7.031   9.800   6.008
29164WAT     H187734   7.125   9.833   6.002
29164WAT     H287735   7.027   9.721   6.070
29165WAT      O87736   6.942   8.108   8.099
29165WAT     H187737   7.018   8.171   8.086
29165WAT     H287738   6.912   8.072   8.011
29166WAT      O87739   3.715   7.511   7.837
29166WAT     H187740   3.756   7.500   7.747
29166WAT     H287741   3.784   7.495   7.908
29167WAT      O87742   3.212   2.991   9.085
29167WAT     H187743   3.223   2.972   8.988
29167WAT     H287744   3.300   3.017   9.125
29168WAT      O87745   0.395   5.166   5.561
29168WAT     H187746   0.483   5.120   5.548
29168WAT     H287747   0.403   5.234   5.634
29169WAT      O87748   8.941   2.585   7.971
29169WAT     H187749   8.847   2.608   7.945
29169WAT     H287750   8.947   2.488   7.993
29170WAT      O87751   2.351   4.599   7.778
29170WAT     H187752   2.421   4.618   7.846
29170WAT     H287753   2.376   4.516   7.727
29171WAT      O87754   3.488   5.803   7.618
29171WAT     H187755   3.587   5.798   7.633
29171WAT     H287756   3.457   5.898   7.627
29172WAT      O87757   2.520   5.368   8.257
29172WAT     H187758   2.596   5.418   8.298
29172WAT     H287759   2.435   5.420   8.271
29173WAT      O87760   0.196   4.741   5.044
29173WAT     H187761   0.204   4.771   5.140
29173WAT     H287762   0.218   4.644   5.038
29174WAT      O87763   8.533   6.110   5.587
29174WAT     H187764   8.529   6.024   5.536
29174WAT     H287765   8.451   6.164   5.566
29175WAT      O87766   1.589   1.196   4.339
29175WAT     H187767   1.554   1.215   4.247
29175WAT     H287768   1.514   1.168   4.399
29176WAT      O87769   0.387   9.036   3.919
29176WAT     H187770   0.485   9.023   3.935
29176WAT     H287771   0.374   9.102   3.845
29177WAT      O87772   7.539   6.158   0.300
29177WAT     H187773   7.522   6.221   0.375
29177WAT     H287774   7.544   6.208   0.214
29178WAT      O87775   5.164   2.835   7.383
29178WAT     H187776   5.066   2.841   7.397
29178WAT     H287777   5.207   2.921   7.409
29179WAT      O87778   7.072   4.005   7.385
29179WAT     H187779   7.091   3.913   7.350
29179WAT     H287780   6.981   4.035   7.353
29180WAT      O87781   0.305   2.274   2.882
29180WAT     H187782   0.221   2.325   2.901
29180WAT     H287783   0.316   2.201   2.950
29181WAT      O87784   1.324   4.506   3.465
29181WAT     H187785   1.362   4.505   3.372
29181WAT     H287786   1.374   4.573   3.520
29182WAT      O87787   9.252   4.624   6.514
29182WAT     H187788   9.251   4.554   6.442
29182WAT     H287789   9.158   4.644   6.543
29183WAT      O87790   1.201   6.655   2.825
29183WAT     H187791   1.137   6.661   2.901
29183WAT     H287792   1.202   6.562   2.788
29184WAT      O87793   7.117   3.353   3.502
29184WAT     H187794   7.205   3.397   3.482
29184WAT     H287795   7.104   3.347   3.601
29185WAT      O87796   8.455   1.585   2.283
29185WAT     H187797   8.548   1.602   2.317
29185WAT     H287798   8.455   1.503   2.225
29186WAT      O87799   9.783   5.712   5.261
29186WAT     H187800   9.694   5.737   5.224
29186WAT     H287801   9.835   5.795   5.280
29187WAT      O87802   5.001   5.974   5.221
29187WAT     H187803   5.057   6.043   5.267
29187WAT     H287804   4.909   6.011   5.206
29188WAT      O87805   7.096   7.572   9.324
29188WAT     H187806   7.090   7.627   9.408
29188WAT     H287807   7.028   7.605   9.258
29189WAT      O87808   2.112   0.603   7.847
29189WAT     H187809   2.087   0.642   7.758
29189WAT     H287810   2.199   0.644   7.877
29190WAT      O87811   9.702   5.741   6.038
29190WAT     H187812   9.772   5.670   6.024
29190WAT     H287813   9.684   5.751   6.136
29191WAT      O87814   7.227   7.586   3.664
29191WAT     H187815   7.282   7.655   3.709
29191WAT     H287816   7.140   7.626   3.634
29192WAT      O87817   7.385   1.821   1.365
29192WAT     H187818   7.458   1.839   1.299
29192WAT     H287819   7.301   1.798   1.316
29193WAT      O87820   5.104   5.753   4.691
29193WAT     H187821   5.132   5.813   4.766
29193WAT     H287822   5.035   5.799   4.635
29194WAT      O87823   1.195   1.486   6.062
29194WAT     H187824   1.160   1.506   5.971
29194WAT     H287825   1.208   1.571   6.113
29195WAT      O87826   1.634   5.550   2.708
29195WAT     H187827   1.633   5.521   2.803
29195WAT     H287828   1.543   5.537   2.668
29196WAT      O87829   5.742   8.012   1.455
29196WAT     H187830   5.831   8.018   1.499
29196WAT     H287831   5.671   8.006   1.525
29197WAT      O87832   7.676   8.384   5.630
29197WAT     H187833   7.663   8.319   5.555
29197WAT     H287834   7.641   8.344   5.715
29198WAT      O87835   6.830   1.782   0.671
29198WAT     H187836   6.759   1.851   0.665
29198WAT     H287837   6.919   1.824   0.656
29199WAT      O87838   6.418   4.566   0.953
29199WAT     H187839   6.375   4.609   0.874
29199WAT     H287840   6.415   4.466   0.942
29200WAT      O87841   7.715   0.480   7.197
29200WAT     H187842   7.723   0.404   7.261
29200WAT     H287843   7.797   0.536   7.201
29201WAT      O87844   6.434   8.261   7.209
29201WAT     H187845   6.384   8.193   7.263
29201WAT     H287846   6.528   8.229   7.194
29202WAT      O87847   2.331   9.742   3.235
29202WAT     H187848   2.297   9.673   3.171
29202WAT     H287849   2.430   9.752   3.224
29203WAT      O87850   7.143   1.582   8.122
29203WAT     H187851   7.064   1.573   8.060
29203WAT     H287852   7.112   1.576   8.216
29204WAT      O87853   1.878   4.611   7.060
29204WAT     H187854   1.965   4.612   7.010
29204WAT     H287855   1.824   4.691   7.033
29205WAT      O87856   0.873   8.032   9.533
29205WAT     H187857   0.890   8.130   9.528
29205WAT     H287858   0.883   8.002   9.628
29206WAT      O87859   4.813   8.792   5.898
29206WAT     H187860   4.877   8.715   5.905
29206WAT     H287861   4.752   8.791   5.977
29207WAT      O87862   3.717   5.100   7.481
29207WAT     H187863   3.698   5.006   7.508
29207WAT     H287864   3.668   5.163   7.541
29208WAT      O87865   6.110   0.220   1.187
29208WAT     H187866   6.040   0.169   1.138
29208WAT     H287867   6.066   0.292   1.242
29209WAT      O87868   8.440   5.577   5.912
29209WAT     H187869   8.509   5.559   5.842
29209WAT     H287870   8.479   5.635   5.983
29210WAT      O87871   4.359   3.333   0.936
29210WAT     H187872   4.296   3.349   0.859
29210WAT     H287873   4.437   3.279   0.904
29211WAT      O87874   1.285   3.337   0.002
29211WAT     H187875   1.297   3.421   0.056
29211WAT     H287876   1.296   3.257   0.062
29212WAT      O87877   0.126   4.731   9.071
29212WAT     H187878   0.104   4.664   9.000
29212WAT     H287879   0.198   4.694   9.130
29213WAT      O87880   4.639   1.973   0.844
29213WAT     H187881   4.600   1.998   0.932
29213WAT     H287882   4.594   2.025   0.771
29214WAT      O87883   2.783   2.902   6.568
29214WAT     H187884   2.844   2.843   6.516
29214WAT     H287885   2.769   2.865   6.659
29215WAT      O87886   8.893   5.461   9.600
29215WAT     H187887   8.915   5.554   9.629
29215WAT     H287888   8.949   5.437   9.520
29216WAT      O87889   5.987   2.145   2.978
29216WAT     H187890   6.048   2.067   2.963
29216WAT     H287891   6.041   2.224   3.005
29217WAT      O87892   8.352   1.515   2.011
29217WAT     H187893   8.356   1.566   2.097
29217WAT     H287894   8.445   1.488   1.985
29218WAT      O87895   3.576   9.717   3.910
29218WAT     H187896   3.635   9.669   3.975
29218WAT     H287897   3.501   9.761   3.960
29219WAT      O87898   7.242   1.733   3.741
29219WAT     H187899   7.229   1.635   3.727
29219WAT     H287900   7.338   1.751   3.765
29220WAT      O87901   5.474   5.881   3.921
29220WAT     H187902   5.413   5.824   3.867
29220WAT     H287903   5.420   5.939   3.982
29221WAT      O87904   4.571   6.133   1.378
29221WAT     H187905   4.607   6.083   1.300
29221WAT     H287906   4.554   6.228   1.352
29222WAT      O87907   0.151   4.473   3.205
29222WAT     H187908   0.186   4.413   3.277
29222WAT     H287909   0.114   4.418   3.130
29223WAT      O87910   5.306   2.857   0.826
29223WAT     H187911   5.265   2.829   0.913
29223WAT     H287912   5.233   2.886   0.764
29224WAT      O87913   4.123   2.570   5.311
29224WAT     H187914   4.109   2.477   5.347
29224WAT     H287915   4.213   2.577   5.268
29225WAT      O87916   8.370   4.964   7.318
29225WAT     H187917   8.330   5.052   7.343
29225WAT     H287918   8.309   4.916   7.256
29226WAT      O87919   4.344   0.505   8.508
29226WAT     H187920   4.246   0.522   8.507
29226WAT     H287921   4.369   0.447   8.429
29227WAT      O87922   4.951   6.719   0.720
29227WAT     H187923   4.891   6.701   0.798
29227WAT     H287924   4.917   6.797   0.668
29228WAT      O87925   5.671   6.123   4.557
29228WAT     H187926   5.584   6.168   4.574
29228WAT     H287927   5.716   6.102   4.643
29229WAT      O87928   2.307   7.152   6.357
29229WAT     H187929   2.277   7.217   6.287
29229WAT     H287930   2.403   7.170   6.379
29230WAT      O87931   0.172   6.150   2.061
29230WAT     H187932   0.132   6.111   2.144
29230WAT     H287933   0.210   6.240   2.081
29231WAT      O87934   8.610   0.463   0.180
29231WAT     H187935   8.618   0.433   0.085
29231WAT     H287936   8.543   0.406   0.227
29232WAT      O87937   2.316   5.858   4.116
29232WAT     H187938   2.303   5.866   4.215
29232WAT     H287939   2.239   5.808   4.077
29233WAT      O87940   5.541   5.002   7.023
29233WAT     H187941   5.627   5.047   7.001
29233WAT     H287942   5.469   5.038   6.964
29234WAT      O87943   6.636   5.189   6.166
29234WAT     H187944   6.622   5.144   6.078
29234WAT     H287945   6.630   5.288   6.154
29235WAT      O87946   2.670   0.045   6.948
29235WAT     H187947   2.615  -0.014   7.008
29235WAT     H287948   2.739  -0.011   6.901
29236WAT      O87949   7.313   7.401   5.023
29236WAT     H187950   7.315   7.423   4.925
29236WAT     H287951   7.236   7.340   5.042
29237WAT      O87952   7.191   1.257   4.834
29237WAT     H187953   7.099   1.220   4.820
29237WAT     H287954   7.184   1.351   4.868
29238WAT      O87955   1.653   1.516   1.886
29238WAT     H187956   1.715   1.585   1.922
29238WAT     H287957   1.585   1.560   1.828
29239WAT      O87958   8.598   0.604   6.911
29239WAT     H187959   8.589   0.641   7.003
29239WAT     H287960   8.557   0.668   6.845
29240WAT      O87961   8.044   4.114   9.100
29240WAT     H187962   7.965   4.095   9.042
29240WAT     H287963   8.093   4.194   9.066
29241WAT      O87964   0.601   9.749   4.393
29241WAT     H187965   0.672   9.756   4.463
29241WAT     H287966   0.542   9.829   4.396
29242WAT      O87967   7.751   4.431   1.958
29242WAT     H187968   7.736   4.383   1.872
29242WAT     H287969   7.723   4.526   1.949
29243WAT      O87970   4.580   4.335   7.226
29243WAT     H187971   4.519   4.410   7.251
29243WAT     H287972   4.611   4.347   7.132
29244WAT      O87973   0.529   3.787   1.850
29244WAT     H187974   0.617   3.820   1.815
29244WAT     H287975   0.476   3.864   1.885
29245WAT      O87976   7.609   3.775   3.350
29245WAT     H187977   7.546   3.826   3.409
29245WAT     H287978   7.703   3.787   3.383
29246WAT      O87979   9.654   9.767   9.666
29246WAT     H187980   9.702   9.747   9.580
29246WAT     H287981   9.558   9.739   9.657
29247WAT      O87982   7.028   6.792   4.640
29247WAT     H187983   6.937   6.834   4.646
29247WAT     H287984   7.019   6.697   4.612
29248WAT      O87985   3.905   2.352   0.963
29248WAT     H187986   3.875   2.328   1.055
29248WAT     H287987   3.936   2.270   0.915
29249WAT      O87988   5.887   3.854   3.047
29249WAT     H187989   5.806   3.899   3.010
29249WAT     H287990   5.949   3.923   3.086
29250WAT      O87991   4.642   7.601   1.481
29250WAT     H187992   4.588   7.619   1.563
29250WAT     H287993   4.700   7.681   1.462
29251WAT      O87994   0.315   2.309   1.730
29251WAT     H187995   0.227   2.354   1.743
29251WAT     H287996   0.333   2.247   1.807
29252WAT      O87997   9.332   4.465   8.431
29252WAT     H187998   9.264   4.491   8.499
29252WAT     H287999   9.348   4.542   8.368
29253WAT      O88000   3.654   3.592   2.685
29253WAT     H188001   3.556   3.588   2.706
29253WAT     H288002   3.674   3.533   2.607
29254WAT      O88003   3.763   0.887   1.969
29254WAT     H188004   3.764   0.985   1.989
29254WAT     H288005   3.755   0.835   2.054
29255WAT      O88006   0.600   9.647   1.515
29255WAT     H188007   0.696   9.617   1.516
29255WAT     H288008   0.549   9.598   1.586
29256WAT      O88009   8.858   0.080   7.401
29256WAT     H188010   8.896   0.004   7.348
29256WAT     H288011   8.897   0.166   7.368
29257WAT      O88012   5.732   6.721   4.518
29257WAT     H188013   5.829   6.738   4.534
29257WAT     H288014   5.721   6.637   4.465
29258WAT      O88015   3.277   0.763   0.323
29258WAT     H188016   3.316   0.700   0.391
29258WAT     H288017   3.335   0.763   0.241
29259WAT      O88018   9.872   1.345   1.546
29259WAT     H188019   9.835   1.257   1.517
29259WAT     H288020   9.930   1.332   1.627
29260WAT      O88021   9.714   7.073   9.094
29260WAT     H188022   9.729   7.115   9.004
29260WAT     H288023   9.623   7.096   9.126
29261WAT      O88024   2.176   4.770   4.513
29261WAT     H188025   2.250   4.829   4.480
29261WAT     H288026   2.194   4.744   4.608
29262WAT      O88027   0.286   8.535   4.307
29262WAT     H188028   0.330   8.589   4.235
29262WAT     H288029   0.336   8.450   4.320
29263WAT      O88030   4.211   0.777   4.595
29263WAT     H188031   4.214   0.758   4.497
29263WAT     H288032   4.304   0.779   4.631
29264WAT      O88033   8.158   2.855   2.023
29264WAT     H188034   8.186   2.792   2.096
29264WAT     H288035   8.147   2.947   2.061
29265WAT      O88036   1.611   3.596   7.926
29265WAT     H188037   1.564   3.682   7.906
29265WAT     H288038   1.623   3.588   8.025
29266WAT      O88039   5.025   8.557   6.616
29266WAT     H188040   5.013   8.645   6.570
29266WAT     H288041   4.943   8.501   6.605
29267WAT      O88042   7.561   2.862   3.877
29267WAT     H188043   7.491   2.909   3.931
29267WAT     H288044   7.576   2.770   3.915
29268WAT      O88045   7.254   8.933   8.868
29268WAT     H188046   7.272   8.901   8.960
29268WAT     H288047   7.155   8.941   8.854
29269WAT      O88048   5.108   0.577   2.424
29269WAT     H188049   5.184   0.631   2.387
29269WAT     H288050   5.023   0.603   2.378
29270WAT      O88051   0.703   4.713   3.671
29270WAT     H188052   0.614   4.706   3.625
29270WAT     H288053   0.736   4.807   3.665
29271WAT      O88054   6.716   4.991   1.933
29271WAT     H188055   6.776   5.010   2.010
29271WAT     H288056   6.717   5.068   1.870
29272WAT      O88057   2.413   8.474   5.061
29272WAT     H188058   2.467   8.477   4.977
29272WAT     H288059   2.463   8.522   5.134
29273WAT      O88060   5.597   0.011   9.512
29273WAT     H188061   5.590  -0.065   9.448
29273WAT     H288062   5.653  -0.015   9.590
29274WAT      O88063   3.418   9.335   7.846
29274WAT     H188064   3.434   9.396   7.924
29274WAT     H288065   3.466   9.369   7.766
29275WAT      O88066   7.358   7.237   2.498
29275WAT     H188067   7.357   7.336   2.483
29275WAT     H288068   7.450   7.202   2.484
29276WAT      O88069   2.270   2.119   1.057
29276WAT     H188070   2.178   2.085   1.074
29276WAT     H288071   2.322   2.117   1.142
29277WAT      O88072   4.035   7.124   3.177
29277WAT     H188073   4.126   7.122   3.137
29277WAT     H288074   4.018   7.037   3.224
29278WAT      O88075   9.642   7.231   2.170
29278WAT     H188076   9.573   7.297   2.138
29278WAT     H288077   9.644   7.153   2.107
29279WAT      O88078   1.817   6.510   0.831
29279WAT     H188079   1.891   6.479   0.773
29279WAT     H288080   1.731   6.470   0.801
29280WAT      O88081   9.233   5.322   5.551
29280WAT     H188082   9.203   5.259   5.480
29280WAT     H288083   9.194   5.412   5.534
29281WAT      O88084   7.057   0.117   1.833
29281WAT     H188085   7.116   0.183   1.786
29281WAT     H288086   7.104   0.079   1.912
29282WAT      O88087   6.041   8.168   0.416
29282WAT     H188088   5.999   8.243   0.467
29282WAT     H288089   5.979   8.090   0.412
29283WAT      O88090   5.783   8.948   7.647
29283WAT     H188091   5.712   8.931   7.578
29283WAT     H288092   5.779   9.044   7.675
29284WAT      O88093   5.800   8.145   8.552
29284WAT     H188094   5.779   8.051   8.580
29284WAT     H288095   5.729   8.206   8.585
29285WAT      O88096   3.608   5.027   3.895
29285WAT     H188097   3.529   5.087   3.899
29285WAT     H288098   3.593   4.956   3.827
29286WAT      O88099   2.222   8.236   9.063
29286WAT     H188100   2.279   8.203   9.138
29286WAT     H288101   2.141   8.282   9.099
29287WAT      O88102   1.588   7.670   0.419
29287WAT     H188103   1.507   7.698   0.472
29287WAT     H288104   1.655   7.744   0.420
29288WAT      O88105   9.552   5.753   4.166
29288WAT     H188106   9.573   5.830   4.105
29288WAT     H288107   9.628   5.740   4.230
29289WAT      O88108   5.262   0.806   9.753
29289WAT     H188109   5.236   0.868   9.828
29289WAT     H288110   5.250   0.711   9.782
29290WAT      O88111   7.981   7.252   1.565
29290WAT     H188112   8.014   7.338   1.604
29290WAT     H288113   8.044   7.222   1.494
29291WAT      O88114   6.931   4.974   3.986
29291WAT     H188115   6.973   4.952   4.075
29291WAT     H288116   6.972   5.057   3.950
29292WAT      O88117   3.740   6.964   6.907
29292WAT     H188118   3.771   7.059   6.905
29292WAT     H288119   3.773   6.920   6.991
29293WAT      O88120   1.122   9.249   5.124
29293WAT     H188121   1.075   9.167   5.156
29293WAT     H288122   1.159   9.299   5.202
29294WAT      O88123   4.317   1.818   8.200
29294WAT     H188124   4.352   1.774   8.283
29294WAT     H288125   4.390   1.870   8.156
29295WAT      O88126   6.058   1.217   9.568
29295WAT     H188127   6.156   1.237   9.563
29295WAT     H288128   6.036   1.144   9.502
29296WAT      O88129   2.224   5.161   2.816
29296WAT     H188130   2.293   5.088   2.819
29296WAT     H288131   2.220   5.205   2.906
29297WAT      O88132   7.102   7.418   2.698
29297WAT     H188133   7.076   7.436   2.603
29297WAT     H288134   7.092   7.320   2.717
29298WAT      O88135   8.585   6.727   6.399
29298WAT     H188136   8.603   6.667   6.321
29298WAT     H288137   8.594   6.822   6.370
29299WAT      O88138   9.666   3.924   1.418
29299WAT     H188139   9.637   4.011   1.379
29299WAT     H288140   9.728   3.878   1.354
29300WAT      O88141   1.119   9.539   3.880
29300WAT     H188142   1.042   9.482   3.852
29300WAT     H288143   1.200   9.516   3.827
29301WAT      O88144   5.210   6.989   2.071
29301WAT     H188145   5.183   6.942   2.155
29301WAT     H288146   5.202   7.088   2.084
29302WAT      O88147   9.632   7.413   5.317
29302WAT     H188148   9.594   7.329   5.279
29302WAT     H288149   9.732   7.411   5.309
29303WAT      O88150   5.464   5.931   4.659
29303WAT     H188151   5.398   6.003   4.682
29303WAT     H288152   5.423   5.870   4.591
29304WAT      O88153   2.969   8.911   0.944
29304WAT     H188154   3.022   8.995   0.956
29304WAT     H288155   2.955   8.866   1.032
29305WAT      O88156   4.843   7.597   2.170
29305WAT     H188157   4.927   7.652   2.165
29305WAT     H288158   4.772   7.649   2.218
29306WAT      O88159   7.322   2.678   7.514
29306WAT     H188160   7.326   2.580   7.496
29306WAT     H288161   7.230   2.702   7.545
29307WAT      O88162   8.221   8.232   6.288
29307WAT     H188163   8.283   8.175   6.342
29307WAT     H288164   8.160   8.282   6.349
29308WAT      O88165   8.035   4.868   2.462
29308WAT     H188166   8.104   4.908   2.401
29308WAT     H288167   8.080   4.814   2.533
29309WAT      O88168   8.301   9.250   8.704
29309WAT     H188169   8.393   9.276   8.675
29309WAT     H288170   8.234   9.282   8.637
29310WAT      O88171   3.301   5.722   8.046
29310WAT     H188172   3.257   5.674   8.123
29310WAT     H288173   3.368   5.787   8.082
29311WAT      O88174   6.980   0.545   8.813
29311WAT     H188175   7.076   0.517   8.814
29311WAT     H288176   6.928   0.487   8.875
29312WAT      O88177   9.483   9.244   2.626
29312WAT     H188178   9.482   9.147   2.600
29312WAT     H288179   9.399   9.265   2.676
29313WAT      O88180   8.651   8.223   5.890
29313WAT     H188181   8.560   8.197   5.856
29313WAT     H288182   8.643   8.254   5.985
29314WAT      O88183   6.202   4.406   6.934
29314WAT     H188184   6.267   4.351   6.986
29314WAT     H288185   6.187   4.364   6.844
29315WAT      O88186   6.379   5.112   5.257
29315WAT     H188187   6.477   5.091   5.260
29315WAT     H288188   6.343   5.118   5.350
29316WAT      O88189   7.344   5.946   5.860
29316WAT     H188190   7.284   6.019   5.891
29316WAT     H288191   7.357   5.954   5.761
29317WAT      O88192   9.306   6.430   6.989
29317WAT     H188193   9.380   6.415   6.924
29317WAT     H288194   9.222   6.454   6.940
29318WAT      O88195   7.072   8.349   4.608
29318WAT     H188196   7.158   8.322   4.566
29318WAT     H288197   7.045   8.281   4.676
29319WAT      O88198   9.332   3.443   8.954
29319WAT     H188199   9.245   3.488   8.970
29319WAT     H288200   9.317   3.348   8.926
29320WAT      O88201   1.412   1.315   5.659
29320WAT     H188202   1.433   1.232   5.608
29320WAT     H288203   1.488   1.379   5.653
29321WAT      O88204   8.776   6.958   8.677
29321WAT     H188205   8.740   6.874   8.716
29321WAT     H288206   8.731   7.037   8.719
29322WAT      O88207   4.136   9.543   9.429
29322WAT     H188208   4.213   9.552   9.491
29322WAT     H288209   4.132   9.450   9.393
29323WAT      O88210   3.012   6.794   6.868
29323WAT     H188211   3.085   6.842   6.916
29323WAT     H288212   2.948   6.860   6.829
29324WAT      O88213   4.242   2.104   7.027
29324WAT     H188214   4.174   2.166   7.065
29324WAT     H288215   4.222   2.010   7.054
29325WAT      O88216   0.855   0.215   3.280
29325WAT     H188217   0.761   0.228   3.248
29325WAT     H288218   0.919   0.253   3.213
29326WAT      O88219   4.650   6.543   9.257
29326WAT     H188220   4.551   6.536   9.244
29326WAT     H288221   4.690   6.596   9.182
29327WAT      O88222   6.763   8.034   9.739
29327WAT     H188223   6.800   8.004   9.652
29327WAT     H288224   6.666   8.058   9.728
29328WAT      O88225   0.777   5.211   0.796
29328WAT     H188226   0.873   5.208   0.769
29328WAT     H288227   0.770   5.241   0.891
29329WAT      O88228   0.600   4.223   7.524
29329WAT     H188229   0.528   4.209   7.592
29329WAT     H288230   0.661   4.296   7.555
29330WAT      O88231   0.303   8.569   6.519
29330WAT     H188232   0.358   8.488   6.500
29330WAT     H288233   0.291   8.622   6.435
29331WAT      O88234   6.330   7.646   1.079
29331WAT     H188235   6.320   7.548   1.095
29331WAT     H288236   6.379   7.687   1.156
29332WAT      O88237   3.726   2.350   9.538
29332WAT     H188238   3.793   2.406   9.588
29332WAT     H288239   3.774   2.278   9.488
29333WAT      O88240   8.292   0.154   3.121
29333WAT     H188241   8.282   0.136   3.023
29333WAT     H288242   8.203   0.176   3.160
29334WAT      O88243   7.643   9.525   5.317
29334WAT     H188244   7.671   9.482   5.403
29334WAT     H288245   7.548   9.499   5.296
29335WAT      O88246   8.476   6.264   3.660
29335WAT     H188247   8.453   6.348   3.611
29335WAT     H288248   8.434   6.267   3.751
29336WAT      O88249   2.342   4.030   4.633
29336WAT     H188250   2.324   3.946   4.581
29336WAT     H288251   2.327   4.012   4.730
29337WAT      O88252   0.917   3.139   8.270
29337WAT     H188253   0.893   3.208   8.339
29337WAT     H288254   0.897   3.048   8.306
29338WAT      O88255   0.988   0.048   5.276
29338WAT     H188256   1.029   0.088   5.359
29338WAT     H288257   0.957   0.122   5.216
29339WAT      O88258   0.099   6.184   6.552
29339WAT     H188259   0.141   6.244   6.620
29339WAT     H288260   0.010   6.152   6.585
29340WAT      O88261   2.989   5.740   0.571
29340WAT     H188262   2.984   5.836   0.597
29340WAT     H288263   3.010   5.684   0.651
29341WAT      O88264   7.985   8.211   2.681
29341WAT     H188265   7.980   8.135   2.616
29341WAT     H288266   8.073   8.206   2.730
29342WAT      O88267   4.323   3.900   1.170
29342WAT     H188268   4.408   3.942   1.203
29342WAT     H288269   4.252   3.910   1.239
29343WAT      O88270   7.644   0.864   5.182
29343WAT     H188271   7.636   0.767   5.157
29343WAT     H288272   7.599   0.879   5.270
29344WAT      O88273   0.882   2.005   2.632
29344WAT     H188274   0.903   1.909   2.648
29344WAT     H288275   0.882   2.054   2.720
29345WAT      O88276   1.124   7.641   1.629
29345WAT     H188277   1.032   7.659   1.595
29345WAT     H288278   1.127   7.654   1.728
29346WAT      O88279   1.383   4.347   3.662
29346WAT     H188280   1.299   4.318   3.706
29346WAT     H288281   1.362   4.402   3.581
29347WAT      O88282   8.499   0.896   0.786
29347WAT     H188283   8.567   0.940   0.845
29347WAT     H288284   8.529   0.803   0.765
29348WAT      O88285   9.133   8.185   0.166
29348WAT     H188286   9.210   8.248   0.165
29348WAT     H288287   9.151   8.111   0.231
29349WAT      O88288   6.786   7.413   8.724
29349WAT     H188289   6.820   7.404   8.817
29349WAT     H288290   6.864   7.425   8.662
29350WAT      O88291   4.009   1.336   3.223
29350WAT     H188292   3.953   1.418   3.237
29350WAT     H288293   4.061   1.317   3.305
29351WAT      O88294   1.964   2.566   6.455
29351WAT     H188295   1.991   2.614   6.372
29351WAT     H288296   1.922   2.631   6.518
29352WAT      O88297   2.046   9.384   1.529
29352WAT     H188298   1.995   9.323   1.468
29352WAT     H288299   2.012   9.374   1.622
29353WAT      O88300   5.816   2.778   5.715
29353WAT     H188301   5.743   2.774   5.783
29353WAT     H288302   5.904   2.763   5.759
29354WAT      O88303   6.295   9.253   1.482
29354WAT     H188304   6.198   9.270   1.500
29354WAT     H288305   6.334   9.330   1.432
29355WAT      O88306   8.071   7.524   4.923
29355WAT     H188307   8.130   7.449   4.955
29355WAT     H288308   7.996   7.485   4.869
29356WAT      O88309   5.794   6.602   4.148
29356WAT     H188310   5.735   6.582   4.226
29356WAT     H288311   5.743   6.654   4.080
29357WAT      O88312   5.368   6.444   9.427
29357WAT     H188313   5.296   6.411   9.367
29357WAT     H288314   5.418   6.366   9.465
29358WAT      O88315   6.614   0.963   5.142
29358WAT     H188316   6.628   0.913   5.057
29358WAT     H288317   6.531   1.018   5.135
29359WAT      O88318   4.186   4.940   4.258
29359WAT     H188319   4.111   4.887   4.296
29359WAT     H288320   4.271   4.915   4.305
29360WAT      O88321   3.752   0.408   6.369
29360WAT     H188322   3.673   0.401   6.430
29360WAT     H288323   3.722   0.443   6.280
29361WAT      O88324   8.755   5.941   5.907
29361WAT     H188325   8.727   5.872   5.840
29361WAT     H288326   8.827   5.998   5.868
29362WAT      O88327   4.476   5.522   8.880
29362WAT     H188328   4.541   5.472   8.937
29362WAT     H288329   4.453   5.609   8.923
29363WAT      O88330   0.919   7.070   2.937
29363WAT     H188331   0.917   7.015   2.853
29363WAT     H288332   0.996   7.133   2.933
29364WAT      O88333   3.440   0.967   2.676
29364WAT     H188334   3.535   0.987   2.652
29364WAT     H288335   3.397   0.918   2.600
29365WAT      O88336   5.324   6.099   6.226
29365WAT     H188337   5.280   6.019   6.185
29365WAT     H288338   5.362   6.157   6.154
29366WAT      O88339   0.633   6.709   9.221
29366WAT     H188340   0.668   6.679   9.310
29366WAT     H288341   0.539   6.675   9.210
29367WAT      O88342   7.703   2.978   0.983
29367WAT     H188343   7.710   3.018   1.074
29367WAT     H288344   7.762   2.897   0.978
29368WAT      O88345   5.291   4.459   4.526
29368WAT     H188346   5.251   4.410   4.449
29368WAT     H288347   5.251   4.550   4.533
29369WAT      O88348   1.477   4.296   5.721
29369WAT     H188349   1.499   4.377   5.775
29369WAT     H288350   1.561   4.252   5.690
29370WAT      O88351   0.960   8.057   4.662
29370WAT     H188352   0.870   8.014   4.648
29370WAT     H288353   0.948   8.154   4.685
29371WAT      O88354   4.713   7.351   8.492
29371WAT     H188355   4.666   7.422   8.440
29371WAT     H288356   4.652   7.272   8.504
29372WAT      O88357   3.164   2.904   5.952
29372WAT     H188358   3.115   2.919   6.038
29372WAT     H288359   3.262   2.908   5.968
29373WAT      O88360   8.769   3.597   6.809
29373WAT     H188361   8.718   3.522   6.767
29373WAT     H288362   8.862   3.568   6.830
29374WAT      O88363   1.063   0.943   5.767
29374WAT     H188364   1.131   1.015   5.778
29374WAT     H288365   1.068   0.906   5.674
29375WAT      O88366   4.723   1.996   3.605
29375WAT     H188367   4.793   1.945   3.555
29375WAT     H288368   4.643   2.010   3.546
29376WAT      O88369   5.755   6.313   6.161
29376WAT     H188370   5.800   6.339   6.075
29376WAT     H288371   5.799   6.231   6.198
29377WAT      O88372   5.853   1.436   1.744
29377WAT     H188373   5.897   1.443   1.655
29377WAT     H288374   5.913   1.474   1.815
29378WAT      O88375   4.249   7.715   3.624
29378WAT     H188376   4.206   7.799   3.592
29378WAT     H288377   4.335   7.701   3.576
29379WAT      O88378   4.540   1.811   2.153
29379WAT     H188379   4.589   1.825   2.067
29379WAT     H288380   4.571   1.878   2.220
29380WAT      O88381   8.313   5.333   8.543
29380WAT     H188382   8.227   5.282   8.551
29380WAT     H288383   8.310   5.411   8.605
29381WAT      O88384   2.622   5.968   5.224
29381WAT     H188385   2.572   6.034   5.280
29381WAT     H288386   2.579   5.961   5.134
29382WAT      O88387   3.867   6.390   3.559
29382WAT     H188388   3.914   6.479   3.561
29382WAT     H288389   3.882   6.342   3.645
29383WAT      O88390   3.437   2.295   5.726
29383WAT     H188391   3.375   2.291   5.804
29383WAT     H288392   3.395   2.249   5.648
29384WAT      O88393   0.714   1.780   7.216
29384WAT     H188394   0.773   1.823   7.148
29384WAT     H288395   0.752   1.692   7.243
29385WAT      O88396   7.055   5.218   0.067
29385WAT     H188397   7.117   5.153   0.112
29385WAT     H288398   7.080   5.311   0.094
29386WAT      O88399   0.285   9.465   1.848
29386WAT     H188400   0.256   9.394   1.912
29386WAT     H288401   0.229   9.461   1.765
29387WAT      O88402   3.328   7.864   9.478
29387WAT     H188403   3.411   7.905   9.516
29387WAT     H288404   3.248   7.904   9.521
29388WAT      O88405   0.824   5.159   0.014
29388WAT     H188406   0.841   5.158   0.113
29388WAT     H288407   0.763   5.083  -0.010
29389WAT      O88408   7.943   8.894   6.929
29389WAT     H188409   7.899   8.804   6.932
29389WAT     H288410   8.002   8.904   7.009
29390WAT      O88411   4.193   2.749   8.287
29390WAT     H188412   4.285   2.789   8.294
29390WAT     H288413   4.158   2.730   8.379
29391WAT      O88414   3.003   5.387   3.190
29391WAT     H188415   2.961   5.474   3.163
29391WAT     H288416   3.049   5.346   3.110
29392WAT      O88417   0.668   4.545   5.655
29392WAT     H188418   0.686   4.452   5.687
29392WAT     H288419   0.719   4.610   5.711
29393WAT      O88420   9.751   1.063   4.976
29393WAT     H188421   9.681   1.082   5.045
29393WAT     H288422   9.712   1.077   4.885
29394WAT      O88423   7.346   3.058   1.007
29394WAT     H188424   7.309   3.127   0.945
29394WAT     H288425   7.446   3.063   1.007
29395WAT      O88426   6.473   2.737   4.985
29395WAT     H188427   6.547   2.753   4.919
29395WAT     H288428   6.418   2.660   4.955
29396WAT      O88429   3.712   5.590   1.534
29396WAT     H188430   3.765   5.550   1.459
29396WAT     H288431   3.641   5.525   1.563
29397WAT      O88432   8.811   5.699   7.644
29397WAT     H188433   8.822   5.642   7.563
29397WAT     H288434   8.893   5.755   7.656
29398WAT      O88435   7.678   2.804   3.006
29398WAT     H188436   7.696   2.709   3.031
29398WAT     H288437   7.725   2.825   2.920
29399WAT      O88438   8.557   8.339   5.152
29399WAT     H188439   8.583   8.434   5.166
29399WAT     H288440   8.623   8.294   5.092
29400WAT      O88441   8.821   7.333   2.056
29400WAT     H188442   8.805   7.235   2.072
29400WAT     H288443   8.902   7.344   1.998
29401WAT      O88444   6.762   4.464   2.591
29401WAT     H188445   6.747   4.559   2.617
29401WAT     H288446   6.836   4.425   2.646
29402WAT      O88447   6.322   2.831   9.848
29402WAT     H188448   6.283   2.816   9.757
29402WAT     H288449   6.249   2.855   9.912
29403WAT      O88450   4.895   1.754   7.808
29403WAT     H188451   4.971   1.795   7.758
29403WAT     H288452   4.922   1.662   7.839
29404WAT      O88453   0.719   1.370   0.307
29404WAT     H188454   0.632   1.327   0.332
29404WAT     H288455   0.731   1.455   0.359
29405WAT      O88456   8.732   4.533   9.512
29405WAT     H188457   8.767   4.446   9.547
29405WAT     H288458   8.717   4.526   9.413
29406WAT      O88459   2.802   1.554   6.955
29406WAT     H188460   2.897   1.562   6.927
29406WAT     H288461   2.797   1.529   7.051
29407WAT      O88462   8.109   7.663   0.872
29407WAT     H188463   8.163   7.706   0.944
29407WAT     H288464   8.153   7.577   0.844
29408WAT      O88465   7.709   6.401   3.931
29408WAT     H188466   7.672   6.313   3.962
29408WAT     H288467   7.634   6.459   3.900
29409WAT      O88468   7.899   4.156   0.045
29409WAT     H188469   7.824   4.119   0.099
29409WAT     H288470   7.934   4.239   0.090
29410WAT      O88471   3.947   0.671   3.792
29410WAT     H188472   4.011   0.607   3.751
29410WAT     H288473   3.966   0.764   3.759
29411WAT      O88474   1.403   3.669   5.207
29411WAT     H188475   1.439   3.673   5.300
29411WAT     H288476   1.372   3.760   5.179
29412WAT      O88477   2.296   4.522   0.374
29412WAT     H188478   2.308   4.595   0.306
29412WAT     H288479   2.229   4.551   0.442
29413WAT      O88480   7.633   7.744   0.866
29413WAT     H188481   7.708   7.792   0.821
29413WAT     H288482   7.547   7.792   0.847
29414WAT      O88483   1.836   3.386   9.335
29414WAT     H188484   1.811   3.294   9.365
29414WAT     H288485   1.768   3.451   9.369
29415WAT      O88486   8.558   8.399   6.371
29415WAT     H188487   8.648   8.431   6.401
29415WAT     H288488   8.529   8.323   6.429
29416WAT      O88489   9.272   9.474   0.338
29416WAT     H188490   9.323   9.489   0.423
29416WAT     H288491   9.214   9.553   0.320
29417WAT      O88492   0.566   1.922   9.434
29417WAT     H188493   0.610   1.860   9.498
29417WAT     H288494   0.478   1.883   9.405
29418WAT      O88495   0.251   5.188   2.884
29418WAT     H188496   0.295   5.238   2.959
29418WAT     H288497   0.184   5.246   2.840
29419WAT      O88498   8.709   3.805   6.091
29419WAT     H188499   8.770   3.885   6.092
29419WAT     H288500   8.748   3.733   6.149
29420WAT      O88501   0.319   2.687   4.282
29420WAT     H188502   0.372   2.673   4.198
29420WAT     H288503   0.237   2.630   4.279
29421WAT      O88504   8.733   9.757   3.378
29421WAT     H188505   8.746   9.815   3.298
29421WAT     H288506   8.636   9.757   3.405
29422WAT      O88507   0.369   9.083   8.903
29422WAT     H188508   0.283   9.059   8.858
29422WAT     H288509   0.442   9.024   8.869
29423WAT      O88510   4.132   1.292   3.473
29423WAT     H188511   4.185   1.226   3.419
29423WAT     H288512   4.192   1.367   3.501
29424WAT      O88513   4.073   1.317   0.972
29424WAT     H188514   4.069   1.344   1.068
29424WAT     H288515   4.160   1.271   0.953
29425WAT      O88516   7.754   2.167   0.512
29425WAT     H188517   7.668   2.193   0.556
29425WAT     H288518   7.831   2.188   0.572
29426WAT      O88519   2.832   8.034   6.266
29426WAT     H188520   2.790   8.047   6.355
29426WAT     H288521   2.862   8.123   6.230
29427WAT      O88522   3.749   2.264   5.608
29427WAT     H188523   3.696   2.213   5.541
29427WAT     H288524   3.771   2.355   5.572
29428WAT      O88525   2.861   2.811   2.267
29428WAT     H188526   2.837   2.788   2.361
29428WAT     H288527   2.878   2.910   2.260
29429WAT      O88528   9.416   8.669   0.234
29429WAT     H188529   9.333   8.659   0.179
29429WAT     H288530   9.391   8.676   0.331
29430WAT      O88531   2.406   0.529   7.905
29430WAT     H188532   2.382   0.482   7.821
29430WAT     H288533   2.429   0.625   7.885
29431WAT      O88534   4.834   5.116   6.267
29431WAT     H188535   4.778   5.068   6.334
29431WAT     H288536   4.898   5.052   6.225
29432WAT      O88537   0.541   6.710   6.200
29432WAT     H188538   0.636   6.707   6.167
29432WAT     H288539   0.506   6.803   6.189
29433WAT      O88540   4.320   7.224   4.422
29433WAT     H188541   4.271   7.198   4.505
29433WAT     H288542   4.277   7.181   4.343
29434WAT      O88543   4.559   8.171   7.414
29434WAT     H188544   4.604   8.200   7.330
29434WAT     H288545   4.573   8.073   7.428
29435WAT      O88546   1.048   7.555   1.117
29435WAT     H188547   1.053   7.653   1.138
29435WAT     H288548   1.121   7.506   1.165
29436WAT      O88549   1.550   2.997   1.210
29436WAT     H188550   1.598   2.912   1.231
29436WAT     H288551   1.534   3.003   1.111
29437WAT      O88552   0.859   8.229   8.662
29437WAT     H188553   0.906   8.141   8.664
29437WAT     H288554   0.767   8.219   8.697
29438WAT      O88555   1.270   4.304   8.140
29438WAT     H188556   1.185   4.350   8.165
29438WAT     H288557   1.348   4.359   8.170
29439WAT      O88558   1.933   6.015   1.770
29439WAT     H188559   1.879   5.996   1.852
29439WAT     H288560   1.916   5.945   1.702
29440WAT      O88561   7.843   7.582   4.139
29440WAT     H188562   7.749   7.606   4.164
29440WAT     H288563   7.907   7.622   4.205
29441WAT      O88564   7.099   9.780   0.664
29441WAT     H188565   7.139   9.780   0.756
29441WAT     H288566   7.062   9.871   0.644
29442WAT      O88567   6.060   6.890   5.338
29442WAT     H188568   6.008   6.806   5.320
29442WAT     H288569   6.014   6.942   5.410
29443WAT      O88570   3.309   3.485   7.394
29443WAT     H188571   3.404   3.516   7.381
29443WAT     H288572   3.249   3.564   7.399
29444WAT      O88573   7.514   5.801   4.057
29444WAT     H188574   7.418   5.817   4.032
29444WAT     H288575   7.522   5.802   4.157
29445WAT      O88576   4.077   7.692   4.069
29445WAT     H188577   4.019   7.714   3.990
29445WAT     H288578   4.128   7.608   4.049
29446WAT      O88579   9.373   4.113   8.804
29446WAT     H188580   9.281   4.117   8.765
29446WAT     H288581   9.436   4.167   8.748
29447WAT      O88582   8.361   2.499   5.311
29447WAT     H188583   8.340   2.490   5.214
29447WAT     H288584   8.277   2.517   5.362
29448WAT      O88585   6.076   6.749   7.708
29448WAT     H188586   6.086   6.735   7.806
29448WAT     H288587   5.980   6.766   7.686
29449WAT      O88588   1.262   2.531   6.595
29449WAT     H188589   1.357   2.540   6.625
29449WAT     H288590   1.259   2.515   6.497
29450WAT      O88591   2.097   6.958   2.017
29450WAT     H188592   2.045   6.884   1.976
29450WAT     H288593   2.156   6.922   2.089
29451WAT      O88594   8.665   2.660   6.252
29451WAT     H188595   8.626   2.749   6.273
29451WAT     H288596   8.732   2.669   6.178
29452WAT      O88597   2.276   3.166   0.036
29452WAT     H188598   2.233   3.244   0.082
29452WAT     H288599   2.374   3.165   0.056
29453WAT      O88600   4.908   4.877   2.147
29453WAT     H188601   4.958   4.884   2.061
29453WAT     H288602   4.813   4.852   2.129
29454WAT      O88603   4.897   8.588   7.791
29454WAT     H188604   4.885   8.609   7.694
29454WAT     H288605   4.911   8.490   7.803
29455WAT      O88606   6.668   7.318   9.417
29455WAT     H188607   6.709   7.299   9.507
29455WAT     H288608   6.587   7.375   9.429
29456WAT      O88609   7.144   6.183   2.265
29456WAT     H188610   7.071   6.115   2.261
29456WAT     H288611   7.207   6.168   2.189
29457WAT      O88612   4.362   7.120   7.138
29457WAT     H188613   4.451   7.126   7.182
29457WAT     H288614   4.361   7.044   7.074
29458WAT      O88615   9.289   2.690   3.977
29458WAT     H188616   9.280   2.601   3.933
29458WAT     H288617   9.386   2.717   3.978
29459WAT      O88618   8.623   8.591   9.803
29459WAT     H188619   8.662   8.614   9.714
29459WAT     H288620   8.680   8.631   9.875
29460WAT      O88621   0.836   0.017   1.406
29460WAT     H188622   0.782   0.087   1.453
29460WAT     H288623   0.905  -0.019   1.469
29461WAT      O88624   0.926   5.196   2.257
29461WAT     H188625   0.961   5.221   2.348
29461WAT     H288626   0.875   5.111   2.263
29462WAT      O88627   8.109   6.663   7.328
29462WAT     H188628   8.087   6.578   7.375
29462WAT     H288629   8.201   6.657   7.289
29463WAT      O88630   0.521   0.809   5.613
29463WAT     H188631   0.451   0.784   5.546
29463WAT     H288632   0.541   0.907   5.604
29464WAT      O88633   6.836   7.999   1.131
29464WAT     H188634   6.789   7.941   1.198
29464WAT     H288635   6.778   8.077   1.108
29465WAT      O88636   5.558   4.280   8.776
29465WAT     H188637   5.621   4.259   8.851
29465WAT     H288638   5.547   4.379   8.768
29466WAT      O88639   1.210   6.304   1.475
29466WAT     H188640   1.111   6.309   1.458
29466WAT     H288641   1.244   6.215   1.443
29467WAT      O88642   8.069   7.872   7.524
29467WAT     H188643   8.047   7.905   7.432
29467WAT     H288644   8.071   7.949   7.588
29468WAT      O88645   1.993   4.277   6.907
29468WAT     H188646   1.996   4.377   6.904
29468WAT     H288647   2.027   4.240   6.821
29469WAT      O88648   4.406   1.339   2.691
29469WAT     H188649   4.465   1.396   2.748
29469WAT     H288650   4.442   1.245   2.690
29470WAT      O88651   2.003   6.806   9.246
29470WAT     H188652   1.934   6.749   9.201
29470WAT     H288653   2.084   6.750   9.267
29471WAT      O88654   9.001   7.010   4.477
29471WAT     H188655   8.932   6.940   4.497
29471WAT     H288656   8.967   7.070   4.405
29472WAT      O88657   5.695   3.670   2.570
29472WAT     H188658   5.691   3.766   2.597
29472WAT     H288659   5.734   3.662   2.479
29473WAT      O88660   2.531   4.155   0.149
29473WAT     H188661   2.479   4.097   0.212
29473WAT     H288662   2.539   4.109   0.060
29474WAT      O88663   4.378   3.505   9.301
29474WAT     H188664   4.349   3.441   9.231
29474WAT     H288665   4.298   3.556   9.335
29475WAT      O88666   3.281   8.004   2.629
29475WAT     H188667   3.292   8.028   2.725
29475WAT     H288668   3.335   7.923   2.608
29476WAT      O88669   1.926   4.996   2.007
29476WAT     H188670   1.918   4.904   2.045
29476WAT     H288671   1.924   4.991   1.908
29477WAT      O88672   2.907   3.551   2.098
29477WAT     H188673   2.979   3.486   2.125
29477WAT     H288674   2.845   3.507   2.034
29478WAT      O88675   8.535   4.542   3.795
29478WAT     H188676   8.596   4.618   3.772
29478WAT     H288677   8.447   4.554   3.750
29479WAT      O88678   0.750   2.605   5.608
29479WAT     H188679   0.701   2.631   5.525
29479WAT     H288680   0.686   2.567   5.674
29480WAT      O88681   6.889   9.072   6.520
29480WAT     H188682   6.806   9.021   6.542
29480WAT     H288683   6.884   9.162   6.562
29481WAT      O88684   0.519   0.825   8.965
29481WAT     H188685   0.549   0.816   8.870
29481WAT     H288686   0.419   0.831   8.968
29482WAT      O88687   6.400   1.865   9.718
29482WAT     H188688   6.449   1.891   9.635
29482WAT     H288689   6.462   1.815   9.778
29483WAT      O88690   1.421   6.342   9.601
29483WAT     H188691   1.439   6.374   9.695
29483WAT     H288692   1.508   6.328   9.554
29484WAT      O88693   4.362   4.747   3.816
29484WAT     H188694   4.286   4.684   3.797
29484WAT     H288695   4.328   4.825   3.869
29485WAT      O88696   3.394   3.020   7.995
29485WAT     H188697   3.337   2.950   8.037
29485WAT     H288698   3.478   2.978   7.960
29486WAT      O88699   4.692   9.153   0.595
29486WAT     H188700   4.740   9.215   0.657
29486WAT     H288701   4.605   9.125   0.636
29487WAT      O88702   3.493   1.343   1.354
29487WAT     H188703   3.443   1.269   1.307
29487WAT     H288704   3.579   1.361   1.306
29488WAT      O88705   1.966   4.811   5.860
29488WAT     H188706   1.973   4.910   5.876
29488WAT     H288707   2.058   4.771   5.866
29489WAT      O88708   0.015   2.943   6.915
29489WAT     H188709  -0.076   2.902   6.920
29489WAT     H288710   0.012   3.024   6.857
29490WAT      O88711   8.435   4.304   5.550
29490WAT     H188712   8.487   4.230   5.594
29490WAT     H288713   8.362   4.264   5.495
29491WAT      O88714   9.642   9.280   3.297
29491WAT     H188715   9.596   9.356   3.344
29491WAT     H288716   9.654   9.203   3.359
29492WAT      O88717   4.400   9.439   0.471
29492WAT     H188718   4.372   9.343   0.466
29492WAT     H288719   4.354   9.491   0.399
29493WAT      O88720   3.504   0.514   5.199
29493WAT     H188721   3.410   0.549   5.205
29493WAT     H288722   3.561   0.582   5.154
29494WAT      O88723   3.563   2.035   5.948
29494WAT     H188724   3.527   2.128   5.961
29494WAT     H288725   3.638   2.019   6.012
29495WAT      O88726   0.919   5.198   8.249
29495WAT     H188727   0.949   5.113   8.206
29495WAT     H288728   0.823   5.214   8.227
29496WAT      O88729   7.780   8.838   8.586
29496WAT     H188730   7.692   8.866   8.625
29496WAT     H288731   7.854   8.874   8.642
29497WAT      O88732   2.494   1.324   6.399
29497WAT     H188733   2.548   1.243   6.423
29497WAT     H288734   2.434   1.348   6.475
29498WAT      O88735   4.788   1.584   7.552
29498WAT     H188736   4.785   1.484   7.556
29498WAT     H288737   4.870   1.612   7.501
29499WAT      O88738   9.523   2.595   1.037
29499WAT     H188739   9.494   2.527   0.970
29499WAT     H288740   9.497   2.565   1.129
29500WAT      O88741   2.039   0.035   3.566
29500WAT     H188742   2.130   0.002   3.542
29500WAT     H288743   1.989   0.060   3.483
29501WAT      O88744   2.642   7.529   7.048
29501WAT     H188745   2.630   7.624   7.021
29501WAT     H288746   2.649   7.524   7.148
29502WAT      O88747   9.492   2.485   1.439
29502WAT     H188748   9.590   2.477   1.418
29502WAT     H288749   9.444   2.406   1.402
29503WAT      O88750   1.401   6.779   9.525
29503WAT     H188751   1.394   6.823   9.435
29503WAT     H288752   1.369   6.842   9.596
29504WAT      O88753   6.647   0.929   6.042
29504WAT     H188754   6.744   0.921   6.021
29504WAT     H288755   6.617   0.849   6.093
29505WAT      O88756   3.161   3.767   5.503
29505WAT     H188757   3.251   3.732   5.477
29505WAT     H288758   3.090   3.720   5.450
29506WAT      O88759   7.528   5.825   0.740
29506WAT     H188760   7.513   5.880   0.822
29506WAT     H288761   7.603   5.760   0.755
29507WAT      O88762   6.430   0.577   2.970
29507WAT     H188763   6.356   0.581   3.038
29507WAT     H288764   6.508   0.527   3.008
29508WAT      O88765   1.637   3.548   9.106
29508WAT     H188766   1.690   3.504   9.034
29508WAT     H288767   1.659   3.505   9.194
29509WAT      O88768   4.049   7.400   3.103
29509WAT     H188769   4.027   7.307   3.130
29509WAT     H288770   4.117   7.438   3.165
29510WAT      O88771   0.093   4.253   6.126
29510WAT     H188772   0.169   4.318   6.130
29510WAT     H288773   0.072   4.221   6.219
29511WAT      O88774   7.100   0.477   6.385
29511WAT     H188775   7.131   0.382   6.384
29511WAT     H288776   7.060   0.501   6.297
29512WAT      O88777   4.272   2.451   6.965
29512WAT     H188778   4.260   2.457   7.064
29512WAT     H288779   4.183   2.459   6.920
29513WAT      O88780   5.167   5.226   8.528
29513WAT     H188781   5.245   5.245   8.588
29513WAT     H288782   5.127   5.138   8.552
29514WAT      O88783   9.060   2.949   9.485
29514WAT     H188784   9.110   3.035   9.479
29514WAT     H288785   9.121   2.876   9.516
29515WAT      O88786   1.105   3.164   8.616
29515WAT     H188787   1.154   3.084   8.650
29515WAT     H288788   1.057   3.208   8.692
29516WAT      O88789   1.702   0.374   5.789
29516WAT     H188790   1.626   0.438   5.778
29516WAT     H288791   1.669   0.290   5.832
29517WAT      O88792   3.529   9.079   9.070
29517WAT     H188793   3.562   9.132   8.993
29517WAT     H288794   3.555   8.983   9.059
29518WAT      O88795   3.219   7.975   4.564
29518WAT     H188796   3.156   7.934   4.630
29518WAT     H288797   3.219   8.075   4.575
29519WAT      O88798   2.867   4.821   0.254
29519WAT     H188799   2.954   4.774   0.263
29519WAT     H288800   2.812   4.777   0.184
29520WAT      O88801   2.197   0.606   7.336
29520WAT     H188802   2.221   0.541   7.264
29520WAT     H288803   2.103   0.638   7.322
29521WAT      O88804   8.257   5.460   0.884
29521WAT     H188805   8.263   5.362   0.862
29521WAT     H288806   8.308   5.512   0.816
29522WAT      O88807   1.770   9.016   7.680
29522WAT     H188808   1.719   8.935   7.709
29522WAT     H288809   1.737   9.047   7.591
29523WAT      O88810   6.189   2.244   4.699
29523WAT     H188811   6.119   2.294   4.750
29523WAT     H288812   6.280   2.269   4.734
29524WAT      O88813   5.675   5.234   8.781
29524WAT     H188814   5.733   5.308   8.817
29524WAT     H288815   5.721   5.146   8.797
29525WAT      O88816   6.427   5.028   2.674
29525WAT     H188817   6.502   5.093   2.670
29525WAT     H288818   6.343   5.071   2.640
29526WAT      O88819   7.626   7.678   1.374
29526WAT     H188820   7.676   7.706   1.292
29526WAT     H288821   7.621   7.578   1.377
29527WAT      O88822   2.197   1.870   9.800
29527WAT     H188823   2.143   1.951   9.821
29527WAT     H288824   2.150   1.788   9.834
29528WAT      O88825   9.717   4.563   3.611
29528WAT     H188826   9.794   4.626   3.622
29528WAT     H288827   9.643   4.609   3.562
29529WAT      O88828   0.653   2.854   6.127
29529WAT     H188829   0.561   2.891   6.132
29529WAT     H288830   0.719   2.929   6.122
29530WAT      O88831   4.804   5.884   4.372
29530WAT     H188832   4.801   5.785   4.358
29530WAT     H288833   4.839   5.903   4.464
29531WAT      O88834   4.093   0.252   0.579
29531WAT     H188835   4.140   0.168   0.606
29531WAT     H288836   4.158   0.328   0.582
29532WAT      O88837   9.084   4.912   6.425
29532WAT     H188838   9.078   5.005   6.391
29532WAT     H288839   9.094   4.848   6.348
29533WAT      O88840   1.237   3.039   0.104
29533WAT     H188841   1.213   3.062   0.198
29533WAT     H288842   1.156   3.047   0.046
29534WAT      O88843   1.649   2.851   8.111
29534WAT     H188844   1.569   2.813   8.064
29534WAT     H288845   1.730   2.839   8.055
29535WAT      O88846   9.226   3.551   0.372
29535WAT     H188847   9.132   3.520   0.386
29535WAT     H288848   9.234   3.647   0.399
29536WAT      O88849   8.934   0.938   6.230
29536WAT     H188850   8.953   0.913   6.325
29536WAT     H288851   9.019   0.939   6.178
29537WAT      O88852   4.305   4.580   1.995
29537WAT     H188853   4.312   4.481   1.997
29537WAT     H288854   4.296   4.615   2.088
29538WAT      O88855   2.062   6.197   2.681
29538WAT     H188856   2.071   6.296   2.689
29538WAT     H288857   1.984   6.175   2.622
29539WAT      O88858   4.110   3.453   7.441
29539WAT     H188859   4.011   3.442   7.438
29539WAT     H288860   4.150   3.376   7.490
29540WAT      O88861   1.990   1.892   7.664
29540WAT     H188862   1.925   1.940   7.722
29540WAT     H288863   1.941   1.828   7.605
29541WAT      O88864   2.951   5.235   4.721
29541WAT     H188865   2.906   5.316   4.682
29541WAT     H288866   3.030   5.264   4.774
29542WAT      O88867   4.764   9.385   9.851
29542WAT     H188868   4.789   9.446   9.926
29542WAT     H288869   4.740   9.295   9.887
29543WAT      O88870   0.812   5.441   3.303
29543WAT     H188871   0.903   5.421   3.266
29543WAT     H288872   0.792   5.538   3.291
29544WAT      O88873   4.895   3.289   7.340
29544WAT     H188874   4.937   3.328   7.259
29544WAT     H288875   4.957   3.300   7.418
29545WAT      O88876   9.474   2.060   4.967
29545WAT     H188877   9.533   1.983   4.944
29545WAT     H288878   9.500   2.140   4.914
29546WAT      O88879   7.047   8.220   6.476
29546WAT     H188880   7.107   8.160   6.422
29546WAT     H288881   7.057   8.314   6.445
29547WAT      O88882   2.698   3.252   2.393
29547WAT     H188883   2.653   3.278   2.479
29547WAT     H288884   2.780   3.199   2.413
29548WAT      O88885   2.129   4.598   6.947
29548WAT     H188886   2.133   4.693   6.979
29548WAT     H288887   2.203   4.582   6.882
29549WAT      O88888   5.444   8.374   6.568
29549WAT     H188889   5.350   8.358   6.536
29549WAT     H288890   5.464   8.312   6.643
29550WAT      O88891   0.190   1.603   8.137
29550WAT     H188892   0.173   1.505   8.143
29550WAT     H288893   0.205   1.640   8.229
29551WAT      O88894   2.390   1.470   5.057
29551WAT     H188895   2.460   1.436   5.120
29551WAT     H288896   2.416   1.447   4.963
29552WAT      O88897   2.372   0.352   1.946
29552WAT     H188898   2.417   0.265   1.964
29552WAT     H288899   2.439   0.417   1.910
29553WAT      O88900   8.850   9.839   7.872
29553WAT     H188901   8.836   9.844   7.773
29553WAT     H288902   8.943   9.805   7.890
29554WAT      O88903   3.903   0.007   2.048
29554WAT     H188904   3.927  -0.047   2.129
29554WAT     H288905   3.986   0.031   1.997
29555WAT      O88906   0.274   7.432   7.423
29555WAT     H188907   0.248   7.394   7.512
29555WAT     H288908   0.316   7.361   7.367
29556WAT      O88909   7.747   3.951   1.093
29556WAT     H188910   7.714   3.976   1.002
29556WAT     H288911   7.766   3.853   1.096
29557WAT      O88912   8.911   2.788   6.204
29557WAT     H188913   8.960   2.866   6.164
29557WAT     H288914   8.873   2.815   6.292
29558WAT      O88915   4.473   1.393   2.008
29558WAT     H188916   4.408   1.320   1.988
29558WAT     H288917   4.425   1.472   2.046
29559WAT      O88918   5.905   2.201   2.729
29559WAT     H188919   5.928   2.180   2.824
29559WAT     H288920   5.983   2.178   2.670
29560WAT      O88921   0.020   4.624   4.379
29560WAT     H188922   0.019   4.544   4.320
29560WAT     H288923   0.029   4.707   4.323
29561WAT      O88924   2.218   8.885   3.985
29561WAT     H188925   2.156   8.819   4.027
29561WAT     H288926   2.208   8.882   3.886
29562WAT      O88927   8.537   5.797   9.509
29562WAT     H188928   8.438   5.790   9.517
29562WAT     H288929   8.573   5.713   9.467
29563WAT      O88930   6.584   6.139   6.260
29563WAT     H188931   6.492   6.152   6.222
29563WAT     H288932   6.597   6.042   6.284
29564WAT      O88933   9.373   7.002   5.639
29564WAT     H188934   9.343   6.946   5.562
29564WAT     H288935   9.297   7.016   5.702
29565WAT      O88936   0.226   0.008   7.644
29565WAT     H188937   0.316   0.039   7.677
29565WAT     H288938   0.232  -0.088   7.619
29566WAT      O88939   7.637   7.445   2.909
29566WAT     H188940   7.567   7.380   2.877
29566WAT     H288941   7.599   7.537   2.908
29567WAT      O88942   3.773   3.209   0.185
29567WAT     H188943   3.676   3.188   0.174
29567WAT     H288944   3.822   3.188   0.101
29568WAT      O88945   1.254   9.846   3.917
29568WAT     H188946   1.166   9.819   3.957
29568WAT     H288947   1.270   9.794   3.833
29569WAT      O88948   6.615   4.842   7.581
29569WAT     H188949   6.560   4.835   7.498
29569WAT     H288950   6.704   4.800   7.566
29570WAT      O88951   2.863   2.507   3.008
29570WAT     H188952   2.928   2.468   2.944
29570WAT     H288953   2.901   2.501   3.101
29571WAT      O88954   1.224   1.736   4.732
29571WAT     H188955   1.258   1.827   4.757
29571WAT     H288956   1.167   1.743   4.650
29572WAT      O88957   5.512   4.828   8.722
29572WAT     H188958   5.456   4.863   8.647
29572WAT     H288959   5.603   4.803   8.689
29573WAT      O88960   6.820   8.028   1.736
29573WAT     H188961   6.756   8.036   1.659
29573WAT     H288962   6.828   8.117   1.782
29574WAT      O88963   4.744   5.657   6.051
29574WAT     H188964   4.784   5.566   6.040
29574WAT     H288965   4.726   5.698   5.962
29575WAT      O88966   1.380   3.982   3.179
29575WAT     H188967   1.339   4.053   3.122
29575WAT     H288968   1.441   4.024   3.246
29576WAT      O88969   8.477   0.789   6.222
29576WAT     H188970   8.535   0.709   6.202
29576WAT     H288971   8.403   0.762   6.283
29577WAT      O88972   3.272   4.761   8.121
29577WAT     H188973   3.343   4.693   8.100
29577WAT     H288974   3.186   4.714   8.142
29578WAT      O88975   2.236   2.764   2.940
29578WAT     H188976   2.325   2.799   2.909
29578WAT     H288977   2.170   2.770   2.865
29579WAT      O88978   7.148   4.166   1.772
29579WAT     H188979   7.192   4.076   1.772
29579WAT     H288980   7.142   4.200   1.678
29580WAT      O88981   5.116   8.794   7.821
29580WAT     H188982   5.030   8.752   7.791
29580WAT     H288983   5.190   8.761   7.763
29581WAT      O88984   0.089   3.919   0.124
29581WAT     H188985   0.112   4.012   0.096
29581WAT     H288986   0.119   3.855   0.053
29582WAT      O88987   6.297   0.722   7.048
29582WAT     H188988   6.253   0.812   7.047
29582WAT     H288989   6.278   0.675   6.962
29583WAT      O88990   9.173   6.565   7.799
29583WAT     H188991   9.081   6.603   7.809
29583WAT     H288992   9.195   6.509   7.879
29584WAT      O88993   0.794   8.840   3.401
29584WAT     H188994   0.833   8.929   3.380
29584WAT     H288995   0.770   8.794   3.315
29585WAT      O88996   7.936   7.049   4.482
29585WAT     H188997   7.977   6.959   4.496
29585WAT     H288998   7.969   7.087   4.396
29586WAT      O88999   2.440   4.333   1.969
29586WAT     H189000   2.400   4.265   1.907
29586WAT     H289001   2.508   4.288   2.027
29587WAT      O89002   3.382   4.804   5.807
29587WAT     H189003   3.360   4.787   5.711
29587WAT     H289004   3.422   4.894   5.817
29588WAT      O89005   7.931   7.522   6.693
29588WAT     H189006   7.889   7.448   6.640
29588WAT     H289007   8.029   7.504   6.703
29589WAT      O89008   2.248   4.461   3.723
29589WAT     H189009   2.153   4.490   3.720
29589WAT     H289010   2.272   4.415   3.637
29590WAT      O89011   8.314   9.337   3.414
29590WAT     H189012   8.367   9.253   3.425
29590WAT     H289013   8.258   9.353   3.495
29591WAT      O89014   0.843   7.323   8.937
29591WAT     H189015   0.930   7.371   8.927
29591WAT     H289016   0.773   7.368   8.881
29592WAT      O89017   5.946   3.998   8.952
29592WAT     H189018   5.893   3.914   8.958
29592WAT     H289019   5.991   4.003   8.863
29593WAT      O89020   5.900   8.790   4.587
29593WAT     H189021   5.825   8.750   4.640
29593WAT     H289022   5.962   8.838   4.649
29594WAT      O89023   5.388   9.152   7.559
29594WAT     H189024   5.452   9.082   7.525
29594WAT     H289025   5.386   9.149   7.659
29595WAT      O89026   0.810   2.134   6.637
29595WAT     H189027   0.882   2.195   6.605
29595WAT     H289028   0.809   2.134   6.737
29596WAT      O89029   2.775   3.554   9.662
29596WAT     H189030   2.796   3.507   9.576
29596WAT     H289031   2.703   3.504   9.710
29597WAT      O89032   8.632   9.050   6.491
29597WAT     H189033   8.552   9.097   6.527
29597WAT     H289034   8.663   8.981   6.557
29598WAT      O89035   2.877   0.349   6.254
29598WAT     H189036   2.931   0.306   6.326
29598WAT     H289037   2.780   0.336   6.274
29599WAT      O89038   5.256   4.946   3.871
29599WAT     H189039   5.314   4.874   3.833
29599WAT     H289040   5.301   5.035   3.862
29600WAT      O89041   8.548   2.134   5.636
29600WAT     H189042   8.632   2.081   5.628
29600WAT     H289043   8.569   2.230   5.649
29601WAT      O89044   4.117   9.021   0.608
29601WAT     H189045   4.060   9.031   0.690
29601WAT     H289046   4.061   8.986   0.533
29602WAT      O89047   8.147   1.051   6.014
29602WAT     H189048   8.162   1.149   6.006
29602WAT     H289049   8.049   1.031   6.004
29603WAT      O89050   3.918   9.078   0.772
29603WAT     H189051   3.846   9.010   0.781
29603WAT     H289052   3.885   9.155   0.717
29604WAT      O89053   2.187   2.930   5.660
29604WAT     H189054   2.095   2.897   5.676
29604WAT     H289055   2.251   2.881   5.719
29605WAT      O89056   6.091   4.728   0.461
29605WAT     H189057   6.117   4.812   0.509
29605WAT     H289058   6.172   4.670   0.450
29606WAT      O89059   5.626   3.276   9.371
29606WAT     H189060   5.665   3.192   9.407
29606WAT     H289061   5.568   3.320   9.440
29607WAT      O89062   0.745   8.654   3.200
29607WAT     H189063   0.697   8.604   3.129
29607WAT     H289064   0.826   8.697   3.161
29608WAT      O89065   3.296   4.687   9.174
29608WAT     H189066   3.228   4.663   9.105
29608WAT     H289067   3.267   4.654   9.263
29609WAT      O89068   8.397   3.762   4.420
29609WAT     H189069   8.441   3.693   4.478
29609WAT     H289070   8.377   3.843   4.475
29610WAT      O89071   1.547   9.135   3.178
29610WAT     H189072   1.622   9.082   3.138
29610WAT     H289073   1.536   9.221   3.128
29611WAT      O89074   9.653   0.651   6.863
29611WAT     H189075   9.606   0.579   6.914
29611WAT     H289076   9.585   0.707   6.815
29612WAT      O89077   0.140   0.652   3.382
29612WAT     H189078   0.219   0.630   3.325
29612WAT     H289079   0.086   0.723   3.338
29613WAT      O89080   4.318   3.018   1.012
29613WAT     H189081   4.222   3.023   0.984
29613WAT     H289082   4.357   3.110   1.012
29614WAT      O89083   2.663   3.900   5.627
29614WAT     H189084   2.693   3.854   5.543
29614WAT     H289085   2.721   3.980   5.644
29615WAT      O89086   0.766   3.926   5.661
29615WAT     H189087   0.767   3.896   5.566
29615WAT     H289088   0.860   3.944   5.692
29616WAT      O89089   9.333   3.035   5.314
29616WAT     H189090   9.403   2.984   5.364
29616WAT     H289091   9.279   2.973   5.258
29617WAT      O89092   7.629   0.508   0.578
29617WAT     H189093   7.580   0.525   0.664
29617WAT     H289094   7.677   0.591   0.550
29618WAT      O89095   3.346   3.670   9.802
29618WAT     H189096   3.254   3.683   9.839
29618WAT     H289097   3.340   3.656   9.703
29619WAT      O89098   7.053   5.535   1.268
29619WAT     H189099   7.097   5.559   1.354
29619WAT     H289100   7.121   5.531   1.195
29620WAT      O89101   1.877   1.276   4.388
29620WAT     H189102   1.908   1.346   4.324
29620WAT     H289103   1.780   1.256   4.371
29621WAT      O89104   2.616   4.500   0.457
29621WAT     H189105   2.634   4.448   0.373
29621WAT     H289106   2.702   4.526   0.499
29622WAT      O89107   7.187   1.367   8.422
29622WAT     H189108   7.125   1.292   8.447
29622WAT     H289109   7.138   1.454   8.426
29623WAT      O89110   4.589   6.008   5.869
29623WAT     H189111   4.506   6.043   5.825
29623WAT     H289112   4.670   6.048   5.826
29624WAT      O89113   6.339   6.020   1.731
29624WAT     H189114   6.374   5.973   1.649
29624WAT     H289115   6.267   5.964   1.772
29625WAT      O89116   8.777   2.993   4.747
29625WAT     H189117   8.800   3.085   4.714
29625WAT     H289118   8.817   2.980   4.838
29626WAT      O89119   5.716   4.712   9.413
29626WAT     H189120   5.651   4.668   9.351
29626WAT     H289121   5.737   4.803   9.379
29627WAT      O89122   9.081   2.802   3.814
29627WAT     H189123   9.094   2.887   3.764
29627WAT     H289124   9.164   2.782   3.868
29628WAT      O89125   4.200   6.199   5.257
29628WAT     H189126   4.188   6.297   5.271
29628WAT     H289127   4.219   6.154   5.344
29629WAT      O89128   3.634   1.282   9.309
29629WAT     H189129   3.733   1.271   9.316
29629WAT     H289130   3.590   1.242   9.390
29630WAT      O89131   4.878   5.529   2.505
29630WAT     H189132   4.824   5.455   2.547
29630WAT     H289133   4.864   5.614   2.555
29631WAT      O89134   6.074   8.785   1.246
29631WAT     H189135   6.121   8.865   1.284
29631WAT     H289136   6.128   8.703   1.262
29632WAT      O89137   0.413   2.869   3.386
29632WAT     H189138   0.420   2.809   3.466
29632WAT     H289139   0.487   2.848   3.322
29633WAT      O89140   6.992   0.282   5.307
29633WAT     H189141   6.914   0.303   5.247
29633WAT     H289142   6.957   0.258   5.398
29634WAT      O89143   1.771   7.694   5.045
29634WAT     H189144   1.842   7.646   5.098
29634WAT     H289145   1.772   7.661   4.951
29635WAT      O89146   3.779   6.863   6.666
29635WAT     H189147   3.749   6.913   6.747
29635WAT     H289148   3.829   6.925   6.605
29636WAT      O89149   3.854   1.825   5.556
29636WAT     H189150   3.807   1.870   5.480
29636WAT     H289151   3.835   1.875   5.641
29637WAT      O89152   2.324   9.658   4.117
29637WAT     H189153   2.413   9.703   4.121
29637WAT     H289154   2.332   9.574   4.063
29638WAT      O89155   2.406   6.732   7.055
29638WAT     H189156   2.478   6.777   7.108
29638WAT     H289157   2.322   6.784   7.062
29639WAT      O89158   9.624   5.204   3.529
29639WAT     H189159   9.715   5.244   3.515
29639WAT     H289160   9.605   5.137   3.458
29640WAT      O89161   2.016   2.276   3.704
29640WAT     H189162   1.949   2.301   3.635
29640WAT     H289163   2.039   2.356   3.759
29641WAT      O89164   4.585   2.009   4.087
29641WAT     H189165   4.531   1.940   4.134
29641WAT     H289166   4.602   1.979   3.993
29642WAT      O89167   9.248   2.960   4.567
29642WAT     H189168   9.178   2.957   4.495
29642WAT     H289169   9.208   2.931   4.654
29643WAT      O89170   8.399   6.968   1.574
29643WAT     H189171   8.496   6.977   1.550
29643WAT     H289172   8.358   7.059   1.580
29644WAT      O89173   5.288   8.296   4.230
29644WAT     H189174   5.275   8.375   4.170
29644WAT     H289175   5.358   8.316   4.298
29645WAT      O89176   3.401   5.814   5.434
29645WAT     H189177   3.401   5.914   5.428
29645WAT     H289178   3.368   5.775   5.348
29646WAT      O89179   2.738   8.156   3.016
29646WAT     H189180   2.784   8.240   2.988
29646WAT     H289181   2.773   8.080   2.962
29647WAT      O89182   8.277   8.196   9.140
29647WAT     H189183   8.268   8.296   9.136
29647WAT     H289184   8.369   8.170   9.113
29648WAT      O89185   3.033   1.892   4.268
29648WAT     H189186   3.017   1.870   4.365
29648WAT     H289187   2.987   1.824   4.211
29649WAT      O89188   6.570   5.495   1.045
29649WAT     H189189   6.496   5.534   1.100
29649WAT     H289190   6.614   5.568   0.992
29650WAT      O89191   9.025   9.617   0.779
29650WAT     H189192   8.994   9.531   0.737
29650WAT     H289193   8.994   9.694   0.723
29651WAT      O89194   5.854   6.721   8.008
29651WAT     H189195   5.890   6.747   8.098
29651WAT     H289196   5.776   6.778   7.985
29652WAT      O89197   4.882   1.637   6.560
29652WAT     H189198   4.850   1.565   6.499
29652WAT     H289199   4.895   1.722   6.509
29653WAT      O89200   8.410   4.585   6.332
29653WAT     H189201   8.358   4.640   6.268
29653WAT     H289202   8.460   4.645   6.395
29654WAT      O89203   7.961   6.765   9.511
29654WAT     H189204   8.044   6.757   9.455
29654WAT     H289205   7.950   6.683   9.567
29655WAT      O89206   6.848   3.751   2.960
29655WAT     H189207   6.753   3.739   2.990
29655WAT     H289208   6.884   3.663   2.928
29656WAT      O89209   5.575   2.146   9.689
29656WAT     H189210   5.590   2.053   9.656
29656WAT     H289211   5.480   2.157   9.717
29657WAT      O89212   6.909   8.464   8.325
29657WAT     H189213   6.964   8.506   8.397
29657WAT     H289214   6.837   8.528   8.297
29658WAT      O89215   4.452   9.306   6.436
29658WAT     H189216   4.517   9.314   6.360
29658WAT     H289217   4.490   9.350   6.517
29659WAT      O89218   8.063   4.647   0.887
29659WAT     H189219   8.129   4.647   0.962
29659WAT     H289220   8.112   4.655   0.800
29660WAT      O89221   7.621   3.957   9.294
29660WAT     H189222   7.659   3.942   9.203
29660WAT     H289223   7.688   3.931   9.363
29661WAT      O89224   1.596   1.296   6.618
29661WAT     H189225   1.640   1.262   6.534
29661WAT     H289226   1.660   1.355   6.667
29662WAT      O89227   2.724   1.071   5.580
29662WAT     H189228   2.780   1.017   5.643
29662WAT     H289229   2.659   1.126   5.632
29663WAT      O89230   1.118   1.501   4.754
29663WAT     H189231   1.141   1.457   4.666
29663WAT     H289232   1.157   1.593   4.756
29664WAT      O89233   1.974   6.810   6.874
29664WAT     H189234   1.960   6.898   6.830
29664WAT     H289235   1.963   6.737   6.806
29665WAT      O89236   6.227   1.251   8.469
29665WAT     H189237   6.168   1.175   8.495
29665WAT     H289238   6.322   1.222   8.473
29666WAT      O89239   3.115   3.216   2.573
29666WAT     H189240   3.111   3.119   2.597
29666WAT     H289241   3.201   3.236   2.526
29667WAT      O89242   6.899   1.622   8.013
29667WAT     H189243   6.852   1.665   8.090
29667WAT     H289244   6.863   1.659   7.927
29668WAT      O89245   0.503   2.105   0.672
29668WAT     H189246   0.558   2.184   0.696
29668WAT     H289247   0.559   2.022   0.678
29669WAT      O89248   1.128   1.078   6.520
29669WAT     H189249   1.122   1.141   6.597
29669WAT     H289250   1.180   1.121   6.446
29670WAT      O89251   8.051   8.866   3.713
29670WAT     H189252   8.081   8.956   3.745
29670WAT     H289253   8.073   8.857   3.616
29671WAT      O89254   0.733   5.536   1.559
29671WAT     H189255   0.685   5.620   1.535
29671WAT     H289256   0.693   5.459   1.511
29672WAT      O89257   4.282   4.381   5.405
29672WAT     H189258   4.346   4.315   5.446
29672WAT     H289259   4.307   4.395   5.309
29673WAT      O89260   3.221   2.149   0.021
29673WAT     H189261   3.190   2.154  -0.074
29673WAT     H289262   3.321   2.148   0.023
29674WAT      O89263   3.975   7.254   6.588
29674WAT     H189264   3.916   7.316   6.640
29674WAT     H289265   3.920   7.179   6.552
29675WAT      O89266   6.786   7.612   7.385
29675WAT     H189267   6.796   7.542   7.315
29675WAT     H289268   6.861   7.678   7.379
29676WAT      O89269   6.783   9.333   9.480
29676WAT     H189270   6.695   9.328   9.434
29676WAT     H289271   6.851   9.282   9.427
29677WAT      O89272   5.460   3.804   4.049
29677WAT     H189273   5.539   3.854   4.014
29677WAT     H289274   5.399   3.781   3.974
29678WAT      O89275   4.655   2.108   4.758
29678WAT     H189276   4.716   2.068   4.690
29678WAT     H289277   4.584   2.161   4.711
29679WAT      O89278   5.661   3.974   6.401
29679WAT     H189279   5.644   3.879   6.427
29679WAT     H289280   5.668   4.030   6.483
29680WAT      O89281   7.718   9.380   5.548
29680WAT     H189282   7.803   9.338   5.580
29680WAT     H289283   7.678   9.434   5.621
29681WAT      O89284   8.560   2.008   2.302
29681WAT     H189285   8.535   1.938   2.369
29681WAT     H289286   8.513   1.989   2.216
29682WAT      O89287   0.376   9.227   3.139
29682WAT     H189288   0.440   9.236   3.062
29682WAT     H289289   0.395   9.298   3.207
29683WAT      O89290   5.258   1.221   3.224
29683WAT     H189291   5.212   1.306   3.201
29683WAT     H289292   5.202   1.143   3.196
29684WAT      O89293   5.291   6.202   0.598
29684WAT     H189294   5.390   6.207   0.583
29684WAT     H289295   5.261   6.107   0.587
29685WAT      O89296   9.117   6.851   4.724
29685WAT     H189297   9.159   6.769   4.686
29685WAT     H289298   9.028   6.828   4.763
29686WAT      O89299   7.770   6.947   9.427
29686WAT     H189300   7.694   6.904   9.477
29686WAT     H289301   7.853   6.892   9.439
29687WAT      O89302   5.321   7.254   2.112
29687WAT     H189303   5.338   7.350   2.131
29687WAT     H289304   5.393   7.198   2.153
29688WAT      O89305   0.540   8.911   8.801
29688WAT     H189306   0.625   8.919   8.853
29688WAT     H289307   0.527   8.816   8.772
29689WAT      O89308   4.368   0.859   0.080
29689WAT     H189309   4.374   0.926   0.006
29689WAT     H289310   4.289   0.879   0.138
29690WAT      O89311   2.897   2.063   1.113
29690WAT     H189312   2.847   2.141   1.076
29690WAT     H289313   2.870   2.048   1.208
29691WAT      O89314   8.151   6.366   5.233
29691WAT     H189315   8.171   6.272   5.262
29691WAT     H289316   8.090   6.364   5.154
29692WAT      O89317   2.984   9.534   0.614
29692WAT     H189318   2.943   9.585   0.539
29692WAT     H289319   2.912   9.491   0.668
29693WAT      O89320   6.891   1.013   8.669
29693WAT     H189321   6.946   1.039   8.749
29693WAT     H289322   6.871   0.915   8.672
29694WAT      O89323   1.150   3.049   1.715
29694WAT     H189324   1.210   3.113   1.667
29694WAT     H289325   1.186   3.033   1.807
29695WAT      O89326   7.381   8.302   8.601
29695WAT     H189327   7.469   8.338   8.631
29695WAT     H289328   7.377   8.302   8.501
29696WAT      O89329   5.082   3.283   8.279
29696WAT     H189330   5.018   3.207   8.267
29696WAT     H289331   5.155   3.277   8.211
29697WAT      O89332   5.623   1.281   7.239
29697WAT     H189333   5.613   1.373   7.202
29697WAT     H289334   5.715   1.246   7.220
29698WAT      O89335   9.616   0.972   3.439
29698WAT     H189336   9.549   1.043   3.418
29698WAT     H289337   9.569   0.884   3.448
29699WAT      O89338   2.439   7.434   1.344
29699WAT     H189339   2.360   7.420   1.403
29699WAT     H289340   2.499   7.353   1.349
29700WAT      O89341   0.447   7.208   7.839
29700WAT     H189342   0.523   7.214   7.904
29700WAT     H289343   0.484   7.202   7.746
29701WAT      O89344   5.549   0.634   0.574
29701WAT     H189345   5.576   0.548   0.618
29701WAT     H289346   5.449   0.640   0.571
29702WAT      O89347   5.859   1.792   5.555
29702WAT     H189348   5.898   1.775   5.646
29702WAT     H289349   5.832   1.888   5.549
29703WAT      O89350   2.651   0.970   2.506
29703WAT     H189351   2.620   0.889   2.555
29703WAT     H289352   2.715   0.943   2.434
29704WAT      O89353   4.285   7.071   4.908
29704WAT     H189354   4.307   7.000   4.975
29704WAT     H289355   4.224   7.138   4.950
29705WAT      O89356   5.985   4.380   7.275
29705WAT     H189357   5.950   4.448   7.340
29705WAT     H289358   5.955   4.288   7.304
29706WAT      O89359   1.270   1.440   8.104
29706WAT     H189360   1.358   1.487   8.100
29706WAT     H289361   1.232   1.431   8.012
29707WAT      O89362   9.123   1.555   1.432
29707WAT     H189363   9.131   1.492   1.355
29707WAT     H289364   9.056   1.626   1.411
29708WAT      O89365   9.828   0.526   7.886
29708WAT     H189366   9.809   0.622   7.907
29708WAT     H289367   9.743   0.474   7.885
29709WAT      O89368   9.487   7.693   0.391
29709WAT     H189369   9.404   7.641   0.371
29709WAT     H289370   9.465   7.771   0.449
29710WAT      O89371   3.225   3.339   3.380
29710WAT     H189372   3.146   3.285   3.409
29710WAT     H289373   3.302   3.322   3.442
29711WAT      O89374   7.933   8.623   8.648
29711WAT     H189375   7.905   8.527   8.641
29711WAT     H289376   7.856   8.682   8.624
29712WAT      O89377   2.883   8.808   2.235
29712WAT     H189378   2.962   8.772   2.186
29712WAT     H289379   2.802   8.754   2.212
29713WAT      O89380   5.949   5.786   4.524
29713WAT     H189381   5.850   5.787   4.539
29713WAT     H289382   5.994   5.740   4.601
29714WAT      O89383   8.446   4.303   0.571
29714WAT     H189384   8.373   4.334   0.510
29714WAT     H289385   8.532   4.347   0.545
29715WAT      O89386   0.643   3.908   4.793
29715WAT     H189387   0.577   3.908   4.868
29715WAT     H289388   0.726   3.955   4.821
29716WAT      O89389   8.030   3.903   7.838
29716WAT     H189390   7.982   3.973   7.786
29716WAT     H289391   7.983   3.815   7.827
29717WAT      O89392   7.219   0.412   4.865
29717WAT     H189393   7.250   0.360   4.786
29717WAT     H289394   7.240   0.362   4.949
29718WAT      O89395   1.716   9.507   9.048
29718WAT     H189396   1.646   9.437   9.035
29718WAT     H289397   1.779   9.478   9.120
29719WAT      O89398   8.555   6.391   2.013
29719WAT     H189399   8.600   6.404   1.925
29719WAT     H289400   8.561   6.476   2.066
29720WAT      O89401   0.823   3.112   4.950
29720WAT     H189402   0.802   3.202   4.987
29720WAT     H289403   0.762   3.044   4.991
29721WAT      O89404   9.677   8.128   7.240
29721WAT     H189405   9.643   8.134   7.334
29721WAT     H289406   9.690   8.032   7.215
29722WAT      O89407   3.450   6.675   6.734
29722WAT     H189408   3.433   6.692   6.637
29722WAT     H289409   3.484   6.758   6.778
29723WAT      O89410   4.380   7.619   2.060
29723WAT     H189411   4.386   7.519   2.065
29723WAT     H289412   4.421   7.658   2.142
29724WAT      O89413   7.460   8.595   3.322
29724WAT     H189414   7.447   8.496   3.329
29724WAT     H289415   7.380   8.642   3.358
29725WAT      O89416   0.115   0.233   8.277
29725WAT     H189417   0.111   0.235   8.177
29725WAT     H289418   0.071   0.315   8.315
29726WAT      O89419   9.797   3.399   4.429
29726WAT     H189420   9.815   3.309   4.390
29726WAT     H289421   9.870   3.422   4.494
29727WAT      O89422   9.224   4.244   0.175
29727WAT     H189423   9.189   4.235   0.082
29727WAT     H289424   9.274   4.329   0.184
29728WAT      O89425   2.318   8.503   4.661
29728WAT     H189426   2.370   8.450   4.594
29728WAT     H289427   2.220   8.490   4.645
29729WAT      O89428   7.114   1.189   7.402
29729WAT     H189429   7.042   1.253   7.427
29729WAT     H289430   7.099   1.102   7.449
29730WAT      O89431   5.038   6.539   2.384
29730WAT     H189432   4.989   6.467   2.433
29730WAT     H289433   5.131   6.510   2.365
29731WAT      O89434   1.329   7.541   8.857
29731WAT     H189435   1.410   7.589   8.891
29731WAT     H289436   1.339   7.527   8.758
29732WAT      O89437   7.214   9.312   2.987
29732WAT     H189438   7.135   9.270   3.030
29732WAT     H289439   7.253   9.381   3.048
29733WAT      O89440   1.389   3.583   9.220
29733WAT     H189441   1.393   3.631   9.307
29733WAT     H289442   1.479   3.546   9.198
29734WAT      O89443   2.658   8.077   1.580
29734WAT     H189444   2.728   8.145   1.557
29734WAT     H289445   2.666   8.052   1.676
29735WAT      O89446   5.688   3.986   0.306
29735WAT     H189447   5.783   4.008   0.285
29735WAT     H289448   5.636   3.975   0.221
29736WAT      O89449   8.870   9.409   6.599
29736WAT     H189450   8.960   9.452   6.591
29736WAT     H289451   8.879   9.321   6.647
29737WAT      O89452   9.233   6.701   2.856
29737WAT     H189453   9.196   6.622   2.907
29737WAT     H289454   9.190   6.705   2.766
29738WAT      O89455   2.248   5.058   3.263
29738WAT     H189456   2.275   5.151   3.288
29738WAT     H289457   2.329   5.001   3.251
29739WAT      O89458   7.655   8.810   8.336
29739WAT     H189459   7.719   8.829   8.261
29739WAT     H289460   7.707   8.786   8.418
29740WAT      O89461   2.450   6.418   6.542
29740WAT     H189462   2.487   6.353   6.475
29740WAT     H289463   2.506   6.501   6.542
29741WAT      O89464   0.167   0.644   6.423
29741WAT     H189465   0.119   0.608   6.503
29741WAT     H289466   0.147   0.741   6.413
29742WAT      O89467   6.428   8.599   8.735
29742WAT     H189468   6.473   8.632   8.818
29742WAT     H289469   6.329   8.604   8.746
29743WAT      O89470   0.470   2.061   8.959
29743WAT     H189471   0.532   2.134   8.990
29743WAT     H289472   0.387   2.101   8.921
29744WAT      O89473   5.491   5.752   8.501
29744WAT     H189474   5.506   5.809   8.581
29744WAT     H289475   5.563   5.770   8.434
29745WAT      O89476   1.787   6.521   2.478
29745WAT     H189477   1.834   6.551   2.395
29745WAT     H289478   1.759   6.426   2.468
29746WAT      O89479   8.782   6.716   9.781
29746WAT     H189480   8.842   6.637   9.767
29746WAT     H289481   8.817   6.772   9.856
29747WAT      O89482   2.108   5.623   2.277
29747WAT     H189483   2.071   5.539   2.316
29747WAT     H289484   2.205   5.631   2.302
29748WAT      O89485   0.460   1.911   6.738
29748WAT     H189486   0.452   1.824   6.691
29748WAT     H289487   0.458   1.986   6.671
29749WAT      O89488   4.019   5.379   3.598
29749WAT     H189489   3.923   5.355   3.603
29749WAT     H289490   4.029   5.479   3.598
29750WAT      O89491   6.320   4.947   9.025
29750WAT     H189492   6.329   4.953   9.125
29750WAT     H289493   6.285   4.857   9.001
29751WAT      O89494   2.834   4.320   4.611
29751WAT     H189495   2.873   4.310   4.520
29751WAT     H289496   2.736   4.300   4.608
29752WAT      O89497   6.118   6.248   1.699
29752WAT     H189498   6.172   6.168   1.674
29752WAT     H289499   6.061   6.226   1.778
29753WAT      O89500   2.886   2.841   8.474
29753WAT     H189501   2.917   2.844   8.569
29753WAT     H289502   2.888   2.933   8.435
29754WAT      O89503   4.051   2.135   3.299
29754WAT     H189504   4.139   2.130   3.346
29754WAT     H289505   3.977   2.137   3.367
29755WAT      O89506   6.112   9.344   4.370
29755WAT     H189507   6.047   9.419   4.386
29755WAT     H289508   6.145   9.348   4.276
29756WAT      O89509   0.782   0.742   5.268
29756WAT     H189510   0.768   0.667   5.203
29756WAT     H289511   0.786   0.705   5.360
29757WAT      O89512   9.009   3.890   9.445
29757WAT     H189513   8.985   3.888   9.348
29757WAT     H289514   9.055   3.805   9.470
29758WAT      O89515   0.918   7.580   6.295
29758WAT     H189516   0.889   7.625   6.210
29758WAT     H289517   0.838   7.562   6.352
29759WAT      O89518   4.282   0.999   5.510
29759WAT     H189519   4.309   1.086   5.469
29759WAT     H289520   4.211   0.957   5.454
29760WAT      O89521   5.856   3.182   6.917
29760WAT     H189522   5.767   3.205   6.957
29760WAT     H289523   5.928   3.224   6.972
29761WAT      O89524   7.064   3.226   2.640
29761WAT     H189525   7.122   3.166   2.584
29761WAT     H289526   6.976   3.237   2.595
29762WAT      O89527   7.591   5.366   9.457
29762WAT     H189528   7.632   5.275   9.456
29762WAT     H289529   7.662   5.435   9.443
29763WAT      O89530   1.134   3.715   0.297
29763WAT     H189531   1.049   3.699   0.345
29763WAT     H289532   1.174   3.628   0.269
29764WAT      O89533   8.068   1.578   5.448
29764WAT     H189534   8.080   1.492   5.399
29764WAT     H289535   8.029   1.646   5.386
29765WAT      O89536   4.977   6.478   0.938
29765WAT     H189537   4.933   6.412   0.999
29765WAT     H289538   4.925   6.563   0.938
29766WAT      O89539   2.607   7.398   4.099
29766WAT     H189540   2.538   7.466   4.075
29766WAT     H289541   2.573   7.307   4.077
29767WAT      O89542   4.588   3.159   4.653
29767WAT     H189543   4.611   3.249   4.617
29767WAT     H289544   4.618   3.088   4.589
29768WAT      O89545   0.729   3.559   1.910
29768WAT     H189546   0.749   3.497   1.834
29768WAT     H289547   0.661   3.626   1.881
29769WAT      O89548   9.390   3.445   7.104
29769WAT     H189549   9.335   3.510   7.158
29769WAT     H289550   9.389   3.472   7.008
29770WAT      O89551   2.920   0.520   2.957
29770WAT     H189552   3.016   0.491   2.960
29770WAT     H289553   2.910   0.608   3.003
29771WAT      O89554   6.336   8.070   5.258
29771WAT     H189555   6.386   8.032   5.335
29771WAT     H289556   6.248   8.106   5.289
29772WAT      O89557   5.816   5.021   8.335
29772WAT     H189558   5.897   5.067   8.372
29772WAT     H289559   5.737   5.041   8.393
29773WAT      O89560   5.185   1.988   6.137
29773WAT     H189561   5.100   1.944   6.163
29773WAT     H289562   5.169   2.086   6.124
29774WAT      O89563   3.692   7.713   1.851
29774WAT     H189564   3.721   7.775   1.924
29774WAT     H289565   3.701   7.759   1.762
29775WAT      O89566   0.263   4.238   1.358
29775WAT     H189567   0.209   4.155   1.342
29775WAT     H289568   0.358   4.223   1.332
29776WAT      O89569   0.201   0.108   7.030
29776WAT     H189570   0.109   0.126   7.066
29776WAT     H289571   0.269   0.146   7.092
29777WAT      O89572   2.485   0.577   5.265
29777WAT     H189573   2.576   0.552   5.233
29777WAT     H289574   2.423   0.499   5.253
29778WAT      O89575   6.383   3.533   4.672
29778WAT     H189576   6.382   3.633   4.672
29778WAT     H289577   6.291   3.498   4.690
29779WAT      O89578   0.111   5.086   4.693
29779WAT     H189579   0.119   5.146   4.772
29779WAT     H289580   0.072   5.138   4.616
29780WAT      O89581   7.472   0.558   6.183
29780WAT     H189582   7.446   0.654   6.190
29780WAT     H289583   7.449   0.524   6.092
29781WAT      O89584   5.700   1.913   6.079
29781WAT     H189585   5.713   1.981   6.006
29781WAT     H289586   5.608   1.923   6.117
29782WAT      O89587   4.619   9.407   7.627
29782WAT     H189588   4.576   9.480   7.681
29782WAT     H289589   4.712   9.391   7.660
29783WAT      O89590   1.501   5.179   3.162
29783WAT     H189591   1.473   5.096   3.211
29783WAT     H289592   1.447   5.256   3.193
29784WAT      O89593   2.822   4.451   7.164
29784WAT     H189594   2.793   4.355   7.156
29784WAT     H289595   2.917   4.458   7.135
29785WAT      O89596   0.019   2.965   5.317
29785WAT     H189597  -0.061   2.981   5.259
29785WAT     H289598   0.037   3.047   5.371
29786WAT      O89599   8.192   6.725   0.995
29786WAT     H189600   8.212   6.799   0.931
29786WAT     H289601   8.097   6.696   0.985
29787WAT      O89602   6.562   7.970   8.591
29787WAT     H189603   6.513   7.921   8.518
29787WAT     H289604   6.538   8.067   8.589
29788WAT      O89605   9.018   5.043   6.935
29788WAT     H189606   8.934   5.010   6.979
29788WAT     H289607   9.089   4.973   6.942
29789WAT      O89608   9.305   7.269   3.260
29789WAT     H189609   9.386   7.214   3.238
29789WAT     H289610   9.332   7.363   3.277
29790WAT      O89611   7.046   4.485   9.281
29790WAT     H189612   7.092   4.397   9.297
29790WAT     H289613   7.112   4.559   9.290
29791WAT      O89614   6.620   9.260   8.797
29791WAT     H189615   6.603   9.341   8.740
29791WAT     H289616   6.711   9.267   8.837
29792WAT      O89617   1.336   7.658   0.760
29792WAT     H189618   1.243   7.674   0.793
29792WAT     H289619   1.348   7.703   0.671
29793WAT      O89620   9.004   8.701   8.742
29793WAT     H189621   9.082   8.759   8.722
29793WAT     H289622   8.987   8.701   8.841
29794WAT      O89623   7.132   0.097   4.821
29794WAT     H189624   7.139   0.173   4.886
29794WAT     H289625   7.198   0.111   4.747
29795WAT      O89626   6.216   3.228   5.684
29795WAT     H189627   6.181   3.240   5.777
29795WAT     H289628   6.308   3.266   5.678
29796WAT      O89629   6.330   3.146   4.598
29796WAT     H189630   6.370   3.213   4.535
29796WAT     H289631   6.348   3.174   4.692
29797WAT      O89632   9.856   0.110   6.473
29797WAT     H189633   9.890   0.156   6.392
29797WAT     H289634   9.810   0.025   6.446
29798WAT      O89635   0.417   4.318   2.681
29798WAT     H189636   0.479   4.371   2.623
29798WAT     H289637   0.431   4.220   2.665
29799WAT      O89638   2.365   0.915   7.519
29799WAT     H189639   2.434   0.875   7.579
29799WAT     H289640   2.276   0.874   7.539
29800WAT      O89641   1.561   1.232   4.057
29800WAT     H189642   1.558   1.265   3.963
29800WAT     H289643   1.587   1.136   4.058
29801WAT      O89644   0.541   2.299   3.330
29801WAT     H189645   0.448   2.271   3.356
29801WAT     H289646   0.601   2.219   3.327
29802WAT      O89647   3.527   6.973   6.618
29802WAT     H189648   3.523   6.986   6.519
29802WAT     H289649   3.580   6.891   6.639
29803WAT      O89650   2.772   2.971   3.917
29803WAT     H189651   2.849   3.030   3.891
29803WAT     H289652   2.737   3.000   4.006
29804WAT      O89653   0.631   5.958   7.184
29804WAT     H189654   0.565   5.990   7.116
29804WAT     H289655   0.674   6.037   7.229
29805WAT      O89656   8.656   1.538   1.279
29805WAT     H189657   8.636   1.568   1.373
29805WAT     H289658   8.660   1.438   1.277
29806WAT      O89659   3.480   4.460   6.897
29806WAT     H189660   3.574   4.441   6.871
29806WAT     H289661   3.463   4.559   6.893
29807WAT      O89662   8.448   9.748   3.427
29807WAT     H189663   8.408   9.818   3.486
29807WAT     H289664   8.418   9.761   3.333
29808WAT      O89665   0.531   5.286   6.374
29808WAT     H189666   0.491   5.235   6.450
29808WAT     H289667   0.490   5.256   6.288
29809WAT      O89668   6.470   7.257   8.228
29809WAT     H189669   6.513   7.203   8.156
29809WAT     H289670   6.383   7.293   8.194
29810WAT      O89671   7.789   1.315   9.338
29810WAT     H189672   7.743   1.401   9.317
29810WAT     H289673   7.839   1.284   9.257
29811WAT      O89674   5.412   7.409   3.421
29811WAT     H189675   5.337   7.427   3.484
29811WAT     H289676   5.439   7.494   3.375
29812WAT      O89677   4.533   6.083   7.366
29812WAT     H189678   4.522   6.181   7.383
29812WAT     H289679   4.592   6.068   7.287
29813WAT      O89680   7.876   0.366   8.877
29813WAT     H189681   7.911   0.379   8.785
29813WAT     H289682   7.856   0.455   8.918
29814WAT      O89683   4.137   6.240   6.874
29814WAT     H189684   4.224   6.252   6.923
29814WAT     H289685   4.078   6.319   6.892
29815WAT      O89686   7.233   8.148   0.616
29815WAT     H189687   7.152   8.155   0.675
29815WAT     H289688   7.313   8.126   0.672
29816WAT      O89689   9.350   8.099   3.690
29816WAT     H189690   9.345   8.115   3.591
29816WAT     H289691   9.277   8.150   3.736
29817WAT      O89692   9.304   9.522   3.052
29817WAT     H189693   9.224   9.522   2.992
29817WAT     H289694   9.329   9.427   3.074
29818WAT      O89695   2.297   5.269   9.339
29818WAT     H189696   2.271   5.365   9.338
29818WAT     H289697   2.217   5.212   9.321
29819WAT      O89698   3.603   0.494   1.578
29819WAT     H189699   3.539   0.562   1.613
29819WAT     H289700   3.586   0.478   1.481
29820WAT      O89701   9.557   6.432   3.510
29820WAT     H189702   9.531   6.375   3.432
29820WAT     H289703   9.552   6.379   3.594
29821WAT      O89704   0.267   5.039   3.160
29821WAT     H189705   0.276   5.044   3.260
29821WAT     H289706   0.274   5.132   3.122
29822WAT      O89707   8.833   5.102   9.792
29822WAT     H189708   8.874   5.034   9.732
29822WAT     H289709   8.901   5.171   9.816
29823WAT      O89710   9.718   9.115   2.770
29823WAT     H189711   9.670   9.051   2.710
29823WAT     H289712   9.663   9.132   2.852
29824WAT      O89713   1.367   6.916   5.658
29824WAT     H189714   1.344   6.844   5.593
29824WAT     H289715   1.384   7.001   5.609
29825WAT      O89716   4.561   0.789   4.277
29825WAT     H189717   4.497   0.867   4.275
29825WAT     H289718   4.513   0.707   4.308
29826WAT      O89719   4.969   0.068   9.155
29826WAT     H189720   4.994   0.161   9.181
29826WAT     H289721   4.909   0.070   9.075
29827WAT      O89722   0.550   7.264   2.616
29827WAT     H189723   0.585   7.222   2.699
29827WAT     H289724   0.580   7.211   2.537
29828WAT      O89725   4.115   8.156   8.685
29828WAT     H189726   4.122   8.144   8.586
29828WAT     H289727   4.115   8.067   8.729
29829WAT      O89728   3.214   3.120   2.215
29829WAT     H189729   3.275   3.160   2.283
29829WAT     H289730   3.247   3.029   2.189
29830WAT      O89731   9.557   7.357   8.594
29830WAT     H189732   9.645   7.365   8.546
29830WAT     H289733   9.498   7.434   8.569
29831WAT      O89734   5.328   2.192   9.487
29831WAT     H189735   5.270   2.223   9.411
29831WAT     H289736   5.403   2.136   9.452
29832WAT      O89737   2.079   3.877   9.565
29832WAT     H189738   2.161   3.857   9.512
29832WAT     H289739   2.094   3.959   9.621
29833WAT      O89740   9.159   1.350   9.461
29833WAT     H189741   9.247   1.337   9.416
29833WAT     H289742   9.110   1.263   9.465
29834WAT      O89743   7.457   6.437   3.286
29834WAT     H189744   7.517   6.379   3.231
29834WAT     H289745   7.449   6.399   3.378
29835WAT      O89746   9.093   3.115   9.780
29835WAT     H189747   9.137   3.048   9.839
29835WAT     H289748   9.150   3.133   9.700
29836WAT      O89749   6.557   3.988   4.485
29836WAT     H189750   6.479   3.926   4.488
29836WAT     H289751   6.629   3.949   4.427
29837WAT      O89752   3.900   0.786   6.324
29837WAT     H189753   3.975   0.810   6.262
29837WAT     H289754   3.924   0.703   6.374
29838WAT      O89755   1.133   4.978   1.889
29838WAT     H189756   1.175   5.027   1.966
29838WAT     H289757   1.193   4.902   1.862
29839WAT      O89758   0.012   4.335   6.604
29839WAT     H189759  -0.003   4.355   6.701
29839WAT     H289760   0.034   4.419   6.555
29840WAT      O89761   1.129   0.339   5.941
29840WAT     H189762   1.140   0.387   6.028
29840WAT     H289763   1.107   0.405   5.869
29841WAT      O89764   4.127   1.009   2.023
29841WAT     H189765   4.071   0.959   2.090
29841WAT     H289766   4.072   1.031   1.943
29842WAT      O89767   2.539   3.100   4.863
29842WAT     H189768   2.558   3.044   4.782
29842WAT     H289769   2.616   3.096   4.926
29843WAT      O89770   0.381   4.645   3.649
29843WAT     H189771   0.408   4.706   3.722
29843WAT     H289772   0.299   4.680   3.604
29844WAT      O89773   2.770   9.220   0.444
29844WAT     H189774   2.745   9.238   0.348
29844WAT     H289775   2.733   9.132   0.472
29845WAT      O89776   6.823   0.432   8.463
29845WAT     H189777   6.868   0.360   8.410
29845WAT     H289778   6.866   0.520   8.442
29846WAT      O89779   6.112   6.988   9.309
29846WAT     H189780   6.139   6.960   9.217
29846WAT     H289781   6.180   7.051   9.346
29847WAT      O89782   3.681   4.213   2.632
29847WAT     H189783   3.668   4.132   2.575
29847WAT     H289784   3.744   4.276   2.586
29848WAT      O89785   8.581   7.245   3.118
29848WAT     H189786   8.606   7.283   3.029
29848WAT     H289787   8.595   7.314   3.189
29849WAT      O89788   8.013   9.691   3.253
29849WAT     H189789   7.932   9.748   3.240
29849WAT     H289790   8.027   9.675   3.350
29850WAT      O89791   1.525   1.086   0.888
29850WAT     H189792   1.482   1.133   0.811
29850WAT     H289793   1.498   1.129   0.973
29851WAT      O89794   8.105   8.635   6.311
29851WAT     H189795   8.036   8.597   6.372
29851WAT     H289796   8.083   8.612   6.216
29852WAT      O89797   5.390   1.552   1.964
29852WAT     H189798   5.468   1.511   1.916
29852WAT     H289799   5.420   1.635   2.011
29853WAT      O89800   5.713   7.423   3.624
29853WAT     H189801   5.670   7.373   3.699
29853WAT     H289802   5.770   7.361   3.571
29854WAT      O89803   2.950   4.633   3.536
29854WAT     H189804   2.925   4.630   3.439
29854WAT     H289805   2.872   4.604   3.591
29855WAT      O89806   2.067   0.469   4.154
29855WAT     H189807   2.059   0.471   4.253
29855WAT     H289808   2.130   0.541   4.124
29856WAT      O89809   3.595   6.744   7.636
29856WAT     H189810   3.611   6.675   7.566
29856WAT     H289811   3.498   6.743   7.662
29857WAT      O89812   2.253   3.995   8.007
29857WAT     H189813   2.180   3.971   8.071
29857WAT     H289814   2.243   3.943   7.923
29858WAT      O89815   6.401   2.582   0.682
29858WAT     H189816   6.456   2.523   0.622
29858WAT     H289817   6.433   2.573   0.776
29859WAT      O89818   8.264   6.184   1.056
29859WAT     H189819   8.233   6.227   0.972
29859WAT     H289820   8.206   6.105   1.076
29860WAT      O89821   7.727   5.223   4.144
29860WAT     H189822   7.753   5.237   4.049
29860WAT     H289823   7.797   5.260   4.204
29861WAT      O89824   3.979   2.175   4.662
29861WAT     H189825   3.903   2.160   4.599
29861WAT     H289826   3.997   2.273   4.670
29862WAT      O89827   0.724   3.171   2.852
29862WAT     H189828   0.785   3.143   2.778
29862WAT     H289829   0.695   3.266   2.837
29863WAT      O89830   8.667   2.445   1.918
29863WAT     H189831   8.754   2.482   1.950
29863WAT     H289832   8.683   2.360   1.868
29864WAT      O89833   7.866   8.599   2.849
29864WAT     H189834   7.907   8.685   2.879
29864WAT     H289835   7.831   8.549   2.929
29865WAT      O89836   5.246   5.098   2.834
29865WAT     H189837   5.250   5.186   2.788
29865WAT     H289838   5.240   5.112   2.933
29866WAT      O89839   1.855   7.156   3.550
29866WAT     H189840   1.817   7.163   3.458
29866WAT     H289841   1.835   7.066   3.588
29867WAT      O89842   0.736   3.328   5.570
29867WAT     H189843   0.735   3.347   5.472
29867WAT     H289844   0.808   3.261   5.589
29868WAT      O89845   3.992   2.126   0.865
29868WAT     H189846   3.981   2.081   0.776
29868WAT     H289847   4.083   2.104   0.902
29869WAT      O89848   3.843   0.419   5.448
29869WAT     H189849   3.842   0.510   5.488
29869WAT     H289850   3.821   0.425   5.350
29870WAT      O89851   5.777   8.934   0.395
29870WAT     H189852   5.787   8.957   0.298
29870WAT     H289853   5.682   8.909   0.413
29871WAT      O89854   1.120   9.407   1.345
29871WAT     H189855   1.119   9.323   1.399
29871WAT     H289856   1.036   9.459   1.363
29872WAT      O89857   2.840   1.145   7.016
29872WAT     H189858   2.921   1.187   7.056
29872WAT     H289859   2.869   1.075   6.950
29873WAT      O89860   0.785   5.789   5.863
29873WAT     H189861   0.755   5.883   5.878
29873WAT     H289862   0.705   5.730   5.855
29874WAT      O89863   7.045   0.193   7.727
29874WAT     H189864   6.961   0.211   7.676
29874WAT     H289865   7.035   0.106   7.776
29875WAT      O89866   6.064   2.214   7.898
29875WAT     H189867   5.990   2.227   7.832
29875WAT     H289868   6.028   2.173   7.982
29876WAT      O89869   1.926   9.550   6.255
29876WAT     H189870   1.961   9.529   6.346
29876WAT     H289871   1.888   9.467   6.213
29877WAT      O89872   4.540   5.124   7.219
29877WAT     H189873   4.568   5.216   7.247
29877WAT     H289874   4.533   5.066   7.300
29878WAT      O89875   5.190   5.876   6.085
29878WAT     H189876   5.200   5.776   6.085
29878WAT     H289877   5.123   5.903   6.015
29879WAT      O89878   0.042   3.417   0.514
29879WAT     H189879   0.042   3.318   0.504
29879WAT     H289880   0.083   3.459   0.432
29880WAT      O89881   0.503   2.775   8.421
29880WAT     H189882   0.515   2.782   8.322
29880WAT     H289883   0.456   2.857   8.454
29881WAT      O89884   8.944   9.080   4.660
29881WAT     H189885   8.974   8.985   4.655
29881WAT     H289886   8.850   9.084   4.694
29882WAT      O89887   1.765   9.463   4.134
29882WAT     H189888   1.695   9.446   4.204
29882WAT     H289889   1.809   9.551   4.152
29883WAT      O89890   0.649   1.083   4.552
29883WAT     H189891   0.632   1.060   4.648
29883WAT     H289892   0.731   1.140   4.546
29884WAT      O89893   9.775   3.651   2.605
29884WAT     H189894   9.816   3.582   2.546
29884WAT     H289895   9.829   3.735   2.602
29885WAT      O89896   6.031   0.236   4.560
29885WAT     H189897   6.024   0.142   4.528
29885WAT     H289898   6.119   0.250   4.605
29886WAT      O89899   6.449   7.439   2.972
29886WAT     H189900   6.480   7.498   3.046
29886WAT     H289901   6.367   7.478   2.931
29887WAT      O89902   5.778   2.461   2.779
29887WAT     H189903   5.813   2.370   2.756
29887WAT     H289904   5.703   2.483   2.717
29888WAT      O89905   7.428   7.476   9.043
29888WAT     H189906   7.342   7.454   8.999
29888WAT     H289907   7.465   7.561   9.004
29889WAT      O89908   8.331   3.523   6.674
29889WAT     H189909   8.307   3.430   6.702
29889WAT     H289910   8.409   3.520   6.610
29890WAT      O89911   1.644   2.461   2.138
29890WAT     H189912   1.642   2.369   2.101
29890WAT     H289913   1.739   2.491   2.150
29891WAT      O89914   8.344   5.543   3.421
29891WAT     H189915   8.258   5.578   3.458
29891WAT     H289916   8.335   5.530   3.322
29892WAT      O89917   6.506   4.948   0.198
29892WAT     H189918   6.501   4.874   0.265
29892WAT     H289919   6.459   4.921   0.114
29893WAT      O89920   3.700   2.869   1.028
29893WAT     H189921   3.623   2.865   1.091
29893WAT     H289922   3.741   2.777   1.019
29894WAT      O89923   6.713   6.516   6.626
29894WAT     H189924   6.614   6.520   6.627
29894WAT     H289925   6.744   6.476   6.540
29895WAT      O89926   0.744   9.805   2.664
29895WAT     H189927   0.765   9.819   2.761
29895WAT     H289928   0.814   9.850   2.608
29896WAT      O89929   6.780   7.966   2.354
29896WAT     H189930   6.729   8.018   2.286
29896WAT     H289931   6.778   8.013   2.442
29897WAT      O89932   2.670   3.588   8.748
29897WAT     H189933   2.740   3.635   8.693
29897WAT     H289934   2.645   3.646   8.826
29898WAT      O89935   9.486   7.834   0.861
29898WAT     H189936   9.575   7.842   0.906
29898WAT     H289937   9.461   7.922   0.820
29899WAT      O89938   5.033   0.314   9.234
29899WAT     H189939   5.104   0.380   9.259
29899WAT     H289940   4.947   0.362   9.217
29900WAT      O89941   2.609   3.933   5.894
29900WAT     H189942   2.570   3.847   5.929
29900WAT     H289943   2.586   3.942   5.797
29901WAT      O89944   5.209   6.624   8.549
29901WAT     H189945   5.133   6.657   8.604
29901WAT     H289946   5.185   6.536   8.509
29902WAT      O89947   0.521   9.684   0.970
29902WAT     H189948   0.547   9.705   1.064
29902WAT     H289949   0.454   9.609   0.970
29903WAT      O89950   4.162   4.716   7.446
29903WAT     H189951   4.135   4.751   7.357
29903WAT     H289952   4.082   4.678   7.493
29904WAT      O89953   8.233   7.575   2.474
29904WAT     H189954   8.297   7.530   2.412
29904WAT     H289955   8.265   7.566   2.568
29905WAT      O89956   0.718   6.178   0.026
29905WAT     H189957   0.695   6.113   0.098
29905WAT     H289958   0.653   6.168  -0.050
29906WAT      O89959   1.454   2.152   1.911
29906WAT     H189960   1.381   2.213   1.944
29906WAT     H289961   1.538   2.170   1.961
29907WAT      O89962   5.886   1.873   4.855
29907WAT     H189963   5.971   1.913   4.822
29907WAT     H289964   5.888   1.867   4.954
29908WAT      O89965   6.074   1.825   9.213
29908WAT     H189966   6.057   1.888   9.289
29908WAT     H289967   6.088   1.878   9.129
29909WAT      O89968   4.087   4.663   0.356
29909WAT     H189969   4.176   4.650   0.312
29909WAT     H289970   4.023   4.701   0.290
29910WAT      O89971   8.174   5.016   2.270
29910WAT     H189972   8.172   5.114   2.288
29910WAT     H289973   8.266   4.981   2.289
29911WAT      O89974   6.546   7.528   3.213
29911WAT     H189975   6.599   7.445   3.197
29911WAT     H289976   6.600   7.592   3.268
29912WAT      O89977   7.475   2.065   6.172
29912WAT     H189978   7.439   1.994   6.234
29912WAT     H289979   7.459   2.155   6.212
29913WAT      O89980   5.770   0.824   7.163
29913WAT     H189981   5.706   0.757   7.200
29913WAT     H289982   5.833   0.779   7.100
29914WAT      O89983   7.234   7.939   8.609
29914WAT     H189984   7.241   8.012   8.677
29914WAT     H289985   7.174   7.867   8.643
29915WAT      O89986   6.583   0.370   1.206
29915WAT     H189987   6.512   0.301   1.193
29915WAT     H289988   6.542   0.455   1.238
29916WAT      O89989   6.621   2.949   6.640
29916WAT     H189990   6.674   2.974   6.559
29916WAT     H289991   6.594   3.031   6.690
29917WAT      O89992   4.996   6.863   6.801
29917WAT     H189993   5.067   6.925   6.769
29917WAT     H289994   4.950   6.902   6.880
29918WAT      O89995   7.475   1.104   8.914
29918WAT     H189996   7.419   1.036   8.867
29918WAT     H289997   7.448   1.195   8.885
29919WAT      O89998   6.510   5.555   0.271
29919WAT     H189999   6.512   5.651   0.244
29919WAT     H290000   6.446   5.543   0.347
29920WAT      O90001   2.859   2.849   4.205
29920WAT     H190002   2.900   2.861   4.115
29920WAT     H290003   2.810   2.762   4.208
29921WAT      O90004   7.683   4.368   4.759
29921WAT     H190005   7.675   4.443   4.694
29921WAT     H290006   7.777   4.333   4.758
29922WAT      O90007   1.697   2.211   2.073
29922WAT     H190008   1.781   2.180   2.027
29922WAT     H290009   1.682   2.156   2.155
29923WAT      O90010   8.570   1.151   8.152
29923WAT     H190011   8.668   1.170   8.157
29923WAT     H290012   8.529   1.160   8.243
29924WAT      O90013   5.111   8.118   0.180
29924WAT     H190014   5.054   8.038   0.198
29924WAT     H290015   5.064   8.179   0.116
29925WAT      O90016   3.898   5.653   1.981
29925WAT     H190017   3.968   5.717   2.013
29925WAT     H290018   3.887   5.661   1.882
29926WAT      O90019   6.283   1.817   4.189
29926WAT     H190020   6.283   1.858   4.098
29926WAT     H290021   6.190   1.810   4.223
29927WAT      O90022   1.781   7.757   2.000
29927WAT     H190023   1.839   7.682   2.031
29927WAT     H290024   1.836   7.822   1.946
29928WAT      O90025   1.724   6.442   4.231
29928WAT     H190026   1.725   6.480   4.323
29928WAT     H290027   1.817   6.415   4.205
29929WAT      O90028   3.568   8.026   7.196
29929WAT     H190029   3.582   7.940   7.247
29929WAT     H290030   3.503   8.010   7.122
29930WAT      O90031   2.484   9.064   3.203
29930WAT     H190032   2.469   9.129   3.277
29930WAT     H290033   2.450   8.974   3.229
29931WAT      O90034   1.456   8.130   1.696
29931WAT     H190035   1.507   8.177   1.623
29931WAT     H290036   1.517   8.065   1.742
29932WAT      O90037   9.490   3.971   6.175
29932WAT     H190038   9.403   4.011   6.203
29932WAT     H290039   9.560   4.042   6.171
29933WAT      O90040   4.631   7.594   0.446
29933WAT     H190041   4.590   7.685   0.436
29933WAT     H290042   4.641   7.552   0.356
29934WAT      O90043   7.922   5.033   3.821
29934WAT     H190044   7.914   4.934   3.832
29934WAT     H290045   7.992   5.053   3.752
29935WAT      O90046   0.128   9.727   3.241
29935WAT     H190047   0.129   9.671   3.324
29935WAT     H290048   0.103   9.821   3.265
29936WAT      O90049   6.238   9.388   4.703
29936WAT     H190050   6.142   9.412   4.710
29936WAT     H290051   6.286   9.455   4.645
29937WAT      O90052   9.454   5.813   9.276
29937WAT     H190053   9.461   5.835   9.178
29937WAT     H290054   9.379   5.749   9.289
29938WAT      O90055   7.951   7.277   0.750
29938WAT     H190056   7.861   7.286   0.707
29938WAT     H290057   7.945   7.213   0.827
29939WAT      O90058   6.302   2.588   6.049
29939WAT     H190059   6.325   2.679   6.015
29939WAT     H290060   6.300   2.589   6.149
29940WAT      O90061   0.789   7.939   1.974
29940WAT     H190062   0.742   7.918   2.059
29940WAT     H290063   0.882   7.901   1.977
29941WAT      O90064   6.306   9.761   4.679
29941WAT     H190065   6.377   9.711   4.631
29941WAT     H290066   6.333   9.857   4.688
29942WAT      O90067   7.697   3.469   3.682
29942WAT     H190068   7.622   3.490   3.745
29942WAT     H290069   7.708   3.370   3.675
29943WAT      O90070   2.580   1.519   1.650
29943WAT     H190071   2.675   1.488   1.656
29943WAT     H290072   2.535   1.506   1.739
29944WAT      O90073   3.438   6.035   5.849
29944WAT     H190074   3.505   6.011   5.920
29944WAT     H290075   3.457   6.127   5.814
29945WAT      O90076   8.599   5.089   4.581
29945WAT     H190077   8.665   5.024   4.617
29945WAT     H290078   8.646   5.169   4.545
29946WAT      O90079   7.153   9.476   3.681
29946WAT     H190080   7.196   9.491   3.592
29946WAT     H290081   7.136   9.378   3.694
29947WAT      O90082   1.367   8.084   7.990
29947WAT     H190083   1.312   8.118   8.067
29947WAT     H290084   1.365   8.152   7.917
29948WAT      O90085   0.588   0.619   1.567
29948WAT     H190086   0.653   0.556   1.525
29948WAT     H290087   0.529   0.568   1.630
29949WAT      O90088   6.475   1.347   7.486
29949WAT     H190089   6.535   1.277   7.525
29949WAT     H290090   6.516   1.437   7.499
29950WAT      O90091   1.523   8.542   7.431
29950WAT     H190092   1.548   8.606   7.359
29950WAT     H290093   1.454   8.584   7.491
29951WAT      O90094   3.191   3.591   8.216
29951WAT     H190095   3.182   3.518   8.149
29951WAT     H290096   3.287   3.599   8.244
29952WAT      O90097   8.966   3.988   9.693
29952WAT     H190098   8.945   3.907   9.747
29952WAT     H290099   8.973   3.964   9.596
29953WAT      O90100   2.276   1.630   9.658
29953WAT     H190101   2.270   1.530   9.656
29953WAT     H290102   2.357   1.658   9.709
29954WAT      O90103   7.901   1.406   3.403
29954WAT     H190104   7.830   1.339   3.423
29954WAT     H290105   7.969   1.365   3.342
29955WAT      O90106   6.936   9.776   7.384
29955WAT     H190107   6.967   9.870   7.372
29955WAT     H290108   6.881   9.749   7.305
29956WAT      O90109   7.534   4.182   9.388
29956WAT     H190110   7.558   4.090   9.360
29956WAT     H290111   7.492   4.231   9.311
29957WAT      O90112   7.247   9.659   3.856
29957WAT     H190113   7.207   9.588   3.798
29957WAT     H290114   7.304   9.617   3.926
29958WAT      O90115   1.828   4.327   4.827
29958WAT     H190116   1.907   4.377   4.793
29958WAT     H290117   1.748   4.387   4.827
29959WAT      O90118   3.138   7.438   4.880
29959WAT     H190119   3.234   7.421   4.902
29959WAT     H290120   3.080   7.393   4.948
29960WAT      O90121   3.515   2.883   1.240
29960WAT     H190122   3.441   2.947   1.218
29960WAT     H290123   3.477   2.797   1.273
29961WAT      O90124   6.826   0.194   4.623
29961WAT     H190125   6.734   0.159   4.642
29961WAT     H290126   6.891   0.118   4.627
29962WAT      O90127   3.031   9.361   0.120
29962WAT     H190128   3.013   9.273   0.164
29962WAT     H290129   3.127   9.366   0.094
29963WAT      O90130   7.148   2.004   7.948
29963WAT     H190131   7.161   1.906   7.942
29963WAT     H290132   7.050   2.025   7.946
29964WAT      O90133   4.377   1.497   9.772
29964WAT     H190134   4.289   1.545   9.770
29964WAT     H290135   4.373   1.417   9.713
29965WAT      O90136   8.465   6.048   2.284
29965WAT     H190137   8.540   6.058   2.349
29965WAT     H290138   8.495   6.079   2.193
29966WAT      O90139   9.619   1.091   0.712
29966WAT     H190140   9.582   1.166   0.766
29966WAT     H290141   9.636   1.121   0.619
29967WAT      O90142   9.064   6.332   5.021
29967WAT     H190143   9.150   6.356   4.976
29967WAT     H290144   9.056   6.382   5.107
29968WAT      O90145   4.255   1.488   3.593
29968WAT     H190146   4.241   1.481   3.692
29968WAT     H290147   4.282   1.582   3.570
29969WAT      O90148   7.518   0.258   1.665
29969WAT     H190149   7.440   0.306   1.626
29969WAT     H290150   7.509   0.160   1.647
29970WAT      O90151   6.087   2.183   5.558
29970WAT     H190152   6.071   2.089   5.587
29970WAT     H290153   6.166   2.220   5.607
29971WAT      O90154   7.013   2.719   5.690
29971WAT     H190155   7.003   2.818   5.704
29971WAT     H290156   6.924   2.675   5.696
29972WAT      O90157   2.051   8.950   4.560
29972WAT     H190158   2.122   8.901   4.510
29972WAT     H290159   2.005   9.014   4.499
29973WAT      O90160   6.887   0.516   4.118
29973WAT     H190161   6.863   0.611   4.140
29973WAT     H290162   6.986   0.505   4.123
29974WAT      O90163   6.515   7.479   4.636
29974WAT     H190164   6.547   7.480   4.731
29974WAT     H290165   6.590   7.507   4.576
29975WAT      O90166   7.649   1.858   7.209
29975WAT     H190167   7.616   1.940   7.161
29975WAT     H290168   7.588   1.839   7.286
29976WAT      O90169   8.105   2.760   4.036
29976WAT     H190170   8.063   2.843   4.075
29976WAT     H290171   8.204   2.764   4.050
29977WAT      O90172   2.880   2.351   7.045
29977WAT     H190173   2.805   2.291   7.071
29977WAT     H290174   2.930   2.379   7.127
29978WAT      O90175   4.041   7.711   1.239
29978WAT     H190176   4.113   7.697   1.307
29978WAT     H290177   4.019   7.624   1.194
29979WAT      O90178   6.262   3.796   1.573
29979WAT     H190179   6.210   3.757   1.497
29979WAT     H290180   6.360   3.789   1.553
29980WAT      O90181   4.290   0.293   6.854
29980WAT     H190182   4.300   0.209   6.800
29980WAT     H290183   4.238   0.273   6.937
29981WAT      O90184   8.520   8.163   0.007
29981WAT     H190185   8.456   8.160  -0.070
29981WAT     H290186   8.500   8.088   0.070
29982WAT      O90187   3.573   1.167   4.549
29982WAT     H190188   3.660   1.172   4.499
29982WAT     H290189   3.563   1.249   4.605
29983WAT      O90190   2.591   8.456   3.461
29983WAT     H190191   2.611   8.541   3.510
29983WAT     H290192   2.581   8.381   3.527
29984WAT      O90193   2.505   1.159   1.582
29984WAT     H190194   2.579   1.092   1.577
29984WAT     H290195   2.519   1.230   1.513
29985WAT      O90196   3.815   2.491   5.488
29985WAT     H190197   3.747   2.564   5.483
29985WAT     H290198   3.898   2.524   5.531
29986WAT      O90199   4.828   3.600   8.901
29986WAT     H190200   4.827   3.544   8.984
29986WAT     H290201   4.916   3.588   8.854
29987WAT      O90202   7.529   1.466   1.706
29987WAT     H190203   7.578   1.423   1.630
29987WAT     H290204   7.431   1.449   1.696
29988WAT      O90205   2.229   7.049   1.526
29988WAT     H190206   2.132   7.066   1.542
29988WAT     H290207   2.266   6.991   1.599
29989WAT      O90208   3.168   8.279   5.790
29989WAT     H190209   3.223   8.202   5.824
29989WAT     H290210   3.075   8.248   5.774
29990WAT      O90211   0.989   5.712   2.400
29990WAT     H190212   1.026   5.642   2.339
29990WAT     H290213   0.991   5.801   2.355
29991WAT      O90214   3.404   3.651   5.419
29991WAT     H190215   3.429   3.627   5.513
29991WAT     H290216   3.483   3.691   5.372
29992WAT      O90217   5.921   4.091   2.528
29992WAT     H190218   5.937   4.003   2.483
29992WAT     H290219   6.008   4.136   2.547
29993WAT      O90220   5.455   9.486   0.104
29993WAT     H190221   5.426   9.517   0.014
29993WAT     H290222   5.540   9.434   0.095
29994WAT      O90223   2.120   3.795   6.516
29994WAT     H190224   2.195   3.729   6.527
29994WAT     H290225   2.153   3.873   6.462
29995WAT      O90226   1.729   0.530   8.408
29995WAT     H190227   1.769   0.441   8.429
29995WAT     H290228   1.633   0.517   8.381
29996WAT      O90229   8.039   3.257   2.707
29996WAT     H190230   8.101   3.271   2.784
29996WAT     H290231   8.086   3.279   2.621
29997WAT      O90232   7.266   9.340   9.261
29997WAT     H190233   7.275   9.382   9.170
29997WAT     H290234   7.171   9.350   9.292
29998WAT      O90235   8.159   9.241   9.330
29998WAT     H190236   8.165   9.325   9.275
29998WAT     H290237   8.225   9.175   9.295
29999WAT      O90238   6.894   5.460   3.495
29999WAT     H190239   6.868   5.542   3.445
29999WAT     H290240   6.967   5.482   3.560
30000WAT      O90241   8.203   9.510   9.655
30000WAT     H190242   8.173   9.559   9.737
30000WAT     H290243   8.296   9.537   9.631
30001WAT      O90244   9.805   9.436   6.520
30001WAT     H190245   9.896   9.407   6.489
30001WAT     H290246   9.816   9.496   6.600
30002WAT      O90247   5.231   2.015   8.455
30002WAT     H190248   5.218   2.007   8.554
30002WAT     H290249   5.327   2.039   8.436
30003WAT      O90250   2.990   3.013   0.064
30003WAT     H190251   3.008   2.929   0.116
30003WAT     H290252   3.077   3.048   0.027
30004WAT      O90253   4.228   3.339   5.319
30004WAT     H190254   4.164   3.365   5.390
30004WAT     H290255   4.302   3.407   5.314
30005WAT      O90256   5.225   0.647   8.727
30005WAT     H190257   5.249   0.740   8.698
30005WAT     H290258   5.196   0.649   8.822
30006WAT      O90259   8.603   4.254   4.786
30006WAT     H190260   8.665   4.263   4.864
30006WAT     H290261   8.512   4.226   4.818
30007WAT      O90262   3.042   7.990   2.516
30007WAT     H190263   3.141   7.984   2.527
30007WAT     H290264   3.013   7.933   2.440
30008WAT      O90265   5.738   9.424   3.926
30008WAT     H190266   5.816   9.384   3.975
30008WAT     H290267   5.671   9.457   3.993
30009WAT      O90268   7.616   6.627   1.589
30009WAT     H190269   7.683   6.655   1.520
30009WAT     H290270   7.525   6.627   1.549
30010WAT      O90271   0.780   8.291   4.122
30010WAT     H190272   0.701   8.249   4.077
30010WAT     H290273   0.803   8.240   4.204
30011WAT      O90274   3.935   0.993   7.785
30011WAT     H190275   3.859   1.057   7.794
30011WAT     H290276   3.901   0.904   7.753
30012WAT      O90277   2.519   1.475   3.350
30012WAT     H190278   2.593   1.426   3.303
30012WAT     H290279   2.482   1.546   3.289
30013WAT      O90280   4.254   2.061   7.495
30013WAT     H190281   4.185   2.088   7.428
30013WAT     H290282   4.273   2.139   7.556
30014WAT      O90283   4.932   8.926   7.417
30014WAT     H190284   4.866   8.957   7.348
30014WAT     H290285   5.004   8.994   7.426
30015WAT      O90286   5.977   3.944   9.420
30015WAT     H190287   6.027   4.000   9.487
30015WAT     H290288   5.988   3.984   9.329
30016WAT      O90289   4.855   8.939   5.388
30016WAT     H190290   4.856   8.874   5.464
30016WAT     H290291   4.770   8.928   5.336
30017WAT      O90292   0.956   0.006   2.240
30017WAT     H190293   0.979  -0.067   2.305
30017WAT     H290294   0.971   0.095   2.284
30018WAT      O90295   5.472   1.690   6.354
30018WAT     H190296   5.568   1.690   6.382
30018WAT     H290297   5.414   1.694   6.435
30019WAT      O90298   3.870   0.399   5.941
30019WAT     H190299   3.849   0.446   5.856
30019WAT     H290300   3.969   0.401   5.957
30020WAT      O90301   0.636   2.323   0.808
30020WAT     H190302   0.593   2.413   0.795
30020WAT     H290303   0.735   2.333   0.808
30021WAT      O90304   0.341   5.720   2.871
30021WAT     H190305   0.336   5.694   2.968
30021WAT     H290306   0.405   5.660   2.824
30022WAT      O90307   1.976   3.903   3.422
30022WAT     H190308   1.975   3.993   3.465
30022WAT     H290309   1.966   3.833   3.492
30023WAT      O90310   8.632   6.314   8.182
30023WAT     H190311   8.595   6.230   8.221
30023WAT     H290312   8.650   6.301   8.085
30024WAT      O90313   5.015   0.332   9.868
30024WAT     H190314   4.983   0.309   9.775
30024WAT     H290315   4.983   0.263   9.932
30025WAT      O90316   8.604   3.841   1.728
30025WAT     H190317   8.546   3.861   1.806
30025WAT     H290318   8.688   3.896   1.732
30026WAT      O90319   8.303   3.742   3.560
30026WAT     H190320   8.345   3.832   3.567
30026WAT     H290321   8.369   3.672   3.587
30027WAT      O90322   6.316   6.129   9.845
30027WAT     H190323   6.220   6.139   9.818
30027WAT     H290324   6.322   6.114   9.943
30028WAT      O90325   3.256   4.446   5.745
30028WAT     H190326   3.161   4.417   5.756
30028WAT     H290327   3.294   4.403   5.663
30029WAT      O90328   6.164   2.168   8.395
30029WAT     H190329   6.218   2.091   8.429
30029WAT     H290330   6.141   2.154   8.299
30030WAT      O90331   7.355   9.583   6.238
30030WAT     H190332   7.379   9.540   6.325
30030WAT     H290333   7.436   9.584   6.179
30031WAT      O90334   2.820   4.097   1.388
30031WAT     H190335   2.876   4.145   1.455
30031WAT     H290336   2.724   4.098   1.418
30032WAT      O90337   1.309   1.499   9.158
30032WAT     H190338   1.276   1.547   9.077
30032WAT     H290339   1.232   1.475   9.217
30033WAT      O90340   5.714   3.090   2.790
30033WAT     H190341   5.679   3.179   2.820
30033WAT     H290342   5.698   3.080   2.692
30034WAT      O90343   0.305   4.152   0.188
30034WAT     H190344   0.347   4.181   0.275
30034WAT     H290345   0.212   4.187   0.184
30035WAT      O90346   7.179   4.629   1.167
30035WAT     H190347   7.265   4.679   1.183
30035WAT     H290348   7.107   4.670   1.223
30036WAT      O90349   7.146   6.879   4.415
30036WAT     H190350   7.111   6.861   4.506
30036WAT     H290351   7.100   6.959   4.376
30037WAT      O90352   3.141   8.164   4.291
30037WAT     H190353   3.160   8.182   4.387
30037WAT     H290354   3.177   8.239   4.235
30038WAT      O90355   3.287   7.277   6.957
30038WAT     H190356   3.280   7.243   6.864
30038WAT     H290357   3.383   7.291   6.981
30039WAT      O90358   8.966   9.139   3.483
30039WAT     H190359   9.010   9.217   3.439
30039WAT     H290360   8.905   9.094   3.418
30040WAT      O90361   9.214   9.417   3.782
30040WAT     H190362   9.272   9.336   3.772
30040WAT     H290363   9.218   9.472   3.699
30041WAT      O90364   6.795   1.667   5.690
30041WAT     H190365   6.871   1.651   5.754
30041WAT     H290366   6.807   1.756   5.646
30042WAT      O90367   7.868   0.605   6.410
30042WAT     H190368   7.815   0.661   6.345
30042WAT     H290369   7.942   0.559   6.361
30043WAT      O90370   1.530   3.906   0.260
30043WAT     H190371   1.508   3.971   0.187
30043WAT     H290372   1.529   3.955   0.348
30044WAT      O90373   3.842   1.330   8.047
30044WAT     H190374   3.776   1.305   7.976
30044WAT     H290375   3.928   1.359   8.005
30045WAT      O90376   1.895   0.429   5.984
30045WAT     H190377   1.897   0.365   6.061
30045WAT     H290378   1.821   0.403   5.922
30046WAT      O90379   3.716   7.898   4.964
30046WAT     H190380   3.809   7.880   4.993
30046WAT     H290381   3.717   7.955   4.882
30047WAT      O90382   7.837   1.633   8.287
30047WAT     H190383   7.802   1.645   8.380
30047WAT     H290384   7.777   1.680   8.222
30048WAT      O90385   9.264   8.134   6.097
30048WAT     H190386   9.183   8.158   6.150
30048WAT     H290387   9.237   8.076   6.019
30049WAT      O90388   5.212  -0.003   7.973
30049WAT     H190389   5.235   0.034   8.063
30049WAT     H290390   5.178   0.070   7.914
30050WAT      O90391   6.408   5.279   1.022
30050WAT     H190392   6.483   5.344   1.013
30050WAT     H290393   6.349   5.307   1.098
30051WAT      O90394   2.716   2.836   8.896
30051WAT     H190395   2.669   2.750   8.877
30051WAT     H290396   2.815   2.821   8.890
30052WAT      O90397   2.631   6.005   7.838
30052WAT     H190398   2.707   5.996   7.903
30052WAT     H290399   2.606   5.915   7.803
30053WAT      O90400   4.836   3.178   6.014
30053WAT     H190401   4.768   3.251   6.002
30053WAT     H290402   4.791   3.089   6.009
30054WAT      O90403   7.450   4.525   3.041
30054WAT     H190404   7.497   4.561   3.122
30054WAT     H290405   7.372   4.583   3.019
30055WAT      O90406   2.413   9.249   7.590
30055WAT     H190407   2.388   9.196   7.671
30055WAT     H290408   2.499   9.216   7.553
30056WAT      O90409   8.612   7.775   3.317
30056WAT     H190410   8.523   7.757   3.359
30056WAT     H290411   8.681   7.789   3.388
30057WAT      O90412   8.713   6.479   3.770
30057WAT     H190413   8.712   6.468   3.670
30057WAT     H290414   8.620   6.491   3.803
30058WAT      O90415   4.971   4.681   9.442
30058WAT     H190416   4.976   4.740   9.362
30058WAT     H290417   5.037   4.607   9.433
30059WAT      O90418   5.584   3.653   6.033
30059WAT     H190419   5.628   3.725   5.979
30059WAT     H290420   5.492   3.682   6.059
30060WAT      O90421   3.994   4.898   1.839
30060WAT     H190422   3.897   4.912   1.858
30060WAT     H290423   4.016   4.933   1.748
30061WAT      O90424   5.705   2.006   5.480
30061WAT     H190425   5.614   1.969   5.500
30061WAT     H290426   5.728   2.077   5.547
30062WAT      O90427   4.927   2.895   1.524
30062WAT     H190428   4.858   2.961   1.554
30062WAT     H290429   4.884   2.806   1.508
30063WAT      O90430   7.921   7.849   0.891
30063WAT     H190431   7.906   7.872   0.987
30063WAT     H290432   7.991   7.778   0.884
30064WAT      O90433   6.494   5.053   0.902
30064WAT     H190434   6.552   5.134   0.903
30064WAT     H290435   6.415   5.068   0.962
30065WAT      O90436   1.448   3.837   2.944
30065WAT     H190437   1.443   3.884   3.032
30065WAT     H290438   1.360   3.845   2.897
30066WAT      O90439   5.671   8.380   5.277
30066WAT     H190440   5.710   8.333   5.356
30066WAT     H290441   5.579   8.345   5.260
30067WAT      O90442   4.823   6.657   3.578
30067WAT     H190443   4.898   6.714   3.545
30067WAT     H290444   4.757   6.642   3.504
30068WAT      O90445   2.373   9.155   8.832
30068WAT     H190446   2.357   9.216   8.910
30068WAT     H290447   2.309   9.079   8.835
30069WAT      O90448   0.199   8.484   7.589
30069WAT     H190449   0.186   8.522   7.681
30069WAT     H290450   0.260   8.544   7.537
30070WAT      O90451   1.706   8.867   4.206
30070WAT     H190452   1.714   8.805   4.127
30070WAT     H290453   1.729   8.818   4.290
30071WAT      O90454   1.302   7.284   8.951
30071WAT     H190455   1.349   7.369   8.926
30071WAT     H290456   1.304   7.272   9.050
30072WAT      O90457   7.034   7.748   2.597
30072WAT     H190458   7.056   7.829   2.542
30072WAT     H290459   7.010   7.672   2.536
30073WAT      O90460   1.742   8.317   5.350
30073WAT     H190461   1.728   8.322   5.251
30073WAT     H290462   1.837   8.335   5.371
30074WAT      O90463   0.410   3.036   4.994
30074WAT     H190464   0.316   3.020   5.024
30074WAT     H290465   0.430   2.982   4.912
30075WAT      O90466   4.628   3.176   1.466
30075WAT     H190467   4.670   3.144   1.382
30075WAT     H290468   4.674   3.136   1.545
30076WAT      O90469   1.863   1.310   3.988
30076WAT     H190470   1.764   1.314   3.975
30076WAT     H290471   1.908   1.322   3.899
30077WAT      O90472   6.159   7.288   8.593
30077WAT     H190473   6.222   7.334   8.530
30077WAT     H290474   6.164   7.331   8.683
30078WAT      O90475   1.789   4.189   6.642
30078WAT     H190476   1.848   4.108   6.636
30078WAT     H290477   1.837   4.268   6.606
30079WAT      O90478   8.737   5.046   5.426
30079WAT     H190479   8.817   5.104   5.443
30079WAT     H290480   8.697   5.019   5.514
30080WAT      O90481   2.528   1.609   9.834
30080WAT     H190482   2.501   1.629   9.928
30080WAT     H290483   2.534   1.694   9.782
30081WAT      O90484   9.423   7.181   3.788
30081WAT     H190485   9.359   7.105   3.790
30081WAT     H290486   9.452   7.199   3.693
30082WAT      O90487   4.254   9.553   1.938
30082WAT     H190488   4.188   9.579   1.867
30082WAT     H290489   4.208   9.496   2.006
30083WAT      O90490   3.616   2.330   7.212
30083WAT     H190491   3.562   2.388   7.274
30083WAT     H290492   3.567   2.245   7.195
30084WAT      O90493   3.631   4.256   5.827
30084WAT     H190494   3.557   4.293   5.883
30084WAT     H290495   3.717   4.260   5.878
30085WAT      O90496   4.872   8.132   1.834
30085WAT     H190497   4.819   8.057   1.875
30085WAT     H290498   4.814   8.185   1.774
30086WAT      O90499   7.705   4.959   3.255
30086WAT     H190500   7.647   4.881   3.280
30086WAT     H290501   7.682   4.989   3.163
30087WAT      O90502   7.525   7.193   6.128
30087WAT     H190503   7.509   7.130   6.052
30087WAT     H290504   7.529   7.287   6.093
30088WAT      O90505   7.665   6.766   9.206
30088WAT     H190506   7.716   6.825   9.268
30088WAT     H290507   7.677   6.797   9.112
30089WAT      O90508   0.515   1.864   2.017
30089WAT     H190509   0.478   1.771   2.018
30089WAT     H290510   0.524   1.897   2.111
30090WAT      O90511   7.746   6.278   5.087
30090WAT     H190512   7.700   6.190   5.091
30090WAT     H290513   7.744   6.321   5.177
30091WAT      O90514   2.425   4.419   9.652
30091WAT     H190515   2.341   4.471   9.642
30091WAT     H290516   2.442   4.401   9.749
30092WAT      O90517   3.309   3.493   8.636
30092WAT     H190518   3.277   3.571   8.583
30092WAT     H290519   3.252   3.483   8.718
30093WAT      O90520   1.753   1.708   7.032
30093WAT     H190521   1.653   1.709   7.039
30093WAT     H290522   1.781   1.716   6.937
30094WAT      O90523   1.512   1.053   9.839
30094WAT     H190524   1.460   1.127   9.798
30094WAT     H290525   1.541   1.080   9.931
30095WAT      O90526   4.869   7.337   4.736
30095WAT     H190527   4.833   7.288   4.657
30095WAT     H290528   4.840   7.291   4.820
30096WAT      O90529   4.194   4.703   1.781
30096WAT     H190530   4.235   4.672   1.867
30096WAT     H290531   4.110   4.753   1.801
30097WAT      O90532   2.063   6.176   8.738
30097WAT     H190533   2.074   6.202   8.642
30097WAT     H290534   2.067   6.076   8.747
30098WAT      O90535   9.719   2.261   1.637
30098WAT     H190536   9.710   2.163   1.618
30098WAT     H290537   9.708   2.312   1.552
30099WAT      O90538   9.568   5.353   7.329
30099WAT     H190539   9.648   5.295   7.339
30099WAT     H290540   9.560   5.383   7.234
30100WAT      O90541   2.161   1.786   7.284
30100WAT     H190542   2.202   1.785   7.193
30100WAT     H290543   2.220   1.839   7.346
30101WAT      O90544   6.616   9.089   4.815
30101WAT     H190545   6.530   9.038   4.826
30101WAT     H290546   6.596   9.181   4.782
30102WAT      O90547   8.066   4.442   5.992
30102WAT     H190548   8.163   4.417   5.987
30102WAT     H290549   8.042   4.465   6.087
30103WAT      O90550   7.328   4.137   7.374
30103WAT     H190551   7.303   4.227   7.412
30103WAT     H290552   7.249   4.076   7.379
30104WAT      O90553   5.704   1.512   5.190
30104WAT     H190554   5.786   1.458   5.206
30104WAT     H290555   5.707   1.595   5.246
30105WAT      O90556   1.064   3.172   1.238
30105WAT     H190557   1.125   3.101   1.205
30105WAT     H290558   1.116   3.242   1.286
30106WAT      O90559   0.269   0.659   7.356
30106WAT     H190560   0.273   0.599   7.276
30106WAT     H290561   0.291   0.753   7.329
30107WAT      O90562   7.237   5.422   5.991
30107WAT     H190563   7.231   5.498   5.927
30107WAT     H290564   7.301   5.354   5.956
30108WAT      O90565   6.859   5.578   6.008
30108WAT     H190566   6.855   5.624   6.097
30108WAT     H290567   6.835   5.643   5.936
30109WAT      O90568   2.903   3.851   7.575
30109WAT     H190569   2.902   3.761   7.619
30109WAT     H290570   2.808   3.881   7.559
30110WAT      O90571   5.742   7.523   3.218
30110WAT     H190572   5.770   7.576   3.298
30110WAT     H290573   5.786   7.434   3.220
30111WAT      O90574   5.804   0.296   9.415
30111WAT     H190575   5.766   0.386   9.393
30111WAT     H290576   5.746   0.225   9.376
30112WAT      O90577   9.150   2.563   5.143
30112WAT     H190578   9.094   2.646   5.148
30112WAT     H290579   9.141   2.511   5.228
30113WAT      O90580   1.213   9.741   6.454
30113WAT     H190581   1.172   9.789   6.377
30113WAT     H290582   1.208   9.643   6.439
30114WAT      O90583   9.099   9.797   2.452
30114WAT     H190584   9.139   9.718   2.406
30114WAT     H290585   9.172   9.862   2.476
30115WAT      O90586   7.787   6.121   6.594
30115WAT     H190587   7.702   6.087   6.555
30115WAT     H290588   7.791   6.099   6.691
30116WAT      O90589   4.944   9.792   0.556
30116WAT     H190590   5.005   9.821   0.630
30116WAT     H290591   4.993   9.798   0.469
30117WAT      O90592   6.963   0.659   2.798
30117WAT     H190593   6.877   0.637   2.752
30117WAT     H290594   6.995   0.749   2.767
30118WAT      O90595   5.508   4.132   6.036
30118WAT     H190596   5.485   4.133   6.133
30118WAT     H290597   5.487   4.042   5.998
30119WAT      O90598   7.262   7.387   9.561
30119WAT     H190599   7.331   7.431   9.619
30119WAT     H290600   7.289   7.394   9.465
30120WAT      O90601   8.966   9.838   4.560
30120WAT     H190602   8.898   9.771   4.592
30120WAT     H290603   8.921   9.926   4.545
30121WAT      O90604   6.320   2.041   6.381
30121WAT     H190605   6.294   1.965   6.440
30121WAT     H290606   6.278   2.030   6.291
30122WAT      O90607   8.239   5.226   0.177
30122WAT     H190608   8.203   5.175   0.255
30122WAT     H290609   8.304   5.295   0.209
30123WAT      O90610   2.899   1.373   2.277
30123WAT     H190611   2.872   1.354   2.371
30123WAT     H290612   2.822   1.350   2.216
30124WAT      O90613   8.247   2.985   5.370
30124WAT     H190614   8.191   2.986   5.453
30124WAT     H290615   8.334   2.940   5.389
30125WAT      O90616   5.543   4.306   7.521
30125WAT     H190617   5.471   4.250   7.481
30125WAT     H290618   5.549   4.393   7.471
30126WAT      O90619   7.167   9.000   5.499
30126WAT     H190620   7.123   9.062   5.564
30126WAT     H290621   7.266   8.997   5.518
30127WAT      O90622   7.526   1.597   4.764
30127WAT     H190623   7.444   1.655   4.756
30127WAT     H290624   7.517   1.539   4.844
30128WAT      O90625   3.442   8.137   3.875
30128WAT     H190626   3.360   8.155   3.819
30128WAT     H290627   3.492   8.222   3.888
30129WAT      O90628   1.463   5.637   3.419
30129WAT     H190629   1.404   5.712   3.449
30129WAT     H290630   1.502   5.591   3.499
30130WAT      O90631   1.299   5.756   6.281
30130WAT     H190632   1.352   5.682   6.324
30130WAT     H290633   1.240   5.717   6.211
30131WAT      O90634   1.351   8.971   2.281
30131WAT     H190635   1.357   8.891   2.222
30131WAT     H290636   1.263   8.973   2.328
30132WAT      O90637   4.963   7.966   4.801
30132WAT     H190638   5.004   7.894   4.858
30132WAT     H290639   5.006   8.054   4.821
30133WAT      O90640   4.832   3.363   6.323
30133WAT     H190641   4.772   3.296   6.280
30133WAT     H290642   4.883   3.413   6.252
30134WAT      O90643   8.556   1.606   0.663
30134WAT     H190644   8.478   1.660   0.634
30134WAT     H290645   8.536   1.508   0.654
30135WAT      O90646   0.937   5.364   1.334
30135WAT     H190647   1.036   5.362   1.345
30135WAT     H290648   0.896   5.411   1.413
30136WAT      O90649   7.059   6.359   8.019
30136WAT     H190650   7.072   6.419   7.940
30136WAT     H290651   7.135   6.294   8.024
30137WAT      O90652   0.578   3.160   7.276
30137WAT     H190653   0.630   3.207   7.205
30137WAT     H290654   0.483   3.149   7.246
30138WAT      O90655   9.055   4.814   7.276
30138WAT     H190656   8.993   4.741   7.306
30138WAT     H290657   9.099   4.787   7.191
30139WAT      O90658   7.218   6.249   0.329
30139WAT     H190659   7.253   6.220   0.419
30139WAT     H290660   7.246   6.183   0.260
30140WAT      O90661   4.989   9.656   9.237
30140WAT     H190662   4.970   9.752   9.214
30140WAT     H290663   5.056   9.652   9.310
30141WAT      O90664   6.795   9.400   1.450
30141WAT     H190665   6.780   9.384   1.353
30141WAT     H290666   6.707   9.400   1.498
30142WAT      O90667   9.383   8.768   7.794
30142WAT     H190668   9.447   8.713   7.740
30142WAT     H290669   9.347   8.843   7.737
30143WAT      O90670   1.579   2.938   5.186
30143WAT     H190671   1.615   2.965   5.275
30143WAT     H290672   1.655   2.913   5.125
30144WAT      O90673   7.436   2.859   8.544
30144WAT     H190674   7.406   2.899   8.458
30144WAT     H290675   7.361   2.861   8.610
30145WAT      O90676   3.446   4.728   4.684
30145WAT     H190677   3.352   4.760   4.673
30145WAT     H290678   3.507   4.785   4.628
30146WAT      O90679   4.527   9.144   9.511
30146WAT     H190680   4.584   9.226   9.523
30146WAT     H290681   4.556   9.096   9.428
30147WAT      O90682   9.107   4.240   9.821
30147WAT     H190683   9.038   4.187   9.773
30147WAT     H290684   9.198   4.207   9.798
30148WAT      O90685   1.410   9.405   3.520
30148WAT     H190686   1.413   9.310   3.491
30148WAT     H290687   1.435   9.465   3.444
30149WAT      O90688   1.169   5.271   8.026
30149WAT     H190689   1.091   5.334   8.034
30149WAT     H290690   1.136   5.182   7.997
30150WAT      O90691   6.124   4.333   9.410
30150WAT     H190692   6.193   4.386   9.361
30150WAT     H290693   6.035   4.341   9.364
30151WAT      O90694   6.866   8.703   2.964
30151WAT     H190695   6.933   8.774   2.942
30151WAT     H290696   6.844   8.707   3.062
30152WAT      O90697   1.883   4.202   9.198
30152WAT     H190698   1.821   4.142   9.148
30152WAT     H290699   1.832   4.250   9.270
30153WAT      O90700   7.742   0.249   6.770
30153WAT     H190701   7.824   0.292   6.808
30153WAT     H290702   7.739   0.264   6.672
30154WAT      O90703   8.791   5.767   3.871
30154WAT     H190704   8.794   5.667   3.869
30154WAT     H290705   8.736   5.796   3.950
30155WAT      O90706   7.180   0.568   0.678
30155WAT     H190707   7.125   0.578   0.761
30155WAT     H290708   7.277   0.580   0.701
30156WAT      O90709   6.162   5.515   2.703
30156WAT     H190710   6.143   5.567   2.786
30156WAT     H290711   6.129   5.565   2.623
30157WAT      O90712   4.439   9.716   8.355
30157WAT     H190713   4.361   9.776   8.372
30157WAT     H290714   4.516   9.770   8.320
30158WAT      O90715   8.584   1.191   0.860
30158WAT     H190716   8.608   1.256   0.931
30158WAT     H290717   8.502   1.140   0.888
30159WAT      O90718   9.194   8.091   8.985
30159WAT     H190719   9.144   8.151   8.922
30159WAT     H290720   9.137   8.013   9.008
30160WAT      O90721   5.169   7.751   9.824
30160WAT     H190722   5.086   7.783   9.777
30160WAT     H290723   5.225   7.830   9.849
30161WAT      O90724   2.158   1.784   3.189
30161WAT     H190725   2.241   1.731   3.201
30161WAT     H290726   2.127   1.818   3.278
30162WAT      O90727   2.199   5.540   7.191
30162WAT     H190728   2.193   5.463   7.128
30162WAT     H290729   2.135   5.612   7.163
30163WAT      O90730   4.278   5.427   1.684
30163WAT     H190731   4.376   5.428   1.662
30163WAT     H290732   4.235   5.507   1.642
30164WAT      O90733   8.553   9.712   6.027
30164WAT     H190734   8.620   9.637   6.022
30164WAT     H290735   8.526   9.738   5.935
30165WAT      O90736   2.188   6.099   7.034
30165WAT     H190737   2.203   6.176   6.973
30165WAT     H290738   2.188   6.131   7.129
30166WAT      O90739   8.559   0.942   9.641
30166WAT     H190740   8.543   0.891   9.556
30166WAT     H290741   8.494   0.912   9.710
30167WAT      O90742   8.179   8.697   8.743
30167WAT     H190743   8.087   8.665   8.722
30167WAT     H290744   8.179   8.797   8.746
30168WAT      O90745   5.507   0.463   2.544
30168WAT     H190746   5.509   0.556   2.509
30168WAT     H290747   5.426   0.416   2.510
30169WAT      O90748   8.008   1.086   5.399
30169WAT     H190749   8.059   1.013   5.444
30169WAT     H290750   7.950   1.048   5.327
30170WAT      O90751   9.608   6.105   2.586
30170WAT     H190752   9.700   6.066   2.579
30170WAT     H290753   9.603   6.165   2.666
30171WAT      O90754   7.366   2.283   6.265
30171WAT     H190755   7.285   2.337   6.243
30171WAT     H290756   7.445   2.344   6.276
30172WAT      O90757   6.107   7.292   3.834
30172WAT     H190758   6.027   7.267   3.888
30172WAT     H290759   6.078   7.324   3.744
30173WAT      O90760   8.144   6.756   7.602
30173WAT     H190761   8.145   6.722   7.508
30173WAT     H290762   8.178   6.685   7.664
30174WAT      O90763   7.308   9.198   8.049
30174WAT     H190764   7.349   9.109   8.069
30174WAT     H290765   7.377   9.257   8.008
30175WAT      O90766   8.609   6.901   7.459
30175WAT     H190767   8.636   6.993   7.433
30175WAT     H290768   8.562   6.903   7.547
30176WAT      O90769   3.286   2.973   3.486
30176WAT     H190770   3.233   2.889   3.478
30176WAT     H290771   3.369   2.966   3.431
30177WAT      O90772   4.233   7.959   0.187
30177WAT     H190773   4.284   7.976   0.271
30177WAT     H290774   4.296   7.931   0.114
30178WAT      O90775   3.541   0.249   8.166
30178WAT     H190776   3.560   0.298   8.081
30178WAT     H290777   3.598   0.286   8.239
30179WAT      O90778   7.789   2.688   0.465
30179WAT     H190779   7.721   2.759   0.449
30179WAT     H290780   7.761   2.604   0.418
30180WAT      O90781   6.007   9.246   3.780
30180WAT     H190782   5.986   9.259   3.877
30180WAT     H290783   6.101   9.275   3.761
30181WAT      O90784   0.596   7.136   2.181
30181WAT     H190785   0.520   7.083   2.219
30181WAT     H290786   0.570   7.233   2.176
30182WAT      O90787   3.068   1.787   3.244
30182WAT     H190788   3.125   1.805   3.324
30182WAT     H290789   3.011   1.707   3.261
30183WAT      O90790   1.369   2.781   1.382
30183WAT     H190791   1.455   2.819   1.346
30183WAT     H290792   1.313   2.749   1.305
30184WAT      O90793   3.957   4.717   2.473
30184WAT     H190794   3.950   4.622   2.442
30184WAT     H290795   3.915   4.777   2.405
30185WAT      O90796   1.509   1.215   9.473
30185WAT     H190797   1.598   1.185   9.438
30185WAT     H290798   1.437   1.189   9.408
30186WAT      O90799   4.253   7.351   3.647
30186WAT     H190800   4.285   7.433   3.601
30186WAT     H290801   4.314   7.274   3.624
30187WAT      O90802   1.548   7.984   2.884
30187WAT     H190803   1.472   8.035   2.844
30187WAT     H290804   1.601   7.941   2.812
30188WAT      O90805   1.722   8.837   9.424
30188WAT     H190806   1.820   8.855   9.434
30188WAT     H290807   1.685   8.802   9.510
30189WAT      O90808   7.048   0.120   0.175
30189WAT     H190809   7.015   0.213   0.195
30189WAT     H290810   7.147   0.120   0.169
30190WAT      O90811   0.433   3.622   2.568
30190WAT     H190812   0.344   3.587   2.539
30190WAT     H290813   0.503   3.551   2.556
30191WAT      O90814   4.162   0.751   4.316
30191WAT     H190815   4.127   0.691   4.244
30191WAT     H290816   4.213   0.826   4.276
30192WAT      O90817   8.519   5.301   5.541
30192WAT     H190818   8.563   5.332   5.625
30192WAT     H290819   8.588   5.266   5.478
30193WAT      O90820   9.571   5.610   0.089
30193WAT     H190821   9.588   5.707   0.075
30193WAT     H290822   9.655   5.558   0.070
30194WAT      O90823   8.666   3.332   2.379
30194WAT     H190824   8.575   3.353   2.344
30194WAT     H290825   8.657   3.277   2.462
30195WAT      O90826   7.040   9.810   2.724
30195WAT     H190827   7.095   9.751   2.784
30195WAT     H290828   7.015   9.759   2.641
30196WAT      O90829   2.172   7.469   7.952
30196WAT     H190830   2.166   7.559   7.997
30196WAT     H290831   2.190   7.482   7.855
30197WAT      O90832   6.708   9.368   0.908
30197WAT     H190833   6.761   9.291   0.943
30197WAT     H290834   6.685   9.352   0.812
30198WAT      O90835   3.877   9.608   9.415
30198WAT     H190836   3.827   9.522   9.407
30198WAT     H290837   3.973   9.591   9.436
30199WAT      O90838   4.961   9.640   7.586
30199WAT     H190839   4.960   9.546   7.619
30199WAT     H290840   4.894   9.694   7.638
30200WAT      O90841   5.382   5.465   8.851
30200WAT     H190842   5.385   5.460   8.751
30200WAT     H290843   5.446   5.535   8.883
30201WAT      O90844   2.851   4.971   6.509
30201WAT     H190845   2.781   5.021   6.459
30201WAT     H290846   2.901   4.910   6.447
30202WAT      O90847   3.010   8.121   3.642
30202WAT     H190848   2.988   8.068   3.560
30202WAT     H290849   2.937   8.110   3.709
30203WAT      O90850   1.103   6.267   6.207
30203WAT     H190851   1.093   6.237   6.112
30203WAT     H290852   1.022   6.239   6.258
30204WAT      O90853   4.681   7.912   7.470
30204WAT     H190854   4.749   7.850   7.509
30204WAT     H290855   4.674   7.896   7.372
30205WAT      O90856   5.950   0.155   0.020
30205WAT     H190857   5.911   0.228  -0.037
30205WAT     H290858   5.885   0.080   0.028
30206WAT      O90859   8.823   8.158   8.857
30206WAT     H190860   8.808   8.116   8.946
30206WAT     H290861   8.754   8.124   8.792
30207WAT      O90862   0.848   4.935   8.730
30207WAT     H190863   0.905   4.853   8.729
30207WAT     H290864   0.813   4.950   8.823
30208WAT      O90865   1.324   3.288   1.901
30208WAT     H190866   1.262   3.209   1.894
30208WAT     H290867   1.333   3.332   1.812
30209WAT      O90868   2.830   5.978   6.754
30209WAT     H190869   2.837   6.057   6.692
30209WAT     H290870   2.831   5.894   6.700
30210WAT      O90871   9.167   5.572   5.503
30210WAT     H190872   9.083   5.617   5.471
30210WAT     H290873   9.237   5.641   5.521
30211WAT      O90874   1.975   2.855   2.054
30211WAT     H190875   1.957   2.762   2.022
30211WAT     H290876   1.994   2.852   2.152
30212WAT      O90877   1.947   9.548   0.196
30212WAT     H190878   1.924   9.540   0.099
30212WAT     H290879   1.894   9.623   0.236
30213WAT      O90880   8.489   4.829   1.601
30213WAT     H190881   8.496   4.788   1.510
30213WAT     H290882   8.397   4.867   1.614
30214WAT      O90883   8.606   1.024   0.528
30214WAT     H190884   8.697   1.010   0.567
30214WAT     H290885   8.537   1.012   0.599
30215WAT      O90886   7.724   9.796   5.710
30215WAT     H190887   7.657   9.857   5.667
30215WAT     H290888   7.813   9.840   5.712
30216WAT      O90889   3.455   7.243   7.859
30216WAT     H190890   3.526   7.260   7.791
30216WAT     H290891   3.450   7.144   7.876
30217WAT      O90892   1.354   3.931   3.726
30217WAT     H190893   1.452   3.942   3.711
30217WAT     H290894   1.306   3.932   3.638
30218WAT      O90895   2.055   4.962   5.236
30218WAT     H190896   1.967   4.921   5.260
30218WAT     H290897   2.040   5.055   5.203
30219WAT      O90898   4.916   3.771   2.015
30219WAT     H190899   4.953   3.679   2.004
30219WAT     H290900   4.816   3.768   2.006
30220WAT      O90901   2.680   2.262   0.496
30220WAT     H190902   2.729   2.349   0.501
30220WAT     H290903   2.739   2.193   0.456
30221WAT      O90904   4.796   8.917   7.113
30221WAT     H190905   4.716   8.949   7.062
30221WAT     H290906   4.776   8.826   7.150
30222WAT      O90907   0.938   0.255   2.326
30222WAT     H190908   0.855   0.274   2.274
30222WAT     H290909   1.017   0.288   2.275
30223WAT      O90910   1.645   3.532   4.674
30223WAT     H190911   1.584   3.606   4.702
30223WAT     H290912   1.735   3.546   4.715
30224WAT      O90913   7.536   6.635   3.871
30224WAT     H190914   7.476   6.569   3.917
30224WAT     H290915   7.484   6.687   3.803
30225WAT      O90916   2.748   6.228   0.184
30225WAT     H190917   2.810   6.284   0.129
30225WAT     H290918   2.780   6.134   0.186
30226WAT      O90919   4.495   0.175   8.750
30226WAT     H190920   4.414   0.234   8.749
30226WAT     H290921   4.470   0.083   8.720
30227WAT      O90922   5.579   8.194   2.481
30227WAT     H190923   5.495   8.182   2.428
30227WAT     H290924   5.623   8.105   2.494
30228WAT      O90925   0.831   6.701   7.929
30228WAT     H190926   0.811   6.658   8.017
30228WAT     H290927   0.925   6.735   7.929
30229WAT      O90928   0.768   6.176   1.322
30229WAT     H190929   0.691   6.170   1.385
30229WAT     H290930   0.736   6.169   1.228
30230WAT      O90931   7.126   4.884   7.282
30230WAT     H190932   7.132   4.839   7.193
30230WAT     H290933   7.188   4.839   7.346
30231WAT      O90934   7.714   1.745   8.870
30231WAT     H190935   7.659   1.663   8.886
30231WAT     H290936   7.670   1.802   8.801
30232WAT      O90937   0.245   4.058   1.792
30232WAT     H190938   0.235   4.150   1.753
30232WAT     H290939   0.155   4.023   1.817
30233WAT      O90940   9.584   8.368   0.774
30233WAT     H190941   9.640   8.348   0.693
30233WAT     H290942   9.607   8.458   0.809
30234WAT      O90943   7.206   2.559   5.200
30234WAT     H190944   7.124   2.508   5.174
30234WAT     H290945   7.192   2.601   5.290
30235WAT      O90946   8.331   5.617   7.980
30235WAT     H190947   8.300   5.708   8.009
30235WAT     H290948   8.276   5.587   7.901
30236WAT      O90949   3.184   6.449   5.273
30236WAT     H190950   3.143   6.538   5.253
30236WAT     H290951   3.214   6.448   5.369
30237WAT      O90952   9.661   5.511   6.592
30237WAT     H190953   9.753   5.534   6.623
30237WAT     H290954   9.614   5.595   6.564
30238WAT      O90955   0.459   5.093   1.111
30238WAT     H190956   0.429   5.054   1.024
30238WAT     H290957   0.461   5.020   1.180
30239WAT      O90958   7.994   7.963   0.010
30239WAT     H190959   7.930   7.902   0.055
30239WAT     H290960   7.947   8.014  -0.062
30240WAT      O90961   1.805   2.244   1.184
30240WAT     H190962   1.878   2.237   1.116
30240WAT     H290963   1.738   2.172   1.169
30241WAT      O90964   3.463   7.087   2.309
30241WAT     H190965   3.503   6.996   2.309
30241WAT     H290966   3.446   7.116   2.215
30242WAT      O90967   1.232   8.152   0.922
30242WAT     H190968   1.146   8.129   0.878
30242WAT     H290969   1.308   8.132   0.859
30243WAT      O90970   3.492   7.120   9.271
30243WAT     H190971   3.565   7.069   9.318
30243WAT     H290972   3.466   7.071   9.188
30244WAT      O90973   8.380   8.623   1.102
30244WAT     H190974   8.459   8.625   1.163
30244WAT     H290975   8.300   8.588   1.151
30245WAT      O90976   4.610   0.904   6.079
30245WAT     H190977   4.542   0.876   6.011
30245WAT     H290978   4.564   0.940   6.160
30246WAT      O90979   6.926   9.272   8.016
30246WAT     H190980   6.913   9.338   7.942
30246WAT     H290981   6.838   9.229   8.037
30247WAT      O90982   8.176   0.051   8.044
30247WAT     H190983   8.100   0.003   7.999
30247WAT     H290984   8.165   0.149   8.032
30248WAT      O90985   1.823   6.974   3.894
30248WAT     H190986   1.780   6.916   3.963
30248WAT     H290987   1.905   7.017   3.933
30249WAT      O90988   7.839   8.516   0.507
30249WAT     H190989   7.740   8.500   0.497
30249WAT     H290990   7.885   8.429   0.524
30250WAT      O90991   7.236   9.582   5.070
30250WAT     H190992   7.289   9.642   5.129
30250WAT     H290993   7.193   9.511   5.126
30251WAT      O90994   6.313   4.047   3.647
30251WAT     H190995   6.408   4.065   3.673
30251WAT     H290996   6.252   4.106   3.700
30252WAT      O90997   7.314   7.573   4.153
30252WAT     H190998   7.292   7.514   4.075
30252WAT     H290999   7.236   7.632   4.174
30253WAT      O91000   1.156   3.397   7.450
30253WAT     H191001   1.087   3.374   7.518
30253WAT     H291002   1.157   3.496   7.436
30254WAT      O91003   5.392   4.680   1.173
30254WAT     H191004   5.365   4.652   1.081
30254WAT     H291005   5.371   4.776   1.187
30255WAT      O91006   7.162   0.318   9.832
30255WAT     H191007   7.233   0.283   9.893
30255WAT     H291008   7.196   0.319   9.738
30256WAT      O91009   5.856   0.620   9.056
30256WAT     H191010   5.949   0.602   9.089
30256WAT     H291011   5.816   0.535   9.022
30257WAT      O91012   1.051   4.854   7.469
30257WAT     H191013   0.976   4.804   7.426
30257WAT     H291014   1.015   4.911   7.543
30258WAT      O91015   3.325   8.293   6.253
30258WAT     H191016   3.375   8.347   6.185
30258WAT     H291017   3.270   8.223   6.207
30259WAT      O91018   0.413   8.311   4.325
30259WAT     H191019   0.351   8.287   4.400
30259WAT     H291020   0.490   8.247   4.324
30260WAT      O91021   2.469   7.932   9.738
30260WAT     H191022   2.549   7.910   9.682
30260WAT     H291023   2.469   7.875   9.820
30261WAT      O91024   2.792   5.579   5.654
30261WAT     H191025   2.841   5.657   5.614
30261WAT     H291026   2.854   5.500   5.658
30262WAT      O91027   5.611   8.003   0.502
30262WAT     H191028   5.617   7.923   0.561
30262WAT     H291029   5.515   8.021   0.480
30263WAT      O91030   4.648   7.139   8.317
30263WAT     H191031   4.579   7.068   8.306
30263WAT     H291032   4.654   7.192   8.232
30264WAT      O91033   5.638   0.009   5.308
30264WAT     H191034   5.724  -0.036   5.333
30264WAT     H291035   5.569  -0.008   5.378
30265WAT      O91036   8.898   6.747   2.323
30265WAT     H191037   8.803   6.758   2.350
30265WAT     H291038   8.958   6.779   2.396
30266WAT      O91039   4.960   9.643   4.519
30266WAT     H191040   5.056   9.637   4.547
30266WAT     H291041   4.941   9.573   4.450
30267WAT      O91042   8.006   5.635   8.192
30267WAT     H191043   8.095   5.614   8.232
30267WAT     H291044   7.981   5.563   8.127
30268WAT      O91045   4.743   5.039   0.849
30268WAT     H191046   4.649   5.003   0.845
30268WAT     H291047   4.807   4.966   0.824
30269WAT      O91048   6.884   7.714   7.806
30269WAT     H191049   6.910   7.715   7.902
30269WAT     H291050   6.784   7.716   7.798
30270WAT      O91051   8.116   9.391   8.548
30270WAT     H191052   8.175   9.460   8.505
30270WAT     H291053   8.046   9.437   8.603
30271WAT      O91054   4.817   6.664   3.966
30271WAT     H191055   4.819   6.588   3.900
30271WAT     H291056   4.811   6.751   3.917
30272WAT      O91057   3.869   7.946   0.841
30272WAT     H191058   3.809   8.025   0.856
30272WAT     H291059   3.843   7.872   0.902
30273WAT      O91060   0.801   0.213   6.350
30273WAT     H191061   0.728   0.271   6.315
30273WAT     H291062   0.851   0.173   6.273
30274WAT      O91063   4.128   3.719   9.121
30274WAT     H191064   4.142   3.623   9.099
30274WAT     H291065   4.090   3.727   9.214
30275WAT      O91066   4.654   8.514   5.650
30275WAT     H191067   4.604   8.476   5.728
30275WAT     H291068   4.675   8.442   5.585
30276WAT      O91069   2.025   4.837   3.035
30276WAT     H191070   1.942   4.797   2.996
30276WAT     H291071   2.100   4.829   2.969
30277WAT      O91072   4.920   8.308   0.095
30277WAT     H191073   4.908   8.358   0.181
30277WAT     H291074   4.845   8.331   0.033
30278WAT      O91075   3.040   7.987   2.956
30278WAT     H191076   3.054   8.030   3.044
30278WAT     H291077   3.118   8.007   2.896
30279WAT      O91078   0.600   5.972   9.266
30279WAT     H191079   0.528   5.988   9.334
30279WAT     H291080   0.558   5.940   9.181
30280WAT      O91081   5.170   8.100   3.832
30280WAT     H191082   5.185   8.187   3.784
30280WAT     H291083   5.073   8.090   3.854
30281WAT      O91084   0.199   3.371   1.066
30281WAT     H191085   0.260   3.364   0.988
30281WAT     H291086   0.195   3.466   1.097
30282WAT      O91087   7.234   2.773   9.766
30282WAT     H191088   7.312   2.762   9.827
30282WAT     H291089   7.172   2.842   9.803
30283WAT      O91090   8.063   9.383   1.500
30283WAT     H191091   7.991   9.452   1.499
30283WAT     H291092   8.065   9.338   1.589
30284WAT      O91093   2.401   2.415   6.756
30284WAT     H191094   2.444   2.349   6.695
30284WAT     H291095   2.329   2.464   6.706
30285WAT      O91096   9.499   9.682   3.668
30285WAT     H191097   9.466   9.758   3.725
30285WAT     H291098   9.426   9.651   3.607
30286WAT      O91099   2.965   5.963   9.185
30286WAT     H191100   2.925   5.973   9.094
30286WAT     H291101   3.038   6.030   9.197
30287WAT      O91102   9.128   8.850   2.940
30287WAT     H191103   9.172   8.911   2.875
30287WAT     H291104   9.198   8.795   2.987
30288WAT      O91105   5.513   3.201   0.657
30288WAT     H191106   5.443   3.132   0.641
30288WAT     H291107   5.603   3.160   0.649
30289WAT      O91108   3.254   1.206   4.477
30289WAT     H191109   3.177   1.147   4.453
30289WAT     H291110   3.334   1.149   4.496
30290WAT      O91111   2.905   6.627   6.697
30290WAT     H191112   2.966   6.684   6.751
30290WAT     H291113   2.933   6.629   6.601
30291WAT      O91114   8.820   5.187   1.217
30291WAT     H191115   8.804   5.205   1.120
30291WAT     H291116   8.822   5.088   1.233
30292WAT      O91117   1.580   7.064   1.936
30292WAT     H191118   1.615   7.157   1.946
30292WAT     H291119   1.481   7.064   1.952
30293WAT      O91120   0.083   1.705   3.351
30293WAT     H191121   0.014   1.743   3.413
30293WAT     H291122   0.159   1.770   3.342
30294WAT      O91123   7.449   0.809   7.408
30294WAT     H191124   7.467   0.907   7.408
30294WAT     H291125   7.359   0.791   7.447
30295WAT      O91126   9.017   6.974   9.655
30295WAT     H191127   9.072   6.918   9.716
30295WAT     H291128   9.021   7.069   9.684
30296WAT      O91129   9.033   5.454   8.557
30296WAT     H191130   9.045   5.487   8.464
30296WAT     H291131   8.945   5.486   8.593
30297WAT      O91132   8.523   4.127   5.274
30297WAT     H191133   8.480   4.038   5.285
30297WAT     H291134   8.455   4.194   5.243
30298WAT      O91135   6.268   7.907   9.836
30298WAT     H191136   6.325   7.886   9.916
30298WAT     H291137   6.242   7.822   9.791
30299WAT      O91138   4.374   2.767   3.991
30299WAT     H191139   4.418   2.797   3.906
30299WAT     H291140   4.282   2.806   3.996
30300WAT      O91141   1.311   2.431   8.992
30300WAT     H191142   1.400   2.445   8.948
30300WAT     H291143   1.255   2.371   8.935
30301WAT      O91144   2.720   9.553   6.924
30301WAT     H191145   2.798   9.611   6.903
30301WAT     H291146   2.678   9.522   6.839
30302WAT      O91147   1.577   3.029   6.052
30302WAT     H191148   1.586   2.988   5.962
30302WAT     H291149   1.665   3.068   6.080
30303WAT      O91150   3.712   0.340   4.442
30303WAT     H191151   3.769   0.377   4.369
30303WAT     H291152   3.702   0.242   4.430
30304WAT      O91153   4.614   3.208   6.257
30304WAT     H191154   4.539   3.271   6.236
30304WAT     H291155   4.621   3.139   6.184
30305WAT      O91156   5.033   6.988   3.729
30305WAT     H191157   5.088   7.071   3.714
30305WAT     H291158   4.979   6.998   3.812
30306WAT      O91159   5.351   8.259   9.141
30306WAT     H191160   5.282   8.186   9.151
30306WAT     H291161   5.383   8.287   9.231
30307WAT      O91162   0.650   7.041   0.721
30307WAT     H191163   0.620   6.947   0.708
30307WAT     H291164   0.719   7.045   0.794
30308WAT      O91165   3.797   2.556   7.804
30308WAT     H191166   3.895   2.571   7.820
30308WAT     H291167   3.781   2.542   7.706
30309WAT      O91168   7.428   5.240   2.903
30309WAT     H191169   7.452   5.295   2.822
30309WAT     H291170   7.375   5.297   2.966
30310WAT      O91171   1.489   6.182   6.281
30310WAT     H191172   1.516   6.086   6.284
30310WAT     H291173   1.449   6.203   6.192
30311WAT      O91174   3.013   6.473   3.488
30311WAT     H191175   2.947   6.542   3.518
30311WAT     H291176   3.100   6.486   3.535
30312WAT      O91177   3.331   6.104   1.259
30312WAT     H191178   3.319   6.163   1.338
30312WAT     H291179   3.277   6.140   1.182
30313WAT      O91180   5.033   3.973   7.438
30313WAT     H191181   5.034   4.044   7.508
30313WAT     H291182   5.011   4.014   7.349
30314WAT      O91183   7.344   5.452   0.517
30314WAT     H191184   7.391   5.488   0.436
30314WAT     H291185   7.249   5.485   0.518
30315WAT      O91186   6.142   0.657   8.282
30315WAT     H191187   6.065   0.702   8.237
30315WAT     H291188   6.182   0.720   8.349
30316WAT      O91189   3.588   8.369   1.645
30316WAT     H191190   3.641   8.298   1.598
30316WAT     H291191   3.636   8.395   1.729
30317WAT      O91192   4.981   9.064   3.249
30317WAT     H191193   4.924   9.108   3.180
30317WAT     H291194   5.056   9.125   3.274
30318WAT      O91195   6.520   4.163   1.729
30318WAT     H191196   6.527   4.253   1.686
30318WAT     H291197   6.443   4.113   1.689
30319WAT      O91198   7.590   8.181   1.484
30319WAT     H191199   7.577   8.217   1.391
30319WAT     H291200   7.658   8.235   1.532
30320WAT      O91201   8.526   9.143   5.505
30320WAT     H191202   8.462   9.066   5.492
30320WAT     H291203   8.510   9.184   5.594
30321WAT      O91204   0.719   5.688   6.599
30321WAT     H191205   0.723   5.685   6.499
30321WAT     H291206   0.708   5.783   6.629
30322WAT      O91207   4.500   1.034   3.597
30322WAT     H191208   4.516   1.106   3.529
30322WAT     H291209   4.565   0.959   3.583
30323WAT      O91210   5.205   2.936   1.472
30323WAT     H191211   5.107   2.935   1.493
30323WAT     H291212   5.253   2.996   1.537
30324WAT      O91213   4.348   6.012   1.991
30324WAT     H191214   4.367   6.088   1.929
30324WAT     H291215   4.253   5.982   1.980
30325WAT      O91216   9.768   9.105   6.576
30325WAT     H191217   9.673   9.076   6.576
30325WAT     H291218   9.773   9.203   6.560
30326WAT      O91219   9.789   0.897   4.507
30326WAT     H191220   9.800   0.819   4.568
30326WAT     H291221   9.866   0.961   4.520
30327WAT      O91222   6.874   6.721   6.724
30327WAT     H191223   6.820   6.641   6.698
30327WAT     H291224   6.849   6.749   6.817
30328WAT      O91225   1.836   8.282   0.099
30328WAT     H191226   1.819   8.363   0.044
30328WAT     H291227   1.913   8.231   0.062
30329WAT      O91228   1.350   6.034   4.925
30329WAT     H191229   1.310   5.945   4.901
30329WAT     H291230   1.393   6.028   5.015
30330WAT      O91231   2.961   9.209   7.593
30330WAT     H191232   3.005   9.209   7.503
30330WAT     H291233   2.959   9.116   7.630
30331WAT      O91234   5.483   5.886   8.117
30331WAT     H191235   5.536   5.823   8.175
30331WAT     H291236   5.427   5.833   8.053
30332WAT      O91237   2.782   7.559   6.167
30332WAT     H191238   2.819   7.512   6.247
30332WAT     H291239   2.730   7.639   6.196
30333WAT      O91240   8.685   1.909   0.146
30333WAT     H191241   8.586   1.894   0.140
30333WAT     H291242   8.711   1.923   0.242
30334WAT      O91243   3.815   6.077   3.747
30334WAT     H191244   3.820   6.172   3.777
30334WAT     H291245   3.904   6.034   3.758
30335WAT      O91246   4.912   0.239   9.587
30335WAT     H191247   5.000   0.192   9.579
30335WAT     H291248   4.846   0.198   9.524
30336WAT      O91249   5.283   2.919   6.750
30336WAT     H191250   5.294   2.989   6.821
30336WAT     H291251   5.216   2.951   6.682
30337WAT      O91252   6.638   5.954   1.776
30337WAT     H191253   6.603   5.879   1.833
30337WAT     H291254   6.699   6.012   1.831
30338WAT      O91255   6.862   7.101   1.153
30338WAT     H191256   6.764   7.085   1.165
30338WAT     H291257   6.900   7.138   1.238
30339WAT      O91258   7.706   4.617   8.091
30339WAT     H191259   7.753   4.696   8.049
30339WAT     H291260   7.634   4.585   8.030
30340WAT      O91261   8.859   4.609   2.266
30340WAT     H191262   8.779   4.598   2.325
30340WAT     H291263   8.919   4.679   2.304
30341WAT      O91264   9.344   5.369   5.171
30341WAT     H191265   9.327   5.465   5.194
30341WAT     H291266   9.385   5.364   5.080
30342WAT      O91267   7.808   8.197   7.533
30342WAT     H191268   7.884   8.146   7.573
30342WAT     H291269   7.757   8.137   7.471
30343WAT      O91270   7.253   9.445   8.497
30343WAT     H191271   7.302   9.415   8.415
30343WAT     H291272   7.179   9.507   8.471
30344WAT      O91273   4.172   1.402   0.346
30344WAT     H191274   4.148   1.485   0.294
30344WAT     H291275   4.242   1.425   0.414
30345WAT      O91276   9.814   3.573   9.563
30345WAT     H191277   9.902   3.527   9.562
30345WAT     H291278   9.828   3.672   9.567
30346WAT      O91279   3.771   0.903   4.046
30346WAT     H191280   3.784   0.804   4.045
30346WAT     H291281   3.678   0.923   4.078
30347WAT      O91282   0.690   2.365   3.750
30347WAT     H191283   0.743   2.319   3.679
30347WAT     H291284   0.656   2.297   3.815
30348WAT      O91285   0.776   6.633   1.966
30348WAT     H191286   0.688   6.646   1.920
30348WAT     H291287   0.777   6.544   2.011
30349WAT      O91288   2.216   0.255   6.391
30349WAT     H191289   2.291   0.207   6.437
30349WAT     H291290   2.237   0.353   6.387
30350WAT      O91291   6.715   7.681   0.559
30350WAT     H191292   6.808   7.654   0.582
30350WAT     H291293   6.716   7.731   0.472
30351WAT      O91294   2.274   6.190   6.202
30351WAT     H191295   2.351   6.232   6.154
30351WAT     H291296   2.308   6.141   6.282
30352WAT      O91297   9.766   2.705   6.457
30352WAT     H191298   9.708   2.780   6.427
30352WAT     H291299   9.856   2.713   6.414
30353WAT      O91300   8.074   7.648   8.964
30353WAT     H191301   8.105   7.739   8.990
30353WAT     H291302   8.120   7.619   8.880
30354WAT      O91303   2.649   7.087   1.766
30354WAT     H191304   2.600   7.023   1.824
30354WAT     H291305   2.721   7.133   1.819
30355WAT      O91306   8.900   3.784   5.459
30355WAT     H191307   8.894   3.805   5.361
30355WAT     H291308   8.883   3.686   5.473
30356WAT      O91309   1.634   7.955   9.136
30356WAT     H191310   1.608   7.938   9.231
30356WAT     H291311   1.667   7.869   9.096
30357WAT      O91312   9.334   9.796   4.423
30357WAT     H191313   9.288   9.708   4.407
30357WAT     H291314   9.264   9.867   4.436
30358WAT      O91315   6.673   3.464   3.544
30358WAT     H191316   6.693   3.476   3.447
30358WAT     H291317   6.714   3.539   3.596
30359WAT      O91318   5.838   5.507   8.645
30359WAT     H191319   5.883   5.490   8.558
30359WAT     H291320   5.897   5.478   8.720
30360WAT      O91321   0.142   4.022   2.212
30360WAT     H191322   0.058   3.970   2.230
30360WAT     H291323   0.221   3.961   2.212
30361WAT      O91324   9.874   4.771   8.750
30361WAT     H191325   9.892   4.869   8.747
30361WAT     H291326   9.776   4.755   8.736
30362WAT      O91327   1.009   9.794   1.598
30362WAT     H191328   0.985   9.883   1.635
30362WAT     H291329   1.106   9.777   1.611
30363WAT      O91330   0.738   6.626   8.163
30363WAT     H191331   0.713   6.705   8.218
30363WAT     H291332   0.730   6.543   8.218
30364WAT      O91333   3.166   2.973   0.287
30364WAT     H191334   3.201   3.025   0.365
30364WAT     H291335   3.234   2.905   0.260
30365WAT      O91336   1.128   7.505   2.444
30365WAT     H191337   1.115   7.563   2.364
30365WAT     H291338   1.050   7.442   2.452
30366WAT      O91339   8.636   0.616   0.597
30366WAT     H191340   8.595   0.621   0.506
30366WAT     H291341   8.565   0.592   0.664
30367WAT      O91342   8.678   8.966   9.674
30367WAT     H191343   8.698   9.055   9.633
30367WAT     H291344   8.641   8.980   9.766
30368WAT      O91345   2.761   4.786   5.216
30368WAT     H191346   2.682   4.771   5.276
30368WAT     H291347   2.738   4.853   5.145
30369WAT      O91348   8.105   3.291   1.306
30369WAT     H191349   8.113   3.299   1.207
30369WAT     H291350   8.047   3.212   1.329
30370WAT      O91351   7.252   1.697   9.068
30370WAT     H191352   7.160   1.659   9.082
30370WAT     H291353   7.288   1.664   8.981
30371WAT      O91354   6.619   9.389   7.439
30371WAT     H191355   6.679   9.335   7.380
30371WAT     H291356   6.631   9.359   7.534
30372WAT      O91357   1.659   5.658   7.485
30372WAT     H191358   1.714   5.591   7.436
30372WAT     H291359   1.614   5.614   7.563
30373WAT      O91360   8.279   5.807   4.957
30373WAT     H191361   8.377   5.826   4.957
30373WAT     H291362   8.265   5.708   4.953
30374WAT      O91363   7.244   2.599   0.192
30374WAT     H191364   7.150   2.633   0.198
30374WAT     H291365   7.266   2.577   0.097
30375WAT      O91366   9.511   9.010   6.599
30375WAT     H191367   9.485   8.998   6.503
30375WAT     H291368   9.434   8.985   6.658
30376WAT      O91369   4.926   0.994   1.943
30376WAT     H191370   4.887   1.083   1.963
30376WAT     H291371   4.866   0.944   1.881
30377WAT      O91372   8.032   1.285   6.286
30377WAT     H191373   7.997   1.202   6.329
30377WAT     H291374   8.129   1.295   6.308
30378WAT      O91375   8.188   7.579   5.951
30378WAT     H191376   8.125   7.593   5.875
30378WAT     H291377   8.220   7.667   5.986
30379WAT      O91378   2.901   3.419   6.299
30379WAT     H191379   2.886   3.350   6.228
30379WAT     H291380   2.948   3.377   6.376
30380WAT      O91381   6.331   8.277   5.707
30380WAT     H191382   6.406   8.211   5.705
30380WAT     H291383   6.310   8.301   5.802
30381WAT      O91384   5.461   6.309   6.090
30381WAT     H191385   5.561   6.305   6.084
30381WAT     H291386   5.431   6.404   6.085
30382WAT      O91387   8.931   0.629   5.299
30382WAT     H191388   8.938   0.573   5.382
30382WAT     H291389   9.011   0.613   5.242
30383WAT      O91390   4.875   3.395   5.273
30383WAT     H191391   4.842   3.360   5.361
30383WAT     H291392   4.809   3.462   5.237
30384WAT      O91393   7.255   2.489   4.739
30384WAT     H191394   7.337   2.521   4.787
30384WAT     H291395   7.217   2.411   4.787
30385WAT      O91396   6.066   8.945   9.660
30385WAT     H191397   6.081   9.020   9.595
30385WAT     H291398   6.114   8.965   9.746
30386WAT      O91399   0.230   1.336   7.478
30386WAT     H191400   0.257   1.352   7.383
30386WAT     H291401   0.133   1.311   7.481
30387WAT      O91402   3.947   3.681   5.609
30387WAT     H191403   3.948   3.668   5.709
30387WAT     H291404   3.886   3.757   5.586
30388WAT      O91405   3.684   2.273   0.732
30388WAT     H191406   3.760   2.289   0.669
30388WAT     H291407   3.696   2.330   0.814
30389WAT      O91408   1.407   7.870   8.867
30389WAT     H191409   1.427   7.861   8.769
30389WAT     H291410   1.478   7.925   8.910
30390WAT      O91411   3.255   1.437   7.818
30390WAT     H191412   3.297   1.507   7.760
30390WAT     H291413   3.323   1.405   7.885
30391WAT      O91414   8.922   0.259   8.539
30391WAT     H191415   8.844   0.222   8.488
30391WAT     H291416   9.001   0.200   8.525
30392WAT      O91417   7.116   1.072   5.660
30392WAT     H191418   7.200   1.062   5.713
30392WAT     H291419   7.098   1.169   5.643
30393WAT      O91420   5.770   9.581   2.950
30393WAT     H191421   5.763   9.643   3.028
30393WAT     H291422   5.865   9.576   2.919
30394WAT      O91423   5.860   8.763   8.565
30394WAT     H191424   5.776   8.709   8.564
30394WAT     H291425   5.937   8.705   8.591
30395WAT      O91426   6.333   6.148   4.286
30395WAT     H191427   6.240   6.129   4.256
30395WAT     H291428   6.375   6.063   4.319
30396WAT      O91429   8.009   8.559   8.957
30396WAT     H191430   7.988   8.478   8.903
30396WAT     H291431   8.079   8.613   8.910
30397WAT      O91432   3.965   2.642   0.141
30397WAT     H191433   3.981   2.544   0.140
30397WAT     H291434   3.884   2.662   0.197
30398WAT      O91435   5.931   1.994   4.145
30398WAT     H191436   6.020   2.026   4.179
30398WAT     H291437   5.895   2.062   4.081
30399WAT      O91438   0.240   3.693   5.169
30399WAT     H191439   0.308   3.619   5.172
30399WAT     H291440   0.152   3.658   5.201
30400WAT      O91441   4.150   9.702   5.207
30400WAT     H191442   4.145   9.790   5.255
30400WAT     H291443   4.217   9.643   5.253
30401WAT      O91444   3.469   4.610   9.736
30401WAT     H191445   3.383   4.610   9.786
30401WAT     H291446   3.522   4.528   9.760
30402WAT      O91447   4.582   8.894   1.846
30402WAT     H191448   4.546   8.801   1.839
30402WAT     H291449   4.554   8.947   1.765
30403WAT      O91450   1.155   1.553   9.673
30403WAT     H191451   1.148   1.461   9.711
30403WAT     H291452   1.204   1.549   9.586
30404WAT      O91453   7.390   1.753   2.970
30404WAT     H191454   7.334   1.690   2.918
30404WAT     H291455   7.420   1.828   2.911
30405WAT      O91456   6.306   2.331   7.099
30405WAT     H191457   6.303   2.308   7.002
30405WAT     H291458   6.364   2.412   7.112
30406WAT      O91459   5.856   9.015   5.402
30406WAT     H191460   5.827   9.109   5.385
30406WAT     H291461   5.782   8.952   5.378
30407WAT      O91462   4.508   5.998   5.366
30407WAT     H191463   4.414   6.024   5.390
30407WAT     H291464   4.566   6.080   5.368
30408WAT      O91465   5.256   6.556   9.697
30408WAT     H191466   5.194   6.526   9.770
30408WAT     H291467   5.239   6.502   9.614
30409WAT      O91468   2.948   3.948   9.637
30409WAT     H191469   2.885   3.950   9.559
30409WAT     H291470   2.906   3.898   9.712
30410WAT      O91471   7.580   4.819   2.936
30410WAT     H191472   7.513   4.792   2.867
30410WAT     H291473   7.568   4.762   3.018
30411WAT      O91474   1.451   8.801   5.227
30411WAT     H191475   1.502   8.848   5.155
30411WAT     H291476   1.356   8.791   5.201
30412WAT      O91477   1.014   3.464   2.521
30412WAT     H191478   0.949   3.407   2.473
30412WAT     H291479   1.097   3.412   2.540
30413WAT      O91480   2.082   6.358   1.422
30413WAT     H191481   2.007   6.332   1.482
30413WAT     H291482   2.129   6.438   1.460
30414WAT      O91483   8.032   0.781   9.651
30414WAT     H191484   8.047   0.880   9.649
30414WAT     H291485   7.969   0.755   9.579
30415WAT      O91486   2.944   7.229   1.142
30415WAT     H191487   3.034   7.202   1.106
30415WAT     H291488   2.951   7.320   1.184
30416WAT      O91489   4.047   4.795   4.484
30416WAT     H191490   3.972   4.769   4.545
30416WAT     H291491   4.046   4.736   4.403
30417WAT      O91492   1.854   4.883   6.991
30417WAT     H191493   1.802   4.902   7.074
30417WAT     H291494   1.832   4.951   6.921
30418WAT      O91495   8.296   3.340   5.584
30418WAT     H191496   8.248   3.259   5.551
30418WAT     H291497   8.265   3.362   5.676
30419WAT      O91498   8.164   7.413   3.238
30419WAT     H191499   8.207   7.329   3.206
30419WAT     H291500   8.066   7.410   3.219
30420WAT      O91501   0.915   0.489   9.595
30420WAT     H191502   0.829   0.539   9.592
30420WAT     H291503   0.984   0.539   9.542
30421WAT      O91504   3.950   0.584   7.165
30421WAT     H191505   3.908   0.606   7.253
30421WAT     H291506   3.957   0.667   7.110
30422WAT      O91507   3.481   6.599   0.732
30422WAT     H191508   3.535   6.524   0.771
30422WAT     H291509   3.491   6.600   0.633
30423WAT      O91510   0.135   9.459   1.633
30423WAT     H191511   0.036   9.460   1.648
30423WAT     H291512   0.154   9.493   1.541
30424WAT      O91513   7.726   7.717   1.139
30424WAT     H191514   7.658   7.704   1.067
30424WAT     H291515   7.815   7.683   1.106
30425WAT      O91516   5.464   7.793   5.830
30425WAT     H191517   5.533   7.864   5.824
30425WAT     H291518   5.375   7.830   5.801
30426WAT      O91519   8.428   0.085   7.655
30426WAT     H191520   8.391   0.134   7.576
30426WAT     H291521   8.378  -0.001   7.667
30427WAT      O91522   4.577   5.883   0.831
30427WAT     H191523   4.546   5.965   0.784
30427WAT     H291524   4.504   5.847   0.889
30428WAT      O91525   3.558   5.276   4.524
30428WAT     H191526   3.482   5.228   4.568
30428WAT     H291527   3.533   5.370   4.505
30429WAT      O91528   8.597   9.791   5.739
30429WAT     H191529   8.575   9.885   5.713
30429WAT     H291530   8.682   9.790   5.792
30430WAT      O91531   4.874   1.802   0.107
30430WAT     H191532   4.906   1.845   0.191
30430WAT     H291533   4.939   1.730   0.081
30431WAT      O91534   3.704   5.068   1.376
30431WAT     H191535   3.759   5.139   1.332
30431WAT     H291536   3.746   4.979   1.361
30432WAT      O91537   9.240   1.646   8.039
30432WAT     H191538   9.150   1.689   8.047
30432WAT     H291539   9.235   1.552   8.072
30433WAT      O91540   7.175   8.459   8.692
30433WAT     H191541   7.208   8.367   8.673
30433WAT     H291542   7.149   8.504   8.607
30434WAT      O91543   7.800   3.969   5.393
30434WAT     H191544   7.721   3.993   5.449
30434WAT     H291545   7.779   3.887   5.339
30435WAT      O91546   7.351   5.699   2.839
30435WAT     H191547   7.268   5.649   2.864
30435WAT     H291548   7.362   5.778   2.900
30436WAT      O91549   3.012   7.905   4.755
30436WAT     H191550   3.012   7.818   4.805
30436WAT     H291551   3.017   7.981   4.820
30437WAT      O91552   3.171   0.436   5.645
30437WAT     H191553   3.266   0.406   5.634
30437WAT     H291554   3.110   0.357   5.635
30438WAT      O91555   8.051   5.812   6.900
30438WAT     H191556   8.131   5.816   6.839
30438WAT     H291557   7.968   5.809   6.845
30439WAT      O91558   9.649   3.276   1.748
30439WAT     H191559   9.656   3.375   1.731
30439WAT     H291560   9.729   3.245   1.798
30440WAT      O91561   6.553   4.399   6.946
30440WAT     H191562   6.619   4.470   6.972
30440WAT     H291563   6.493   4.381   7.024
30441WAT      O91564   8.245   5.996   5.689
30441WAT     H191565   8.290   5.914   5.654
30441WAT     H291566   8.249   6.069   5.620
30442WAT      O91567   4.849   9.796   4.870
30442WAT     H191568   4.925   9.860   4.871
30442WAT     H291569   4.776   9.832   4.811
30443WAT      O91570   3.447   4.356   6.301
30443WAT     H191571   3.396   4.303   6.233
30443WAT     H291572   3.525   4.303   6.334
30444WAT      O91573   5.956   2.816   3.576
30444WAT     H191574   5.890   2.890   3.591
30444WAT     H291575   5.928   2.736   3.628
30445WAT      O91576   2.764   8.613   4.149
30445WAT     H191577   2.784   8.686   4.213
30445WAT     H291578   2.672   8.625   4.112
30446WAT      O91579   8.827   9.459   0.384
30446WAT     H191580   8.843   9.426   0.477
30446WAT     H291581   8.774   9.543   0.386
30447WAT      O91582   2.796   4.051   2.189
30447WAT     H191583   2.750   3.995   2.121
30447WAT     H291584   2.790   4.007   2.279
30448WAT      O91585   4.908   3.858   6.749
30448WAT     H191586   4.981   3.812   6.699
30448WAT     H291587   4.819   3.826   6.716
30449WAT      O91588   4.753   0.747   7.290
30449WAT     H191589   4.738   0.689   7.370
30449WAT     H291590   4.816   0.821   7.313
30450WAT      O91591   5.218   6.184   3.581
30450WAT     H191592   5.272   6.244   3.522
30450WAT     H291593   5.133   6.231   3.607
30451WAT      O91594   1.091   6.259   3.920
30451WAT     H191595   1.002   6.264   3.874
30451WAT     H291596   1.162   6.239   3.853
30452WAT      O91597   3.160   9.734   0.028
30452WAT     H191598   3.179   9.827  -0.006
30452WAT     H291599   3.121   9.679  -0.046
30453WAT      O91600   1.733   5.381   9.067
30453WAT     H191601   1.797   5.351   9.138
30453WAT     H291602   1.717   5.479   9.076
30454WAT      O91603   2.826   1.758   8.044
30454WAT     H191604   2.813   1.842   8.097
30454WAT     H291605   2.870   1.689   8.101
30455WAT      O91606   4.682   7.072   2.650
30455WAT     H191607   4.621   7.121   2.588
30455WAT     H291608   4.723   7.138   2.714
30456WAT      O91609   7.962   8.895   0.134
30456WAT     H191610   7.898   8.848   0.195
30456WAT     H291611   8.054   8.856   0.145
30457WAT      O91612   9.472   4.234   5.546
30457WAT     H191613   9.374   4.246   5.562
30457WAT     H291614   9.523   4.299   5.601
30458WAT      O91615   0.664   9.159   4.313
30458WAT     H191616   0.634   9.209   4.232
30458WAT     H291617   0.724   9.217   4.367
30459WAT      O91618   5.151   9.781   3.447
30459WAT     H191619   5.166   9.789   3.349
30459WAT     H291620   5.174   9.688   3.477
30460WAT      O91621   6.015   8.201   9.734
30460WAT     H191622   6.011   8.139   9.813
30460WAT     H291623   6.101   8.187   9.685
30461WAT      O91624   4.591   7.685   6.289
30461WAT     H191625   4.678   7.715   6.327
30461WAT     H291626   4.516   7.736   6.332
30462WAT      O91627   3.499   6.444   8.142
30462WAT     H191628   3.586   6.404   8.169
30462WAT     H291629   3.471   6.405   8.054
30463WAT      O91630   7.145   5.679   7.634
30463WAT     H191631   7.104   5.602   7.584
30463WAT     H291632   7.092   5.762   7.618
30464WAT      O91633   8.209   5.291   2.315
30464WAT     H191634   8.146   5.313   2.241
30464WAT     H291635   8.163   5.304   2.403
30465WAT      O91636   5.955   0.470   3.702
30465WAT     H191637   5.904   0.555   3.716
30465WAT     H291638   5.932   0.404   3.773
30466WAT      O91639   5.646   0.257   4.913
30466WAT     H191640   5.572   0.324   4.899
30466WAT     H291641   5.690   0.238   4.825
30467WAT      O91642   9.302   4.693   9.880
30467WAT     H191643   9.232   4.649   9.824
30467WAT     H291644   9.262   4.772   9.926
30468WAT      O91645   4.935   7.193   7.132
30468WAT     H191646   4.954   7.254   7.055
30468WAT     H291647   4.924   7.247   7.215
30469WAT      O91648   6.804   8.677   4.018
30469WAT     H191649   6.760   8.596   4.056
30469WAT     H291650   6.829   8.739   4.093
30470WAT      O91651   3.878   5.332   3.267
30470WAT     H191652   3.836   5.418   3.298
30470WAT     H291653   3.819   5.289   3.198
30471WAT      O91654   2.790   5.539   3.628
30471WAT     H191655   2.692   5.559   3.628
30471WAT     H291656   2.804   5.440   3.619
30472WAT      O91657   8.863   0.848   4.122
30472WAT     H191658   8.829   0.755   4.111
30472WAT     H291659   8.787   0.909   4.145
30473WAT      O91660   2.904   8.553   5.045
30473WAT     H191661   2.918   8.609   5.127
30473WAT     H291662   2.808   8.525   5.040
30474WAT      O91663   4.784   6.816   2.793
30474WAT     H191664   4.817   6.874   2.718
30474WAT     H291665   4.693   6.782   2.772
30475WAT      O91666   8.604   7.381   9.759
30475WAT     H191667   8.578   7.321   9.834
30475WAT     H291668   8.645   7.465   9.796
30476WAT      O91669   7.396   7.263   1.474
30476WAT     H191670   7.447   7.178   1.460
30476WAT     H291671   7.422   7.305   1.561
30477WAT      O91672   0.657   6.314   5.667
30477WAT     H191673   0.634   6.380   5.739
30477WAT     H291674   0.755   6.317   5.648
30478WAT      O91675   3.590   5.301   5.717
30478WAT     H191676   3.531   5.381   5.705
30478WAT     H291677   3.661   5.322   5.784
30479WAT      O91678   8.149   9.427   6.940
30479WAT     H191679   8.069   9.441   6.998
30479WAT     H291680   8.225   9.484   6.973
30480WAT      O91681   7.626   1.051   0.302
30480WAT     H191682   7.607   0.974   0.242
30480WAT     H291683   7.540   1.095   0.327
30481WAT      O91684   6.771   9.084   1.611
30481WAT     H191685   6.693   9.117   1.557
30481WAT     H291686   6.792   8.989   1.585
30482WAT      O91687   7.977   1.054   3.599
30482WAT     H191688   8.045   1.126   3.583
30482WAT     H291689   8.023   0.971   3.631
30483WAT      O91690   1.480   2.598   3.725
30483WAT     H191691   1.458   2.651   3.807
30483WAT     H291692   1.532   2.655   3.661
30484WAT      O91693   2.583   4.426   5.177
30484WAT     H191694   2.580   4.418   5.277
30484WAT     H291695   2.670   4.390   5.143
30485WAT      O91696   1.792   2.936   5.010
30485WAT     H191697   1.796   3.020   4.955
30485WAT     H291698   1.850   2.867   4.968
30486WAT      O91699   6.980   8.055   2.865
30486WAT     H191700   7.019   7.968   2.894
30486WAT     H291701   7.005   8.126   2.932
30487WAT      O91702   1.109   9.503   9.543
30487WAT     H191703   1.153   9.530   9.458
30487WAT     H291704   1.172   9.445   9.596
30488WAT      O91705   6.871   2.341   6.268
30488WAT     H191706   6.878   2.275   6.343
30488WAT     H291707   6.782   2.387   6.272
30489WAT      O91708   9.096   7.544   4.784
30489WAT     H191709   9.138   7.546   4.693
30489WAT     H291710   9.168   7.530   4.852
30490WAT      O91711   5.744   7.225   5.729
30490WAT     H191712   5.787   7.270   5.651
30490WAT     H291713   5.809   7.159   5.769
30491WAT      O91714   4.641   0.763   5.246
30491WAT     H191715   4.653   0.700   5.322
30491WAT     H291716   4.543   0.778   5.230
30492WAT      O91717   6.347   2.036   5.393
30492WAT     H191718   6.350   2.132   5.363
30492WAT     H291719   6.434   2.013   5.437
30493WAT      O91720   3.203   2.418   6.293
30493WAT     H191721   3.293   2.406   6.333
30493WAT     H291722   3.140   2.351   6.332
30494WAT      O91723   9.473   1.142   8.204
30494WAT     H191724   9.495   1.146   8.107
30494WAT     H291725   9.458   1.235   8.239
30495WAT      O91726   6.669   7.779   1.007
30495WAT     H191727   6.707   7.827   0.928
30495WAT     H291728   6.692   7.681   1.001
30496WAT      O91729   4.565   6.757   1.545
30496WAT     H191730   4.598   6.663   1.551
30496WAT     H291731   4.643   6.819   1.531
30497WAT      O91732   9.511   8.928   1.111
30497WAT     H191733   9.480   8.833   1.123
30497WAT     H291734   9.503   8.977   1.197
30498WAT      O91735   2.123   1.837   3.451
30498WAT     H191736   2.129   1.927   3.496
30498WAT     H291737   2.183   1.773   3.499
30499WAT      O91738   7.834   2.371   6.386
30499WAT     H191739   7.741   2.393   6.359
30499WAT     H291740   7.856   2.278   6.356
30500WAT      O91741   7.355   0.880   8.714
30500WAT     H191742   7.323   0.928   8.632
30500WAT     H291743   7.451   0.854   8.701
30501WAT      O91744   2.867   1.022   7.520
30501WAT     H191745   2.784   1.077   7.530
30501WAT     H291746   2.866   0.975   7.431
30502WAT      O91747   4.686   8.624   2.531
30502WAT     H191748   4.664   8.701   2.592
30502WAT     H291749   4.703   8.659   2.439
30503WAT      O91750   1.813   1.813   8.029
30503WAT     H191751   1.837   1.741   7.964
30503WAT     H291752   1.764   1.772   8.107
30504WAT      O91753   1.102   4.684   9.019
30504WAT     H191754   1.063   4.656   9.106
30504WAT     H291755   1.132   4.780   9.024
30505WAT      O91756   3.163   6.398   3.008
30505WAT     H191757   3.248   6.360   3.045
30505WAT     H291758   3.116   6.328   2.954
30506WAT      O91759   9.133   7.149   8.398
30506WAT     H191760   9.084   7.063   8.411
30506WAT     H291761   9.155   7.161   8.301
30507WAT      O91762   4.079   1.432   7.939
30507WAT     H191763   4.142   1.395   7.871
30507WAT     H291764   4.099   1.529   7.953
30508WAT      O91765   5.672   7.024   9.769
30508WAT     H191766   5.689   7.113   9.813
30508WAT     H291767   5.759   6.981   9.747
30509WAT      O91768   9.483   4.993   5.580
30509WAT     H191769   9.455   5.079   5.540
30509WAT     H291770   9.495   5.004   5.679
30510WAT      O91771   5.705   6.453   8.263
30510WAT     H191772   5.747   6.421   8.349
30510WAT     H291773   5.755   6.415   8.186
30511WAT      O91774   1.265   7.261   6.255
30511WAT     H191775   1.275   7.262   6.156
30511WAT     H291776   1.324   7.330   6.296
30512WAT      O91777   4.619   8.902   5.243
30512WAT     H191778   4.615   8.812   5.199
30512WAT     H291779   4.532   8.920   5.289
30513WAT      O91780   3.973   3.729   5.324
30513WAT     H191781   3.947   3.825   5.313
30513WAT     H291782   3.970   3.704   5.421
30514WAT      O91783   4.661   0.033   6.118
30514WAT     H191784   4.710  -0.016   6.189
30514WAT     H291785   4.722   0.102   6.077
30515WAT      O91786   9.727   8.094   6.803
30515WAT     H191787   9.698   8.139   6.718
30515WAT     H291788   9.662   8.116   6.876
30516WAT      O91789   2.361   9.371   8.162
30516WAT     H191790   2.263   9.372   8.185
30516WAT     H291791   2.402   9.457   8.192
30517WAT      O91792   2.545   8.780   7.478
30517WAT     H191793   2.546   8.827   7.566
30517WAT     H291794   2.632   8.793   7.431
30518WAT      O91795   1.995   8.223   1.778
30518WAT     H191796   2.012   8.165   1.698
30518WAT     H291797   2.005   8.169   1.861
30519WAT      O91798   0.532   5.422   5.006
30519WAT     H191799   0.437   5.395   5.020
30519WAT     H291800   0.567   5.468   5.088
30520WAT      O91801   9.798   1.104   5.392
30520WAT     H191802   9.763   1.183   5.443
30520WAT     H291803   9.789   1.022   5.448
30521WAT      O91804   2.080   9.709   4.821
30521WAT     H191805   2.177   9.719   4.844
30521WAT     H291806   2.042   9.798   4.795
30522WAT      O91807   7.876   2.943   6.263
30522WAT     H191808   7.791   2.892   6.260
30522WAT     H291809   7.858   3.040   6.244
30523WAT      O91810   6.445   7.653   0.578
30523WAT     H191811   6.544   7.650   0.569
30523WAT     H291812   6.419   7.617   0.668
30524WAT      O91813   2.522   4.060   8.008
30524WAT     H191814   2.428   4.027   8.012
30524WAT     H291815   2.545   4.086   7.914
30525WAT      O91816   5.755   0.510   1.633
30525WAT     H191817   5.789   0.421   1.660
30525WAT     H291818   5.678   0.499   1.571
30526WAT      O91819   0.652   9.569   5.790
30526WAT     H191820   0.554   9.588   5.804
30526WAT     H291821   0.669   9.472   5.807
30527WAT      O91822   9.463   6.447   9.549
30527WAT     H191823   9.377   6.407   9.578
30527WAT     H291824   9.451   6.545   9.533
30528WAT      O91825   6.347   9.741   5.667
30528WAT     H191826   6.431   9.695   5.641
30528WAT     H291827   6.269   9.681   5.651
30529WAT      O91828   6.720   1.472   3.685
30529WAT     H191829   6.808   1.498   3.647
30529WAT     H291830   6.665   1.428   3.613
30530WAT      O91831   0.989   4.999   9.526
30530WAT     H191832   1.015   5.075   9.586
30530WAT     H291833   0.935   4.933   9.579
30531WAT      O91834   2.571   9.209   9.093
30531WAT     H191835   2.478   9.245   9.096
30531WAT     H291836   2.570   9.118   9.051
30532WAT      O91837   5.321   4.232   0.607
30532WAT     H191838   5.383   4.209   0.532
30532WAT     H291839   5.325   4.160   0.676
30533WAT      O91840   7.424   3.029   7.265
30533WAT     H191841   7.468   3.113   7.297
30533WAT     H291842   7.459   2.951   7.317
30534WAT      O91843   8.894   6.565   1.366
30534WAT     H191844   8.803   6.533   1.339
30534WAT     H291845   8.963   6.502   1.332
30535WAT      O91846   0.618   1.268   8.033
30535WAT     H191847   0.569   1.352   8.008
30535WAT     H291848   0.716   1.288   8.039
30536WAT      O91849   6.113   7.089   5.128
30536WAT     H191850   6.109   7.038   5.214
30536WAT     H291851   6.207   7.088   5.093
30537WAT      O91852   0.467   2.605   9.560
30537WAT     H191853   0.495   2.553   9.641
30537WAT     H291854   0.372   2.584   9.538
30538WAT      O91855   0.169   5.088   4.322
30538WAT     H191856   0.210   5.146   4.393
30538WAT     H291857   0.088   5.134   4.285
30539WAT      O91858   1.558   7.057   7.353
30539WAT     H191859   1.480   7.000   7.328
30539WAT     H291860   1.630   6.998   7.391
30540WAT      O91861   6.464   8.416   4.145
30540WAT     H191862   6.557   8.432   4.178
30540WAT     H291863   6.399   8.458   4.208
30541WAT      O91864   0.743   1.080   0.792
30541WAT     H191865   0.669   1.047   0.851
30541WAT     H291866   0.764   1.011   0.723
30542WAT      O91867   9.407   8.802   5.639
30542WAT     H191868   9.481   8.736   5.656
30542WAT     H291869   9.438   8.894   5.663
30543WAT      O91870   6.833   9.445   7.825
30543WAT     H191871   6.797   9.534   7.796
30543WAT     H291872   6.881   9.401   7.749
30544WAT      O91873   1.085   6.712   9.887
30544WAT     H191874   1.178   6.695   9.856
30544WAT     H291875   1.020   6.668   9.824
30545WAT      O91876   9.236   3.810   9.030
30545WAT     H191877   9.239   3.792   8.932
30545WAT     H291878   9.265   3.904   9.048
30546WAT      O91879   5.080   0.375   8.037
30546WAT     H191880   5.173   0.410   8.046
30546WAT     H291881   5.021   0.445   7.997
30547WAT      O91882   0.152   5.479   1.045
30547WAT     H191883   0.179   5.558   0.990
30547WAT     H291884   0.130   5.402   0.985
30548WAT      O91885   6.431   7.405   9.864
30548WAT     H191886   6.528   7.410   9.887
30548WAT     H291887   6.384   7.345   9.928
30549WAT      O91888   3.955   0.091   3.908
30549WAT     H191889   4.025   0.043   3.961
30549WAT     H291890   3.965   0.066   3.811
30550WAT      O91891   8.951   8.050   5.435
30550WAT     H191892   8.969   8.015   5.343
30550WAT     H291893   9.033   8.038   5.491
30551WAT      O91894   1.515   7.456   7.093
30551WAT     H191895   1.559   7.440   7.181
30551WAT     H291896   1.538   7.548   7.060
30552WAT      O91897   9.397   4.957   2.740
30552WAT     H191898   9.328   5.016   2.699
30552WAT     H291899   9.435   5.000   2.822
30553WAT      O91900   5.431   9.673   1.477
30553WAT     H191901   5.382   9.669   1.390
30553WAT     H291902   5.459   9.767   1.495
30554WAT      O91903   5.124   5.930   1.147
30554WAT     H191904   5.100   5.833   1.145
30554WAT     H291905   5.178   5.949   1.230
30555WAT      O91906   4.967   4.871   9.235
30555WAT     H191907   5.037   4.843   9.169
30555WAT     H291908   4.880   4.884   9.188
30556WAT      O91909   1.482   9.026   6.018
30556WAT     H191910   1.413   8.999   5.950
30556WAT     H291911   1.439   9.087   6.085
30557WAT      O91912   2.518   4.706   1.657
30557WAT     H191913   2.518   4.802   1.631
30557WAT     H291914   2.561   4.652   1.585
30558WAT      O91915   5.215   5.351   8.273
30558WAT     H191916   5.210   5.318   8.367
30558WAT     H291917   5.307   5.335   8.236
30559WAT      O91918   4.478   4.370   2.648
30559WAT     H191919   4.463   4.417   2.735
30559WAT     H291920   4.568   4.329   2.647
30560WAT      O91921   2.008   3.130   0.971
30560WAT     H191922   2.087   3.069   0.974
30560WAT     H291923   2.036   3.220   0.936
30561WAT      O91924   1.637   9.499   2.669
30561WAT     H191925   1.629   9.559   2.749
30561WAT     H291926   1.734   9.488   2.645
30562WAT      O91927   0.717   9.697   1.917
30562WAT     H191928   0.740   9.611   1.963
30562WAT     H291929   0.622   9.694   1.885
30563WAT      O91930   2.388   1.409   6.638
30563WAT     H191931   2.480   1.379   6.664
30563WAT     H291932   2.386   1.509   6.632
30564WAT      O91933   3.454   2.928   3.832
30564WAT     H191934   3.484   2.914   3.927
30564WAT     H291935   3.368   2.978   3.831
30565WAT      O91936   0.062   8.708   7.128
30565WAT     H191937   0.046   8.637   7.196
30565WAT     H291938   0.085   8.794   7.174
30566WAT      O91939   0.489   3.088   1.266
30566WAT     H191940   0.411   3.149   1.282
30566WAT     H291941   0.552   3.095   1.343
30567WAT      O91942   6.268   0.200   7.134
30567WAT     H191943   6.201   0.249   7.078
30567WAT     H291944   6.242   0.104   7.142
30568WAT      O91945   8.132   1.203   9.383
30568WAT     H191946   8.108   1.185   9.287
30568WAT     H291947   8.192   1.282   9.388
30569WAT      O91948   3.169   3.762   4.902
30569WAT     H191949   3.175   3.662   4.905
30569WAT     H291950   3.201   3.795   4.813
30570WAT      O91951   4.864   2.646   9.175
30570WAT     H191952   4.789   2.615   9.116
30570WAT     H291953   4.951   2.624   9.132
30571WAT      O91954   7.050   7.904   9.053
30571WAT     H191955   6.978   7.967   9.023
30571WAT     H291956   7.123   7.954   9.098
30572WAT      O91957   6.272   6.511   1.984
30572WAT     H191958   6.313   6.479   1.899
30572WAT     H291959   6.328   6.480   2.061
30573WAT      O91960   5.453   2.844   0.409
30573WAT     H191961   5.411   2.834   0.319
30573WAT     H291962   5.485   2.755   0.441
30574WAT      O91963   6.299   3.871   4.476
30574WAT     H191964   6.263   3.790   4.429
30574WAT     H291965   6.238   3.895   4.552
30575WAT      O91966   9.643   9.129   8.836
30575WAT     H191967   9.618   9.214   8.883
30575WAT     H291968   9.647   9.146   8.738
30576WAT      O91969   8.490   3.605   0.120
30576WAT     H191970   8.586   3.597   0.146
30576WAT     H291971   8.471   3.546   0.041
30577WAT      O91972   9.272   3.915   8.519
30577WAT     H191973   9.262   4.015   8.512
30577WAT     H291974   9.347   3.884   8.461
30578WAT      O91975   1.513   5.821   5.875
30578WAT     H191976   1.450   5.897   5.891
30578WAT     H291977   1.547   5.825   5.781
30579WAT      O91978   7.273   4.246   8.105
30579WAT     H191979   7.275   4.285   8.197
30579WAT     H291980   7.346   4.180   8.094
30580WAT      O91981   7.564   1.585   1.156
30580WAT     H191982   7.639   1.642   1.189
30580WAT     H291983   7.525   1.534   1.232
30581WAT      O91984   5.275   0.075   9.216
30581WAT     H191985   5.181   0.097   9.191
30581WAT     H291986   5.296   0.117   9.304
30582WAT      O91987   5.294   6.830   4.189
30582WAT     H191988   5.374   6.859   4.240
30582WAT     H291989   5.211   6.857   4.238
30583WAT      O91990   0.882   7.660   9.343
30583WAT     H191991   0.791   7.625   9.319
30583WAT     H291992   0.948   7.628   9.275
30584WAT      O91993   9.365   0.600   9.120
30584WAT     H191994   9.280   0.616   9.171
30584WAT     H291995   9.428   0.546   9.176
30585WAT      O91996   3.962   5.961   0.733
30585WAT     H191997   3.910   5.876   0.746
30585WAT     H291998   3.965   6.011   0.820
30586WAT      O91999   5.275   8.980   0.122
30586WAT     H192000   5.284   8.885   0.093
30586WAT     H292001   5.359   9.030   0.100
30587WAT      O92002   3.810   5.253   4.328
30587WAT     H192003   3.740   5.202   4.380
30587WAT     H292004   3.879   5.189   4.295
30588WAT      O92005   9.825   3.647   3.653
30588WAT     H192006   9.793   3.735   3.688
30588WAT     H292007   9.837   3.653   3.554
30589WAT      O92008   2.979   0.661   0.965
30589WAT     H192009   2.970   0.570   1.005
30589WAT     H292010   2.894   0.711   0.977
30590WAT      O92011   4.197   9.664   2.929
30590WAT     H192012   4.208   9.609   3.011
30590WAT     H292013   4.281   9.662   2.876
30591WAT      O92014   0.584   3.062   4.296
30591WAT     H192015   0.659   3.122   4.326
30591WAT     H292016   0.502   3.117   4.280
30592WAT      O92017   4.706   4.128   0.327
30592WAT     H192018   4.663   4.130   0.417
30592WAT     H292019   4.656   4.188   0.265
30593WAT      O92020   3.133   0.673   8.682
30593WAT     H192021   3.184   0.757   8.662
30593WAT     H292022   3.180   0.595   8.642
30594WAT      O92023   4.237   0.937   4.139
30594WAT     H192024   4.156   0.973   4.094
30594WAT     H292025   4.311   0.927   4.073
30595WAT      O92026   7.309   1.298   8.739
30595WAT     H192027   7.277   1.390   8.762
30595WAT     H292028   7.352   1.299   8.649
30596WAT      O92029   1.938   0.887   1.858
30596WAT     H192030   1.944   0.862   1.761
30596WAT     H292031   1.842   0.886   1.886
30597WAT      O92032   6.417   1.344   9.825
30597WAT     H192033   6.391   1.263   9.878
30597WAT     H292034   6.347   1.414   9.835
30598WAT      O92035   9.709   1.131   1.239
30598WAT     H192036   9.673   1.065   1.172
30598WAT     H292037   9.784   1.182   1.198
30599WAT      O92038   3.757   1.258   4.990
30599WAT     H192039   3.680   1.216   4.942
30599WAT     H292040   3.723   1.315   5.064
30600WAT      O92041   3.470   2.669   5.059
30600WAT     H192042   3.519   2.632   5.139
30600WAT     H292043   3.400   2.733   5.090
30601WAT      O92044   1.341   6.689   3.924
30601WAT     H192045   1.420   6.650   3.971
30601WAT     H292046   1.312   6.628   3.850
30602WAT      O92047   3.748   2.381   3.713
30602WAT     H192048   3.844   2.366   3.732
30602WAT     H292049   3.732   2.479   3.699
30603WAT      O92050   2.482   9.553   7.132
30603WAT     H192051   2.570   9.557   7.085
30603WAT     H292052   2.496   9.524   7.227
30604WAT      O92053   2.089   7.678   0.053
30604WAT     H192054   2.041   7.736   0.119
30604WAT     H292055   2.120   7.734  -0.024
30605WAT      O92056   6.421   8.903   9.601
30605WAT     H192057   6.415   8.804   9.615
30605WAT     H292058   6.428   8.949   9.690
30606WAT      O92059   6.939   2.454   9.069
30606WAT     H192060   6.875   2.405   9.128
30606WAT     H292061   6.973   2.391   8.998
30607WAT      O92062   0.728   4.310   8.293
30607WAT     H192063   0.745   4.229   8.348
30607WAT     H292064   0.694   4.384   8.351
30608WAT      O92065   7.686   4.917   8.921
30608WAT     H192066   7.714   4.857   8.996
30608WAT     H292067   7.695   5.012   8.949
30609WAT      O92068   8.097   2.947   7.574
30609WAT     H192069   8.015   2.932   7.630
30609WAT     H292070   8.141   3.032   7.602
30610WAT      O92071   1.654   9.491   0.254
30610WAT     H192072   1.654   9.587   0.227
30610WAT     H292073   1.748   9.462   0.272
30611WAT      O92074   0.573   4.727   4.063
30611WAT     H192075   0.655   4.759   4.017
30611WAT     H292076   0.593   4.706   4.158
30612WAT      O92077   3.787   6.551   5.896
30612WAT     H192078   3.741   6.616   5.835
30612WAT     H292079   3.829   6.478   5.842
30613WAT      O92080   5.666   7.111   2.827
30613WAT     H192081   5.744   7.159   2.788
30613WAT     H292082   5.594   7.103   2.758
30614WAT      O92083   6.338   6.190   6.117
30614WAT     H192084   6.302   6.281   6.137
30614WAT     H292085   6.265   6.133   6.080
30615WAT      O92086   5.485   8.818   0.412
30615WAT     H192087   5.402   8.794   0.461
30615WAT     H292088   5.483   8.916   0.390
30616WAT      O92089   4.863   2.614   3.565
30616WAT     H192090   4.938   2.681   3.565
30616WAT     H292091   4.794   2.641   3.497
30617WAT      O92092   2.109   3.729   2.541
30617WAT     H192093   2.027   3.764   2.496
30617WAT     H292094   2.145   3.797   2.604
30618WAT      O92095   8.896   1.644   8.969
30618WAT     H192096   8.930   1.713   9.033
30618WAT     H292097   8.960   1.635   8.893
30619WAT      O92098   2.798   4.799   7.058
30619WAT     H192099   2.721   4.836   7.007
30619WAT     H292100   2.862   4.755   6.995
30620WAT      O92101   6.301   8.554   4.317
30620WAT     H192102   6.383   8.611   4.315
30620WAT     H292103   6.232   8.597   4.376
30621WAT      O92104   7.112   7.223   5.034
30621WAT     H192105   7.082   7.129   5.050
30621WAT     H292106   7.034   7.279   5.007
30622WAT      O92107   5.134   4.729   5.958
30622WAT     H192108   5.063   4.704   5.893
30622WAT     H292109   5.127   4.671   6.040
30623WAT      O92110   6.610   8.568   5.870
30623WAT     H192111   6.698   8.603   5.901
30623WAT     H292112   6.603   8.578   5.770
30624WAT      O92113   8.217   2.831   2.713
30624WAT     H192114   8.194   2.736   2.732
30624WAT     H292115   8.208   2.849   2.615
30625WAT      O92116   8.932   4.242   7.604
30625WAT     H192117   8.971   4.296   7.678
30625WAT     H292118   8.858   4.185   7.639
30626WAT      O92119   4.295   9.290   2.536
30626WAT     H192120   4.214   9.335   2.574
30626WAT     H292121   4.326   9.340   2.455
30627WAT      O92122   2.264   4.421   4.242
30627WAT     H192123   2.199   4.377   4.304
30627WAT     H292124   2.352   4.374   4.245
30628WAT      O92125   0.882   7.241   1.582
30628WAT     H192126   0.858   7.207   1.672
30628WAT     H292127   0.958   7.306   1.589
30629WAT      O92128   2.633   5.061   8.625
30629WAT     H192129   2.721   5.023   8.651
30629WAT     H292130   2.583   4.994   8.569
30630WAT      O92131   8.882   2.348   0.087
30630WAT     H192132   8.893   2.384   0.180
30630WAT     H292133   8.867   2.423   0.024
30631WAT      O92134   0.714   2.737   5.352
30631WAT     H192135   0.741   2.697   5.264
30631WAT     H292136   0.768   2.820   5.368
30632WAT      O92137   2.978   0.451   2.484
30632WAT     H192138   2.920   0.523   2.447
30632WAT     H292139   3.042   0.490   2.551
30633WAT      O92140   2.274   6.754   8.270
30633WAT     H192141   2.177   6.732   8.281
30633WAT     H292142   2.296   6.836   8.322
30634WAT      O92143   1.599   9.142   9.708
30634WAT     H192144   1.535   9.196   9.762
30634WAT     H292145   1.688   9.139   9.754
30635WAT      O92146   5.151   4.317   2.215
30635WAT     H192147   5.099   4.287   2.135
30635WAT     H292148   5.200   4.239   2.253
30636WAT      O92149   0.500   1.685   6.605
30636WAT     H192150   0.444   1.614   6.647
30636WAT     H292151   0.591   1.648   6.585
30637WAT      O92152   2.812   3.239   7.695
30637WAT     H192153   2.745   3.305   7.728
30637WAT     H292154   2.769   3.150   7.685
30638WAT      O92155   4.211   4.576   9.415
30638WAT     H192156   4.228   4.672   9.390
30638WAT     H292157   4.275   4.517   9.365
30639WAT      O92158   1.801   1.216   6.386
30639WAT     H192159   1.850   1.280   6.445
30639WAT     H292160   1.865   1.151   6.346
30640WAT      O92161   1.388   0.276   9.400
30640WAT     H192162   1.487   0.285   9.391
30640WAT     H292163   1.357   0.329   9.479
30641WAT      O92164   6.188   5.316   0.495
30641WAT     H192165   6.215   5.294   0.402
30641WAT     H292166   6.147   5.236   0.538
30642WAT      O92167   0.124   7.810   1.264
30642WAT     H192168   0.124   7.770   1.356
30642WAT     H292169   0.124   7.910   1.271
30643WAT      O92170   6.346   0.360   0.892
30643WAT     H192171   6.431   0.320   0.857
30643WAT     H292172   6.313   0.304   0.968
30644WAT      O92173   0.697   7.174   1.376
30644WAT     H192174   0.604   7.165   1.413
30644WAT     H292175   0.755   7.220   1.444
30645WAT      O92176   1.704   9.328   7.110
30645WAT     H192177   1.787   9.276   7.088
30645WAT     H292178   1.710   9.418   7.069
30646WAT      O92179   4.858   6.929   7.029
30646WAT     H192180   4.898   7.007   7.076
30646WAT     H292181   4.760   6.926   7.048
30647WAT      O92182   6.623   0.887   1.773
30647WAT     H192183   6.678   0.942   1.710
30647WAT     H292184   6.653   0.791   1.768
30648WAT      O92185   8.147   1.875   8.907
30648WAT     H192186   8.222   1.941   8.905
30648WAT     H292187   8.181   1.786   8.937
30649WAT      O92188   7.493   0.236   6.146
30649WAT     H192189   7.490   0.306   6.218
30649WAT     H292190   7.587   0.227   6.113
30650WAT      O92191   1.238   5.015   4.292
30650WAT     H192192   1.159   5.000   4.233
30650WAT     H292193   1.319   4.974   4.250
30651WAT      O92194   7.093   8.855   8.622
30651WAT     H192195   7.098   8.928   8.553
30651WAT     H292196   7.172   8.862   8.683
30652WAT      O92197   6.483   3.362   1.718
30652WAT     H192198   6.509   3.283   1.773
30652WAT     H292199   6.391   3.392   1.743
30653WAT      O92200   6.051   4.852   3.218
30653WAT     H192201   6.026   4.873   3.312
30653WAT     H292202   6.018   4.761   3.194
30654WAT      O92203   9.117   3.574   4.150
30654WAT     H192204   9.025   3.612   4.142
30654WAT     H292205   9.115   3.497   4.213
30655WAT      O92206   5.926   2.161   0.485
30655WAT     H192207   5.850   2.096   0.492
30655WAT     H292208   5.910   2.221   0.407
30656WAT      O92209   1.492   6.660   6.128
30656WAT     H192210   1.581   6.628   6.162
30656WAT     H292211   1.422   6.645   6.198
30657WAT      O92212   8.714   6.275   5.685
30657WAT     H192213   8.696   6.321   5.772
30657WAT     H292214   8.639   6.213   5.664
30658WAT      O92215   6.517   7.381   5.420
30658WAT     H192216   6.508   7.390   5.520
30658WAT     H292217   6.606   7.417   5.392
30659WAT      O92218   6.064   8.840   8.978
30659WAT     H192219   5.995   8.904   8.943
30659WAT     H292220   6.032   8.746   8.964
30660WAT      O92221   6.635   7.396   6.062
30660WAT     H192222   6.555   7.337   6.054
30660WAT     H292223   6.678   7.382   6.152
30661WAT      O92224   9.817   2.271   8.501
30661WAT     H192225   9.812   2.366   8.469
30661WAT     H292226   9.854   2.213   8.429
30662WAT      O92227   8.309   1.100   3.703
30662WAT     H192228   8.397   1.146   3.717
30662WAT     H292229   8.259   1.147   3.630
30663WAT      O92230   3.457   0.557   4.871
30663WAT     H192231   3.518   0.509   4.809
30663WAT     H292232   3.510   0.597   4.946
30664WAT      O92233   9.078   2.154   5.304
30664WAT     H192234   9.113   2.118   5.217
30664WAT     H292235   9.021   2.234   5.286
30665WAT      O92236   1.344   1.091   2.130
30665WAT     H192237   1.304   1.148   2.058
30665WAT     H292238   1.310   0.997   2.120
30666WAT      O92239   9.227   9.451   1.310
30666WAT     H192240   9.318   9.466   1.272
30666WAT     H292241   9.186   9.370   1.268
30667WAT      O92242   7.841   8.384   8.589
30667WAT     H192243   7.746   8.399   8.616
30667WAT     H292244   7.847   8.381   8.489
30668WAT      O92245   7.968   3.542   6.810
30668WAT     H192246   8.009   3.453   6.830
30668WAT     H292247   7.873   3.530   6.784
30669WAT      O92248   0.898   2.289   5.750
30669WAT     H192249   0.799   2.282   5.764
30669WAT     H292250   0.917   2.359   5.681
30670WAT      O92251   5.266   8.376   2.112
30670WAT     H192252   5.235   8.372   2.207
30670WAT     H292253   5.223   8.302   2.060
30671WAT      O92254   2.107   0.370   2.597
30671WAT     H192255   2.109   0.345   2.500
30671WAT     H292256   2.132   0.290   2.652
30672WAT      O92257   3.887   5.653   0.681
30672WAT     H192258   3.917   5.585   0.748
30672WAT     H292259   3.853   5.606   0.599
30673WAT      O92260   8.815   4.522   8.997
30673WAT     H192261   8.860   4.434   9.015
30673WAT     H292262   8.803   4.533   8.898
30674WAT      O92263   4.584   4.855   1.857
30674WAT     H192264   4.510   4.843   1.790
30674WAT     H292265   4.628   4.767   1.874
30675WAT      O92266   0.994   6.969   6.623
30675WAT     H192267   0.898   6.985   6.600
30675WAT     H292268   1.052   7.029   6.569
30676WAT      O92269   2.595   7.831   1.474
30676WAT     H192270   2.500   7.799   1.482
30676WAT     H292271   2.600   7.926   1.504
30677WAT      O92272   4.970   1.213   8.212
30677WAT     H192273   4.870   1.223   8.208
30677WAT     H292274   5.006   1.202   8.119
30678WAT      O92275   2.389   8.482   3.267
30678WAT     H192276   2.465   8.482   3.333
30678WAT     H292277   2.406   8.553   3.198
30679WAT      O92278   4.097   3.030   0.327
30679WAT     H192279   4.090   2.995   0.234
30679WAT     H292280   4.156   2.970   0.381
30680WAT      O92281   9.358   0.364   0.528
30680WAT     H192282   9.413   0.380   0.610
30680WAT     H292283   9.265   0.397   0.544
30681WAT      O92284   2.425   2.720   3.300
30681WAT     H192285   2.472   2.735   3.387
30681WAT     H292286   2.443   2.627   3.268
30682WAT      O92287   2.292   6.021   2.691
30682WAT     H192288   2.317   5.990   2.782
30682WAT     H292289   2.203   6.067   2.694
30683WAT      O92290   2.307   6.677   7.667
30683WAT     H192291   2.379   6.610   7.685
30683WAT     H292292   2.260   6.698   7.753
30684WAT      O92293   5.219   0.309   0.742
30684WAT     H192294   5.217   0.408   0.752
30684WAT     H292295   5.265   0.285   0.657
30685WAT      O92296   8.838   6.051   2.299
30685WAT     H192297   8.817   6.133   2.246
30685WAT     H292298   8.801   5.970   2.253
30686WAT      O92299   2.973   8.869   3.298
30686WAT     H192300   2.947   8.869   3.201
30686WAT     H292301   3.009   8.779   3.323
30687WAT      O92302   4.239   1.778   3.349
30687WAT     H192303   4.159   1.721   3.369
30687WAT     H292304   4.316   1.748   3.406
30688WAT      O92305   5.168   8.005   7.057
30688WAT     H192306   5.184   8.087   7.002
30688WAT     H292307   5.254   7.977   7.100
30689WAT      O92308   6.376   8.833   6.771
30689WAT     H192309   6.458   8.819   6.828
30689WAT     H292310   6.318   8.903   6.813
30690WAT      O92311   5.783   6.147   8.454
30690WAT     H192312   5.807   6.241   8.478
30690WAT     H292313   5.707   6.147   8.389
30691WAT      O92314   2.104   0.195   0.920
30691WAT     H192315   2.037   0.262   0.954
30691WAT     H292316   2.166   0.240   0.855
30692WAT      O92317   9.459   7.131   8.713
30692WAT     H192318   9.501   7.222   8.709
30692WAT     H292319   9.364   7.140   8.743
30693WAT      O92320   1.908   9.252   6.587
30693WAT     H192321   1.942   9.342   6.560
30693WAT     H292322   1.962   9.217   6.663
30694WAT      O92323   0.711   6.861   9.764
30694WAT     H192324   0.771   6.933   9.728
30694WAT     H292325   0.673   6.891   9.852
30695WAT      O92326   9.308   1.983   8.246
30695WAT     H192327   9.273   1.911   8.306
30695WAT     H292328   9.406   1.997   8.264
30696WAT      O92329   0.128   1.501   1.374
30696WAT     H192330   0.143   1.596   1.404
30696WAT     H292331   0.056   1.460   1.430
30697WAT      O92332   8.759   8.751   1.629
30697WAT     H192333   8.790   8.739   1.723
30697WAT     H292334   8.710   8.669   1.599
30698WAT      O92335   9.742   1.522   0.731
30698WAT     H192336   9.664   1.543   0.672
30698WAT     H292337   9.789   1.607   0.756
30699WAT      O92338   9.568   0.359   5.943
30699WAT     H192339   9.499   0.302   5.898
30699WAT     H292340   9.629   0.301   5.997
30700WAT      O92341   6.709   7.908   4.649
30700WAT     H192342   6.736   7.967   4.724
30700WAT     H292343   6.647   7.958   4.588
30701WAT      O92344   9.477   9.472   1.220
30701WAT     H192345   9.511   9.564   1.203
30701WAT     H292346   9.537   9.425   1.285
30702WAT      O92347   0.644   0.631   8.178
30702WAT     H192348   0.559   0.658   8.225
30702WAT     H292349   0.722   0.651   8.238
30703WAT      O92350   3.074   6.365   7.386
30703WAT     H192351   3.163   6.326   7.365
30703WAT     H292352   3.069   6.387   7.484
30704WAT      O92353   4.451   0.233   7.554
30704WAT     H192354   4.448   0.133   7.548
30704WAT     H292355   4.517   0.269   7.488
30705WAT      O92356   9.433   6.123   1.842
30705WAT     H192357   9.479   6.107   1.755
30705WAT     H292358   9.433   6.038   1.896
30706WAT      O92359   4.841   7.366   3.657
30706WAT     H192360   4.741   7.358   3.653
30706WAT     H292361   4.882   7.297   3.597
30707WAT      O92362   0.046   0.113   2.527
30707WAT     H192363   0.097   0.029   2.511
30707WAT     H292364   0.084   0.187   2.472
30708WAT      O92365   7.645   0.781   4.775
30708WAT     H192366   7.730   0.787   4.827
30708WAT     H292367   7.586   0.711   4.816
30709WAT      O92368   8.282   0.734   0.418
30709WAT     H192369   8.220   0.699   0.347
30709WAT     H292370   8.377   0.721   0.389
30710WAT      O92371   7.523   9.276   7.918
30710WAT     H192372   7.581   9.245   7.843
30710WAT     H292373   7.539   9.374   7.934
30711WAT      O92374   0.651   6.951   1.702
30711WAT     H192375   0.750   6.955   1.685
30711WAT     H292376   0.627   7.015   1.775
30712WAT      O92377   6.188   3.429   0.849
30712WAT     H192378   6.207   3.352   0.910
30712WAT     H292379   6.274   3.466   0.814
30713WAT      O92380   1.114   5.059   9.281
30713WAT     H192381   1.031   5.099   9.242
30713WAT     H292382   1.095   5.030   9.375
30714WAT      O92383   8.052   6.543   2.442
30714WAT     H192384   8.037   6.460   2.496
30714WAT     H292385   8.143   6.580   2.462
30715WAT      O92386   0.612   5.680   7.274
30715WAT     H192387   0.606   5.779   7.265
30715WAT     H292388   0.694   5.656   7.328
30716WAT      O92389   9.638   8.668   5.717
30716WAT     H192390   9.680   8.752   5.752
30716WAT     H292391   9.653   8.594   5.783
30717WAT      O92392   6.315   9.284   9.214
30717WAT     H192393   6.386   9.349   9.240
30717WAT     H292394   6.348   9.226   9.139
30718WAT      O92395   8.857   4.663   2.572
30718WAT     H192396   8.788   4.708   2.629
30718WAT     H292397   8.818   4.581   2.530
30719WAT      O92398   1.394   1.166   1.109
30719WAT     H192399   1.395   1.266   1.112
30719WAT     H292400   1.337   1.131   1.183
30720WAT      O92401   8.896   3.220   7.888
30720WAT     H192402   8.816   3.173   7.926
30720WAT     H292403   8.867   3.280   7.814
30721WAT      O92404   3.043   1.436   0.983
30721WAT     H192405   2.966   1.439   0.919
30721WAT     H292406   3.035   1.510   1.049
30722WAT      O92407   0.118   9.095   0.262
30722WAT     H192408   0.059   9.176   0.261
30722WAT     H292409   0.210   9.121   0.290
30723WAT      O92410   0.803   8.542   6.199
30723WAT     H192411   0.708   8.554   6.170
30723WAT     H292412   0.808   8.467   6.265
30724WAT      O92413   3.194   6.838   0.166
30724WAT     H192414   3.169   6.900   0.240
30724WAT     H292415   3.235   6.890   0.091
30725WAT      O92416   8.355   7.473   5.565
30725WAT     H192417   8.414   7.480   5.485
30725WAT     H292418   8.265   7.511   5.543
30726WAT      O92419   1.716   2.478   1.297
30726WAT     H192420   1.657   2.457   1.375
30726WAT     H292421   1.733   2.394   1.245
30727WAT      O92422   3.740   1.780   7.464
30727WAT     H192423   3.778   1.696   7.424
30727WAT     H292424   3.812   1.829   7.512
30728WAT      O92425   2.423   2.305   6.977
30728WAT     H192426   2.370   2.359   7.043
30728WAT     H292427   2.409   2.340   6.885
30729WAT      O92428   1.442   8.951   9.563
30729WAT     H192429   1.495   9.005   9.628
30729WAT     H292430   1.500   8.878   9.526
30730WAT      O92431   6.909   1.351   4.573
30730WAT     H192432   6.963   1.335   4.490
30730WAT     H292433   6.819   1.308   4.563
30731WAT      O92434   6.988   5.119   8.015
30731WAT     H192435   7.052   5.195   8.002
30731WAT     H292436   6.906   5.152   8.062
30732WAT      O92437   4.862   6.366   4.598
30732WAT     H192438   4.828   6.412   4.681
30732WAT     H292439   4.850   6.427   4.520
30733WAT      O92440   3.540   8.766   5.599
30733WAT     H192441   3.471   8.749   5.669
30733WAT     H292442   3.613   8.698   5.607
30734WAT      O92443   6.458   3.948   8.392
30734WAT     H192444   6.362   3.975   8.401
30734WAT     H292445   6.468   3.852   8.419
30735WAT      O92446   8.490   2.129   4.950
30735WAT     H192447   8.491   2.128   5.050
30735WAT     H292448   8.497   2.035   4.916
30736WAT      O92449   9.543   1.821   4.005
30736WAT     H192450   9.453   1.860   3.985
30736WAT     H292451   9.567   1.839   4.101
30737WAT      O92452   0.069   2.168   1.501
30737WAT     H192453   0.017   2.148   1.419
30737WAT     H292454   0.009   2.206   1.571
30738WAT      O92455   5.947   6.535   5.159
30738WAT     H192456   5.900   6.588   5.230
30738WAT     H292457   5.920   6.570   5.069
30739WAT      O92458   9.807   4.599   0.374
30739WAT     H192459   9.785   4.570   0.281
30739WAT     H292460   9.737   4.566   0.437
30740WAT      O92461   9.323   1.646   6.238
30740WAT     H192462   9.233   1.682   6.217
30740WAT     H292463   9.382   1.652   6.157
30741WAT      O92464   6.203   3.268   6.080
30741WAT     H192465   6.156   3.217   6.152
30741WAT     H292466   6.136   3.300   6.013
30742WAT      O92467   8.669   0.202   6.610
30742WAT     H192468   8.595   0.135   6.607
30742WAT     H292469   8.631   0.293   6.592
30743WAT      O92470   2.721   1.120   8.637
30743WAT     H192471   2.630   1.110   8.598
30743WAT     H292472   2.787   1.143   8.565
30744WAT      O92473   0.853   6.842   3.550
30744WAT     H192474   0.864   6.768   3.484
30744WAT     H292475   0.904   6.821   3.633
30745WAT      O92476   1.879   3.866   2.479
30745WAT     H192477   1.877   3.934   2.553
30745WAT     H292478   1.789   3.822   2.472
30746WAT      O92479   8.614   5.033   9.360
30746WAT     H192480   8.603   5.029   9.261
30746WAT     H292481   8.644   4.944   9.393
30747WAT      O92482   0.991   9.242   5.833
30747WAT     H192483   1.079   9.267   5.873
30747WAT     H292484   1.006   9.186   5.752
30748WAT      O92485   5.270   8.328   3.173
30748WAT     H192486   5.257   8.275   3.257
30748WAT     H292487   5.365   8.321   3.144
30749WAT      O92488   4.664   4.193   9.129
30749WAT     H192489   4.681   4.283   9.090
30749WAT     H292490   4.574   4.191   9.171
30750WAT      O92491   1.472   3.893   4.537
30750WAT     H192492   1.556   3.871   4.587
30750WAT     H292493   1.470   3.992   4.518
30751WAT      O92494   5.011   7.001   8.248
30751WAT     H192495   4.966   7.090   8.243
30751WAT     H292496   4.943   6.930   8.267
30752WAT      O92497   1.686   7.422   1.270
30752WAT     H192498   1.630   7.354   1.318
30752WAT     H292499   1.691   7.506   1.325
30753WAT      O92500   7.283   9.377   3.424
30753WAT     H192501   7.204   9.333   3.382
30753WAT     H292502   7.273   9.476   3.419
30754WAT      O92503   2.405   8.595   4.319
30754WAT     H192504   2.352   8.511   4.317
30754WAT     H292505   2.427   8.622   4.225
30755WAT      O92506   0.852   8.897   9.117
30755WAT     H192507   0.847   8.991   9.149
30755WAT     H292508   0.848   8.894   9.017
30756WAT      O92509   1.995   2.205   0.906
30756WAT     H192510   1.906   2.184   0.865
30756WAT     H292511   2.031   2.124   0.952
30757WAT      O92512   0.641   4.254   2.868
30757WAT     H192513   0.606   4.329   2.812
30757WAT     H292514   0.676   4.182   2.808
30758WAT      O92515   7.474   0.365   8.923
30758WAT     H192516   7.489   0.332   8.830
30758WAT     H292517   7.496   0.462   8.929
30759WAT      O92518   9.701   6.483   4.719
30759WAT     H192519   9.646   6.556   4.680
30759WAT     H292520   9.660   6.452   4.805
30760WAT      O92521   1.699   3.329   0.503
30760WAT     H192522   1.709   3.429   0.508
30760WAT     H292523   1.724   3.289   0.591
30761WAT      O92524   4.647   4.832   5.780
30761WAT     H192525   4.710   4.886   5.835
30761WAT     H292526   4.686   4.741   5.763
30762WAT      O92527   6.133   1.183   4.906
30762WAT     H192528   6.185   1.170   4.821
30762WAT     H292529   6.098   1.094   4.936
30763WAT      O92530   6.357   7.909   3.429
30763WAT     H192531   6.343   7.861   3.515
30763WAT     H292532   6.351   7.845   3.353
30764WAT      O92533   0.696   7.582   0.844
30764WAT     H192534   0.615   7.612   0.793
30764WAT     H292535   0.687   7.486   0.868
30765WAT      O92536   8.706   0.834   9.234
30765WAT     H192537   8.751   0.903   9.176
30765WAT     H292538   8.770   0.802   9.303
30766WAT      O92539   3.679   2.402   1.196
30766WAT     H192540   3.588   2.440   1.179
30766WAT     H292541   3.743   2.476   1.218
30767WAT      O92542   6.323   6.699   0.212
30767WAT     H192543   6.402   6.760   0.210
30767WAT     H292544   6.241   6.751   0.238
30768WAT      O92545   2.122   6.430   3.150
30768WAT     H192546   2.058   6.499   3.182
30768WAT     H292547   2.205   6.433   3.206
30769WAT      O92548   4.745   9.741   2.099
30769WAT     H192549   4.653   9.744   2.060
30769WAT     H292550   4.759   9.653   2.145
30770WAT      O92551   3.487   9.610   4.355
30770WAT     H192552   3.566   9.567   4.398
30770WAT     H292553   3.408   9.549   4.363
30771WAT      O92554   6.994   0.834   8.048
30771WAT     H192555   6.948   0.880   8.123
30771WAT     H292556   6.942   0.848   7.964
30772WAT      O92557   8.036   5.436   1.288
30772WAT     H192558   7.960   5.498   1.309
30772WAT     H292559   8.035   5.359   1.352
30773WAT      O92560   5.319   3.252   8.555
30773WAT     H192561   5.389   3.299   8.500
30773WAT     H292562   5.307   3.300   8.642
30774WAT      O92563   9.432   3.908   9.512
30774WAT     H192564   9.497   3.977   9.480
30774WAT     H292565   9.443   3.896   9.611
30775WAT      O92566   2.004   8.368   9.174
30775WAT     H192567   1.933   8.435   9.153
30775WAT     H292568   1.967   8.275   9.165
30776WAT      O92569   4.656   7.102   7.237
30776WAT     H192570   4.752   7.122   7.217
30776WAT     H292571   4.650   7.050   7.321
30777WAT      O92572   7.205   8.852   0.160
30777WAT     H192573   7.196   8.882   0.065
30777WAT     H292574   7.204   8.752   0.164
30778WAT      O92575   2.269   0.030   7.893
30778WAT     H192576   2.277  -0.033   7.816
30778WAT     H292577   2.210  -0.011   7.963
30779WAT      O92578   8.227   3.687   3.272
30779WAT     H192579   8.249   3.590   3.264
30779WAT     H292580   8.261   3.722   3.360
30780WAT      O92581   8.929   2.030   9.648
30780WAT     H192582   8.914   1.932   9.641
30780WAT     H292583   8.915   2.060   9.742
30781WAT      O92584   2.253   8.244   4.994
30781WAT     H192585   2.313   8.165   5.011
30781WAT     H292586   2.304   8.329   5.010
30782WAT      O92587   1.989   8.266   5.772
30782WAT     H192588   2.013   8.227   5.683
30782WAT     H292589   2.072   8.289   5.822
30783WAT      O92590   0.812   1.012   9.543
30783WAT     H192591   0.807   0.981   9.448
30783WAT     H292592   0.724   0.998   9.588
30784WAT      O92593   6.507   2.153   4.243
30784WAT     H192594   6.429   2.169   4.183
30784WAT     H292595   6.480   2.170   4.338
30785WAT      O92596   6.310   4.361   4.365
30785WAT     H192597   6.228   4.383   4.312
30785WAT     H292598   6.293   4.376   4.462
30786WAT      O92599   1.461   4.783   1.999
30786WAT     H192600   1.438   4.856   2.064
30786WAT     H292601   1.387   4.774   1.933
30787WAT      O92602   3.314   6.380   6.123
30787WAT     H192603   3.300   6.387   6.221
30787WAT     H292604   3.344   6.468   6.086
30788WAT      O92605   8.903   2.072   7.055
30788WAT     H192606   8.962   2.143   7.019
30788WAT     H292607   8.876   2.009   6.982
30789WAT      O92608   5.638   3.915   5.905
30789WAT     H192609   5.734   3.910   5.929
30789WAT     H292610   5.625   3.883   5.811
30790WAT      O92611   4.979   2.492   1.944
30790WAT     H192612   5.054   2.529   1.889
30790WAT     H292613   4.894   2.494   1.891
30791WAT      O92614   3.472   2.633   7.133
30791WAT     H192615   3.447   2.676   7.219
30791WAT     H292616   3.397   2.576   7.101
30792WAT      O92617   1.884   6.298   8.194
30792WAT     H192618   1.823   6.288   8.272
30792WAT     H292619   1.845   6.250   8.115
30793WAT      O92620   7.945   1.976   9.613
30793WAT     H192621   8.038   1.938   9.613
30793WAT     H292622   7.897   1.947   9.530
30794WAT      O92623   3.764   5.594   5.989
30794WAT     H192624   3.799   5.529   5.922
30794WAT     H292625   3.839   5.651   6.023
30795WAT      O92626   3.507   7.113   0.942
30795WAT     H192627   3.471   7.157   1.024
30795WAT     H292628   3.505   7.014   0.954
30796WAT      O92629   7.648   0.604   2.340
30796WAT     H192630   7.743   0.603   2.373
30796WAT     H292631   7.599   0.679   2.383
30797WAT      O92632   7.547   2.403   4.425
30797WAT     H192633   7.478   2.476   4.427
30797WAT     H292634   7.530   2.343   4.347
30798WAT      O92635   0.398   9.810   2.289
30798WAT     H192636   0.485   9.794   2.335
30798WAT     H292637   0.380   9.737   2.223
30799WAT      O92638   2.039   3.066   6.381
30799WAT     H192639   2.059   3.055   6.478
30799WAT     H292640   1.951   3.113   6.370
30800WAT      O92641   4.905   5.592   7.012
30800WAT     H192642   4.972   5.531   7.054
30800WAT     H292643   4.843   5.627   7.083
30801WAT      O92644   8.955   2.882   7.350
30801WAT     H192645   8.942   2.818   7.426
30801WAT     H292646   9.009   2.960   7.382
30802WAT      O92647   1.650   7.727   5.643
30802WAT     H192648   1.608   7.809   5.680
30802WAT     H292649   1.583   7.674   5.591
30803WAT      O92650   9.222   3.401   5.994
30803WAT     H192651   9.251   3.337   5.923
30803WAT     H292652   9.246   3.363   6.084
30804WAT      O92653   9.021   7.683   7.179
30804WAT     H192654   8.931   7.706   7.216
30804WAT     H292655   9.010   7.620   7.102
30805WAT      O92656   3.782   3.678   9.262
30805WAT     H192657   3.831   3.719   9.340
30805WAT     H292658   3.840   3.609   9.218
30806WAT      O92659   4.253   5.427   7.950
30806WAT     H192660   4.170   5.434   7.895
30806WAT     H292661   4.269   5.513   7.999
30807WAT      O92662   0.909   7.424   7.422
30807WAT     H192663   0.964   7.492   7.374
30807WAT     H292664   0.951   7.334   7.410
30808WAT      O92665   9.477   9.448   0.068
30808WAT     H192666   9.410   9.399   0.014
30808WAT     H292667   9.455   9.546   0.069
30809WAT      O92668   7.698   7.965   4.483
30809WAT     H192669   7.751   7.913   4.551
30809WAT     H292670   7.679   7.906   4.404
30810WAT      O92671   4.248   3.131   5.633
30810WAT     H192672   4.161   3.098   5.596
30810WAT     H292673   4.324   3.082   5.589
30811WAT      O92674   5.294   6.103   9.214
30811WAT     H192675   5.212   6.082   9.160
30811WAT     H292676   5.268   6.128   9.307
30812WAT      O92677   3.229   9.525   9.627
30812WAT     H192678   3.281   9.610   9.618
30812WAT     H292679   3.181   9.506   9.541
30813WAT      O92680   5.197   3.478   5.490
30813WAT     H192681   5.209   3.574   5.513
30813WAT     H292682   5.253   3.455   5.410
30814WAT      O92683   0.212   5.322   1.332
30814WAT     H192684   0.127   5.336   1.281
30814WAT     H292685   0.290   5.337   1.271
30815WAT      O92686   6.616   8.583   6.512
30815WAT     H192687   6.621   8.568   6.413
30815WAT     H292688   6.706   8.610   6.546
30816WAT      O92689   4.840   0.386   4.182
30816WAT     H192690   4.872   0.456   4.247
30816WAT     H292691   4.776   0.428   4.117
30817WAT      O92692   5.282   9.505   8.442
30817WAT     H192693   5.254   9.593   8.479
30817WAT     H292694   5.380   9.505   8.425
30818WAT      O92695   4.559   1.816   0.481
30818WAT     H192696   4.459   1.821   0.481
30818WAT     H292697   4.589   1.759   0.405
30819WAT      O92698   8.104   2.168   8.706
30819WAT     H192699   8.089   2.077   8.670
30819WAT     H292700   8.178   2.213   8.655
30820WAT      O92701   8.050   3.016   0.116
30820WAT     H192702   7.957   3.026   0.152
30820WAT     H292703   8.115   3.055   0.181
30821WAT      O92704   5.981   4.805   8.578
30821WAT     H192705   6.046   4.796   8.654
30821WAT     H292706   5.939   4.896   8.581
30822WAT      O92707   8.446   3.010   4.296
30822WAT     H192708   8.399   3.012   4.384
30822WAT     H292709   8.437   3.099   4.251
30823WAT      O92710   8.481   5.198   2.930
30823WAT     H192711   8.456   5.261   2.857
30823WAT     H292712   8.578   5.175   2.922
30824WAT      O92713   1.696   1.277   5.386
30824WAT     H192714   1.786   1.257   5.424
30824WAT     H292715   1.703   1.356   5.325
30825WAT      O92716   8.713   3.896   2.101
30825WAT     H192717   8.797   3.894   2.154
30825WAT     H292718   8.714   3.975   2.040
30826WAT      O92719   5.333   9.430   6.051
30826WAT     H192720   5.286   9.345   6.073
30826WAT     H292721   5.275   9.508   6.075
30827WAT      O92722   7.856   4.380   7.839
30827WAT     H192723   7.812   4.294   7.867
30827WAT     H292724   7.785   4.448   7.819
30828WAT      O92725   7.050   6.079   8.293
30828WAT     H192726   6.953   6.101   8.290
30828WAT     H292727   7.080   6.048   8.203
30829WAT      O92728   7.358   7.232   7.153
30829WAT     H192729   7.280   7.250   7.093
30829WAT     H292730   7.442   7.235   7.099
30830WAT      O92731   5.466   2.274   1.054
30830WAT     H192732   5.409   2.318   1.123
30830WAT     H292733   5.445   2.176   1.052
30831WAT      O92734   8.970   1.731   3.400
30831WAT     H192735   8.992   1.683   3.485
30831WAT     H292736   9.034   1.704   3.328
30832WAT      O92737   3.955   1.462   7.630
30832WAT     H192738   3.952   1.407   7.713
30832WAT     H292739   4.015   1.418   7.562
30833WAT      O92740   0.891   5.800   8.189
30833WAT     H192741   0.830   5.728   8.155
30833WAT     H292742   0.967   5.811   8.125
30834WAT      O92743   8.230   5.251   2.985
30834WAT     H192744   8.318   5.221   2.949
30834WAT     H292745   8.176   5.291   2.910
30835WAT      O92746   3.757   6.175   6.765
30835WAT     H192747   3.765   6.261   6.715
30835WAT     H292748   3.699   6.111   6.713
30836WAT      O92749   3.661   4.428   9.820
30836WAT     H192750   3.680   4.374   9.738
30836WAT     H292751   3.743   4.431   9.877
30837WAT      O92752   1.451   0.607   4.544
30837WAT     H192753   1.536   0.566   4.511
30837WAT     H292754   1.429   0.568   4.634
30838WAT      O92755   6.185   1.732   0.193
30838WAT     H192756   6.213   1.825   0.214
30838WAT     H292757   6.086   1.730   0.179
30839WAT      O92758   2.769   2.733   6.038
30839WAT     H192759   2.862   2.705   6.011
30839WAT     H292760   2.773   2.823   6.081
30840WAT      O92761   1.177   5.315   8.647
30840WAT     H192762   1.116   5.242   8.616
30840WAT     H292763   1.270   5.279   8.657
30841WAT      O92764   4.803   5.004   1.831
30841WAT     H192765   4.727   4.939   1.836
30841WAT     H292766   4.805   5.059   1.915
30842WAT      O92767   2.351   4.237   8.929
30842WAT     H192768   2.411   4.239   9.009
30842WAT     H292769   2.257   4.255   8.958
30843WAT      O92770   1.017   8.275   7.235
30843WAT     H192771   0.971   8.197   7.277
30843WAT     H292772   1.115   8.271   7.254
30844WAT      O92773   3.918   6.374   9.372
30844WAT     H192774   3.856   6.298   9.353
30844WAT     H292775   3.928   6.385   9.471
30845WAT      O92776   1.754   5.979   0.376
30845WAT     H192777   1.838   6.018   0.337
30845WAT     H292778   1.706   5.927   0.306
30846WAT      O92779   9.239   9.447   1.802
30846WAT     H192780   9.337   9.467   1.804
30846WAT     H292781   9.217   9.383   1.875
30847WAT      O92782   9.795   7.711   8.816
30847WAT     H192783   9.891   7.689   8.800
30847WAT     H292784   9.753   7.741   8.730
30848WAT      O92785   1.682   5.206   1.703
30848WAT     H192786   1.731   5.293   1.698
30848WAT     H292787   1.608   5.213   1.771
30849WAT      O92788   4.952   0.077   8.318
30849WAT     H192789   4.976   0.174   8.325
30849WAT     H292790   4.907   0.047   8.402
30850WAT      O92791   9.877   1.281   8.398
30850WAT     H192792   9.876   1.381   8.410
30850WAT     H292793   9.924   1.258   8.313
30851WAT      O92794   0.842   7.595   8.133
30851WAT     H192795   0.808   7.682   8.168
30851WAT     H292796   0.895   7.549   8.205
30852WAT      O92797   8.054   3.280   0.995
30852WAT     H192798   8.147   3.315   1.006
30852WAT     H292799   8.010   3.327   0.918
30853WAT      O92800   8.308   6.572   8.412
30853WAT     H192801   8.322   6.631   8.332
30853WAT     H292802   8.384   6.584   8.476
30854WAT      O92803   9.296   7.210   6.863
30854WAT     H192804   9.367   7.279   6.878
30854WAT     H292805   9.312   7.132   6.924
30855WAT      O92806   1.248   9.659   7.669
30855WAT     H192807   1.169   9.620   7.716
30855WAT     H292808   1.220   9.739   7.616
30856WAT      O92809   0.533   3.458   7.325
30856WAT     H192810   0.562   3.536   7.269
30856WAT     H292811   0.452   3.416   7.282
30857WAT      O92812   8.752   2.350   1.635
30857WAT     H192813   8.778   2.444   1.615
30857WAT     H292814   8.665   2.329   1.590
30858WAT      O92815   1.787   0.560   6.672
30858WAT     H192816   1.787   0.604   6.762
30858WAT     H292817   1.806   0.628   6.601
30859WAT      O92818   0.882   6.868   6.850
30859WAT     H192819   0.953   6.806   6.881
30859WAT     H292820   0.915   6.922   6.773
30860WAT      O92821   9.438   7.481   2.560
30860WAT     H192822   9.352   7.478   2.510
30860WAT     H292823   9.507   7.428   2.511
30861WAT      O92824   0.628   4.840   4.685
30861WAT     H192825   0.691   4.876   4.616
30861WAT     H292826   0.553   4.792   4.639
30862WAT      O92827   9.554   2.459   6.922
30862WAT     H192828   9.566   2.444   6.824
30862WAT     H292829   9.491   2.392   6.959
30863WAT      O92830   0.734   8.546   5.120
30863WAT     H192831   0.662   8.479   5.139
30863WAT     H292832   0.724   8.579   5.026
30864WAT      O92833   7.028   6.040   6.566
30864WAT     H192834   7.093   5.971   6.599
30864WAT     H292835   6.949   5.994   6.525
30865WAT      O92836   2.682   4.772   0.081
30865WAT     H192837   2.672   4.871   0.069
30865WAT     H292838   2.600   4.726   0.047
30866WAT      O92839   4.783   7.114   9.395
30866WAT     H192840   4.799   7.019   9.368
30866WAT     H292841   4.839   7.175   9.339
30867WAT      O92842   3.395   3.600   1.910
30867WAT     H192843   3.362   3.641   1.825
30867WAT     H292844   3.322   3.603   1.979
30868WAT      O92845   9.054   5.384   5.959
30868WAT     H192846   9.006   5.419   5.879
30868WAT     H292847   9.040   5.447   6.036
30869WAT      O92848   2.300   9.772   2.916
30869WAT     H192849   2.303   9.681   2.957
30869WAT     H292850   2.236   9.829   2.968
30870WAT      O92851   9.638   6.764   2.347
30870WAT     H192852   9.711   6.706   2.384
30870WAT     H292853   9.552   6.743   2.392
30871WAT      O92854   2.565   7.316   4.871
30871WAT     H192855   2.598   7.283   4.959
30871WAT     H292856   2.465   7.315   4.870
30872WAT      O92857   1.399   4.644   4.045
30872WAT     H192858   1.458   4.579   3.996
30872WAT     H292859   1.321   4.667   3.987
30873WAT      O92860   6.215   1.940   7.718
30873WAT     H192861   6.140   1.976   7.664
30873WAT     H292862   6.244   2.010   7.784
30874WAT      O92863   7.850   4.776   2.833
30874WAT     H192864   7.897   4.863   2.819
30874WAT     H292865   7.767   4.791   2.888
30875WAT      O92866   5.540   3.355   6.639
30875WAT     H192867   5.448   3.316   6.652
30875WAT     H292868   5.534   3.455   6.639
30876WAT      O92869   1.681   2.062   2.988
30876WAT     H192870   1.606   2.006   3.023
30876WAT     H292871   1.644   2.134   2.929
30877WAT      O92872   3.432   4.234   6.706
30877WAT     H192873   3.439   4.317   6.762
30877WAT     H292874   3.337   4.222   6.678
30878WAT      O92875   0.441   1.503   5.884
30878WAT     H192876   0.457   1.511   5.786
30878WAT     H292877   0.342   1.500   5.901
30879WAT      O92878   4.656   6.042   4.735
30879WAT     H192879   4.580   6.028   4.672
30879WAT     H292880   4.742   6.018   4.690
30880WAT      O92881   9.178   0.574   6.375
30880WAT     H192882   9.239   0.653   6.376
30880WAT     H292883   9.218   0.501   6.320
30881WAT      O92884   7.488   3.529   3.872
30881WAT     H192885   7.481   3.628   3.857
30881WAT     H292886   7.403   3.496   3.914
30882WAT      O92887   0.937   7.748   4.999
30882WAT     H192888   0.986   7.661   5.002
30882WAT     H292889   1.000   7.822   4.976
30883WAT      O92890   3.519   3.049   2.204
30883WAT     H192891   3.516   2.958   2.244
30883WAT     H292892   3.527   3.042   2.105
30884WAT      O92893   6.415   3.487   3.505
30884WAT     H192894   6.514   3.480   3.519
30884WAT     H292895   6.386   3.581   3.521
30885WAT      O92896   3.066   3.411   0.595
30885WAT     H192897   3.018   3.480   0.649
30885WAT     H292898   3.001   3.341   0.565
30886WAT      O92899   4.175   8.130   7.057
30886WAT     H192900   4.241   8.120   7.131
30886WAT     H292901   4.223   8.149   6.972
30887WAT      O92902   9.170   3.393   0.132
30887WAT     H192903   9.221   3.459   0.186
30887WAT     H292904   9.175   3.417   0.035
30888WAT      O92905   8.425   6.173   0.555
30888WAT     H192906   8.481   6.159   0.636
30888WAT     H292907   8.428   6.269   0.528
30889WAT      O92908   9.270   1.031   9.133
30889WAT     H192909   9.258   1.039   9.232
30889WAT     H292910   9.210   0.959   9.098
30890WAT      O92911   7.180   6.711   4.181
30890WAT     H192912   7.274   6.683   4.199
30890WAT     H292913   7.148   6.772   4.254
30891WAT      O92914   5.441   9.522   3.249
30891WAT     H192915   5.385   9.486   3.323
30891WAT     H292916   5.384   9.573   3.184
30892WAT      O92917   7.464   8.118   4.982
30892WAT     H192918   7.506   8.031   5.008
30892WAT     H292919   7.433   8.112   4.887
30893WAT      O92920   3.503   8.915   6.948
30893WAT     H192921   3.552   8.890   6.865
30893WAT     H292922   3.439   8.843   6.972
30894WAT      O92923   6.917   3.579   2.139
30894WAT     H192924   6.959   3.499   2.182
30894WAT     H292925   6.832   3.601   2.186
30895WAT      O92926   0.512   6.906   4.514
30895WAT     H192927   0.516   6.970   4.591
30895WAT     H292928   0.587   6.840   4.522
30896WAT      O92929   7.265   8.374   3.122
30896WAT     H192930   7.269   8.472   3.107
30896WAT     H292931   7.321   8.350   3.202
30897WAT      O92932   2.690   9.539   5.692
30897WAT     H192933   2.617   9.596   5.729
30897WAT     H292934   2.662   9.443   5.696
30898WAT      O92935   6.091   2.294   1.651
30898WAT     H192936   6.003   2.339   1.634
30898WAT     H292937   6.141   2.344   1.721
30899WAT      O92938   7.977   0.555   7.183
30899WAT     H192939   8.015   0.645   7.160
30899WAT     H292940   8.024   0.484   7.130
30900WAT      O92941   1.177   2.121   6.036
30900WAT     H192942   1.090   2.132   6.085
30900WAT     H292943   1.164   2.147   5.940
30901WAT      O92944   3.991   1.689   0.598
30901WAT     H192945   3.922   1.678   0.526
30901WAT     H292946   3.965   1.635   0.677
30902WAT      O92947   3.157   0.694   0.727
30902WAT     H192948   3.098   0.683   0.808
30902WAT     H292949   3.147   0.787   0.692
30903WAT      O92950   3.836   1.528   3.324
30903WAT     H192951   3.815   1.459   3.394
30903WAT     H292952   3.751   1.558   3.281
30904WAT      O92953   6.226   2.576   8.957
30904WAT     H192954   6.226   2.664   9.005
30904WAT     H292955   6.201   2.590   8.861
30905WAT      O92956   2.842   5.339   1.212
30905WAT     H192957   2.831   5.434   1.239
30905WAT     H292958   2.769   5.314   1.148
30906WAT      O92959   6.985   2.000   6.152
30906WAT     H192960   6.965   2.075   6.088
30906WAT     H292961   7.076   2.015   6.193
30907WAT      O92962   8.119   6.898   8.638
30907WAT     H192963   8.179   6.950   8.578
30907WAT     H292964   8.170   6.868   8.719
30908WAT      O92965   1.121   3.524   1.809
30908WAT     H192966   1.046   3.578   1.770
30908WAT     H292967   1.202   3.533   1.752
30909WAT      O92968   7.130   7.892   6.114
30909WAT     H192969   7.076   7.809   6.107
30909WAT     H292970   7.129   7.925   6.208
30910WAT      O92971   4.442   7.746   4.729
30910WAT     H192972   4.399   7.678   4.669
30910WAT     H292973   4.415   7.729   4.824
30911WAT      O92974   8.806   8.072   2.606
30911WAT     H192975   8.797   8.169   2.624
30911WAT     H292976   8.756   8.020   2.676
30912WAT      O92977   7.344   8.805   9.108
30912WAT     H192978   7.413   8.792   9.180
30912WAT     H292979   7.348   8.728   9.044
30913WAT      O92980   5.113   2.370   3.462
30913WAT     H192981   5.019   2.400   3.447
30913WAT     H292982   5.132   2.291   3.403
30914WAT      O92983   5.457   3.851   2.185
30914WAT     H192984   5.553   3.861   2.208
30914WAT     H292985   5.434   3.754   2.177
30915WAT      O92986   4.617   5.636   0.685
30915WAT     H192987   4.534   5.585   0.663
30915WAT     H292988   4.597   5.705   0.754
30916WAT      O92989   5.210   0.283   1.459
30916WAT     H192990   5.179   0.358   1.517
30916WAT     H292991   5.137   0.216   1.449
30917WAT      O92992   7.072   6.261   3.674
30917WAT     H192993   7.038   6.355   3.668
30917WAT     H292994   7.171   6.261   3.658
30918WAT      O92995   2.956   9.613   0.179
30918WAT     H192996   2.997   9.523   0.166
30918WAT     H292997   3.016   9.683   0.140
30919WAT      O92998   1.549   6.238   1.044
30919WAT     H192999   1.580   6.317   1.097
30919WAT     H293000   1.627   6.196   0.999
30920WAT      O93001   1.499   0.612   9.857
30920WAT     H193002   1.440   0.686   9.826
30920WAT     H293003   1.536   0.635   9.947
30921WAT      O93004   9.140   8.251   5.565
30921WAT     H193005   9.091   8.264   5.652
30921WAT     H293006   9.143   8.338   5.516
30922WAT      O93007   5.556   9.372   6.223
30922WAT     H193008   5.638   9.355   6.168
30922WAT     H293009   5.480   9.395   6.163
30923WAT      O93010   0.699   6.511   6.597
30923WAT     H193011   0.638   6.484   6.671
30923WAT     H293012   0.654   6.496   6.509
30924WAT      O93013   1.755   7.350   2.493
30924WAT     H193014   1.750   7.385   2.400
30924WAT     H293015   1.664   7.321   2.523
30925WAT      O93016   7.152   6.723   6.749
30925WAT     H193017   7.182   6.736   6.843
30925WAT     H293018   7.053   6.735   6.743
30926WAT      O93019   4.123   6.293   3.072
30926WAT     H193020   4.147   6.197   3.058
30926WAT     H293021   4.146   6.320   3.166
30927WAT      O93022   8.096   2.630   4.554
30927WAT     H193023   8.121   2.638   4.458
30927WAT     H293024   8.071   2.536   4.575
30928WAT      O93025   0.583   2.429   2.899
30928WAT     H193026   0.497   2.379   2.894
30928WAT     H293027   0.573   2.507   2.961
30929WAT      O93028   5.813   3.546   6.509
30929WAT     H193029   5.843   3.472   6.570
30929WAT     H293030   5.875   3.624   6.518
30930WAT      O93031   3.412   0.375   8.839
30930WAT     H193032   3.490   0.326   8.877
30930WAT     H293033   3.387   0.450   8.900
30931WAT      O93034   4.238   9.683   2.344
30931WAT     H193035   4.212   9.703   2.439
30931WAT     H293036   4.287   9.760   2.306
30932WAT      O93037   6.564   2.902   3.537
30932WAT     H193038   6.585   2.815   3.582
30932WAT     H293039   6.644   2.962   3.543
30933WAT      O93040   4.116   2.449   1.206
30933WAT     H193041   4.205   2.470   1.245
30933WAT     H293042   4.078   2.367   1.251
30934WAT      O93043   0.272   7.475   1.216
30934WAT     H193044   0.301   7.551   1.157
30934WAT     H293045   0.172   7.469   1.216
30935WAT      O93046   2.747   8.183   4.362
30935WAT     H193047   2.789   8.273   4.346
30935WAT     H293048   2.807   8.112   4.328
30936WAT      O93049   8.243   4.102   5.780
30936WAT     H193050   8.323   4.085   5.721
30936WAT     H293051   8.250   4.194   5.818
30937WAT      O93052   6.180   3.062   2.381
30937WAT     H193053   6.139   3.038   2.470
30937WAT     H293054   6.277   3.081   2.393
30938WAT      O93055   6.004   2.661   7.024
30938WAT     H193056   5.929   2.598   7.045
30938WAT     H293057   6.006   2.734   7.092
30939WAT      O93058   4.771   2.458   6.941
30939WAT     H193059   4.863   2.491   6.960
30939WAT     H293060   4.744   2.391   7.010
30940WAT      O93061   4.112   7.220   5.052
30940WAT     H193062   4.086   7.316   5.049
30940WAT     H293063   4.031   7.163   5.038
30941WAT      O93064   1.274   8.017   0.423
30941WAT     H193065   1.334   8.072   0.365
30941WAT     H293066   1.186   8.063   0.432
30942WAT      O93067   9.594   9.152   4.790
30942WAT     H193068   9.593   9.069   4.846
30942WAT     H293069   9.500   9.178   4.767
30943WAT      O93070   1.870   9.182   3.734
30943WAT     H193071   1.875   9.102   3.794
30943WAT     H293072   1.891   9.264   3.786
30944WAT      O93073   3.735   6.014   2.346
30944WAT     H193074   3.810   5.948   2.341
30944WAT     H293075   3.756   6.094   2.289
30945WAT      O93076   3.968   0.091   9.032
30945WAT     H193077   3.912   0.030   9.088
30945WAT     H293078   4.004   0.041   8.953
30946WAT      O93079   4.598   7.338   0.265
30946WAT     H193080   4.661   7.327   0.341
30946WAT     H293081   4.650   7.349   0.180
30947WAT      O93082   4.409   1.657   1.769
30947WAT     H193083   4.356   1.619   1.693
30947WAT     H293084   4.494   1.605   1.780
30948WAT      O93085   4.962   7.598   0.598
30948WAT     H193086   4.881   7.563   0.645
30948WAT     H293087   4.975   7.549   0.512
30949WAT      O93088   0.655   6.270   8.999
30949WAT     H193089   0.704   6.203   8.942
30949WAT     H293090   0.570   6.230   9.032
30950WAT      O93091   0.354   4.434   0.589
30950WAT     H193092   0.297   4.516   0.596
30950WAT     H293093   0.444   4.453   0.628
30951WAT      O93094   4.913   6.204   3.145
30951WAT     H193095   4.971   6.252   3.080
30951WAT     H293096   4.821   6.243   3.142
30952WAT      O93097   7.793   3.983   4.948
30952WAT     H193098   7.698   4.005   4.925
30952WAT     H293099   7.798   3.888   4.978
30953WAT      O93100   9.190   5.615   0.332
30953WAT     H193101   9.159   5.520   0.342
30953WAT     H293102   9.110   5.676   0.332
30954WAT      O93103   1.176   4.640   3.171
30954WAT     H193104   1.271   4.610   3.163
30954WAT     H293105   1.120   4.593   3.104
30955WAT      O93106   0.450   2.393   5.463
30955WAT     H193107   0.485   2.419   5.373
30955WAT     H293108   0.414   2.474   5.510
30956WAT      O93109   3.261   3.870   0.213
30956WAT     H193110   3.346   3.914   0.183
30956WAT     H293111   3.188   3.890   0.148
30957WAT      O93112   9.521   7.151   3.092
30957WAT     H193113   9.612   7.166   3.131
30957WAT     H293114   9.526   7.160   2.992
30958WAT      O93115   5.918   7.380   9.053
30958WAT     H193116   5.842   7.388   8.988
30958WAT     H293117   5.968   7.467   9.056
30959WAT      O93118   4.098   1.665   0.222
30959WAT     H193119   4.071   1.609   0.144
30959WAT     H293120   4.040   1.746   0.228
30960WAT      O93121   3.166   7.211   3.043
30960WAT     H193122   3.090   7.161   3.084
30960WAT     H293123   3.216   7.260   3.115
30961WAT      O93124   7.656   1.527   7.689
30961WAT     H193125   7.618   1.472   7.615
30961WAT     H293126   7.709   1.603   7.651
30962WAT      O93127   9.652   6.715   1.663
30962WAT     H193128   9.559   6.681   1.677
30962WAT     H293129   9.717   6.644   1.688
30963WAT      O93130   4.226   6.528   1.596
30963WAT     H193131   4.310   6.481   1.569
30963WAT     H293132   4.249   6.618   1.634
30964WAT      O93133   7.335   5.750   4.284
30964WAT     H193134   7.294   5.840   4.273
30964WAT     H293135   7.335   5.725   4.381
30965WAT      O93136   3.218   6.593   0.814
30965WAT     H193137   3.308   6.562   0.784
30965WAT     H293138   3.179   6.653   0.744
30966WAT      O93139   9.704   6.006   3.625
30966WAT     H193140   9.783   5.968   3.674
30966WAT     H293141   9.622   5.955   3.650
30967WAT      O93142   2.366   1.906   5.932
30967WAT     H193143   2.330   1.919   5.839
30967WAT     H293144   2.463   1.928   5.933
30968WAT      O93145   7.287   0.372   8.230
30968WAT     H193146   7.297   0.470   8.245
30968WAT     H293147   7.302   0.322   8.315
30969WAT      O93148   8.278   8.668   3.537
30969WAT     H193149   8.357   8.660   3.597
30969WAT     H293150   8.309   8.674   3.442
30970WAT      O93151   3.713   4.617   0.475
30970WAT     H193152   3.712   4.517   0.484
30970WAT     H293153   3.800   4.653   0.509
30971WAT      O93154   6.863   4.411   1.052
30971WAT     H193155   6.867   4.421   0.952
30971WAT     H293156   6.950   4.375   1.085
30972WAT      O93157   7.818   8.820   4.727
30972WAT     H193158   7.772   8.804   4.640
30972WAT     H293159   7.749   8.834   4.798
30973WAT      O93160   4.772   4.714   6.955
30973WAT     H193161   4.709   4.790   6.937
30973WAT     H293162   4.803   4.676   6.868
30974WAT      O93163   2.113   6.292   8.457
30974WAT     H193164   2.028   6.333   8.489
30974WAT     H293165   2.126   6.312   8.360
30975WAT      O93166   5.274   5.228   8.958
30975WAT     H193167   5.294   5.321   8.929
30975WAT     H293168   5.284   5.220   9.057
30976WAT      O93169   4.288   5.292   4.285
30976WAT     H193170   4.242   5.311   4.198
30976WAT     H293171   4.334   5.203   4.280
30977WAT      O93172   0.382   4.726   4.626
30977WAT     H193173   0.301   4.748   4.681
30977WAT     H293174   0.355   4.707   4.532
30978WAT      O93175   2.570   1.966   4.357
30978WAT     H193176   2.473   1.989   4.347
30978WAT     H293177   2.614   1.968   4.267
30979WAT      O93178   8.063   7.271   5.759
30979WAT     H193179   8.093   7.235   5.847
30979WAT     H293180   7.963   7.271   5.755
30980WAT      O93181   0.986   5.936   0.300
30980WAT     H193182   0.982   6.034   0.319
30980WAT     H293183   1.051   5.919   0.226
30981WAT      O93184   9.660   5.845   7.880
30981WAT     H193185   9.657   5.890   7.969
30981WAT     H293186   9.655   5.913   7.807
30982WAT      O93187   8.645   0.123   9.648
30982WAT     H193188   8.548   0.125   9.626
30982WAT     H293189   8.698   0.102   9.565
30983WAT      O93190   1.006   0.097   9.379
30983WAT     H193191   1.093   0.047   9.383
30983WAT     H293192   0.987   0.137   9.469
30984WAT      O93193   3.321   4.554   0.228
30984WAT     H193194   3.355   4.465   0.261
30984WAT     H293195   3.292   4.545   0.133
30985WAT      O93196   8.789   5.044   6.377
30985WAT     H193197   8.718   5.112   6.357
30985WAT     H293198   8.878   5.088   6.375
30986WAT      O93199   8.613   5.849   2.461
30986WAT     H193200   8.657   5.822   2.376
30986WAT     H293201   8.526   5.801   2.470
30987WAT      O93202   0.859   8.090   6.203
30987WAT     H193203   0.899   8.060   6.117
30987WAT     H293204   0.873   8.019   6.273
30988WAT      O93205   7.592   6.915   5.321
30988WAT     H193206   7.565   6.994   5.267
30988WAT     H293207   7.588   6.938   5.418
30989WAT      O93208   4.165   5.666   8.872
30989WAT     H193209   4.213   5.598   8.817
30989WAT     H293210   4.229   5.708   8.936
30990WAT      O93211   2.192   6.784   3.870
30990WAT     H193212   2.218   6.830   3.785
30990WAT     H293213   2.157   6.693   3.850
30991WAT      O93214   0.557   5.535   2.766
30991WAT     H193215   0.609   5.554   2.682
30991WAT     H293216   0.602   5.461   2.816
30992WAT      O93217   8.392   0.045   6.327
30992WAT     H193218   8.484   0.074   6.298
30992WAT     H293219   8.362  -0.031   6.270
30993WAT      O93220   4.504   7.991   2.036
30993WAT     H193221   4.413   7.975   1.997
30993WAT     H293222   4.522   7.924   2.107
30994WAT      O93223   1.493   4.744   7.264
30994WAT     H193224   1.399   4.751   7.298
30994WAT     H293225   1.545   4.681   7.321
30995WAT      O93226   8.679   1.507   2.710
30995WAT     H193227   8.721   1.424   2.674
30995WAT     H293228   8.693   1.513   2.809
30996WAT      O93229   3.926   0.661   5.175
30996WAT     H193230   3.845   0.712   5.203
30996WAT     H293231   3.983   0.718   5.116
30997WAT      O93232   3.180   8.512   5.931
30997WAT     H193233   3.095   8.564   5.932
30997WAT     H293234   3.167   8.429   5.876
30998WAT      O93235   7.857   7.315   8.159
30998WAT     H193236   7.895   7.351   8.244
30998WAT     H293237   7.927   7.266   8.108
30999WAT      O93238   5.681   0.841   5.961
30999WAT     H193239   5.733   0.926   5.954
30999WAT     H293240   5.743   0.767   5.988
31000WAT      O93241   7.063   8.314   9.662
31000WAT     H193242   7.043   8.238   9.724
31000WAT     H293243   7.054   8.400   9.710
31001WAT      O93244   0.147   4.297   4.454
31001WAT     H193245   0.072   4.281   4.518
31001WAT     H293246   0.222   4.342   4.502
31002WAT      O93247   6.569   5.166   8.553
31002WAT     H193248   6.647   5.118   8.512
31002WAT     H293249   6.553   5.131   8.645
31003WAT      O93250   0.886   2.065   1.088
31003WAT     H193251   0.840   2.040   1.173
31003WAT     H293252   0.871   2.161   1.069
31004WAT      O93253   3.480   6.825   5.914
31004WAT     H193254   3.502   6.917   5.881
31004WAT     H293255   3.529   6.758   5.859
31005WAT      O93256   5.050   6.773   1.842
31005WAT     H193257   4.972   6.724   1.803
31005WAT     H293258   5.075   6.732   1.930
31006WAT      O93259   3.362   5.555   7.640
31006WAT     H193260   3.337   5.502   7.559
31006WAT     H293261   3.430   5.624   7.615
31007WAT      O93262   4.033   8.918   7.005
31007WAT     H193263   4.033   8.893   7.102
31007WAT     H293264   3.947   8.890   6.963
31008WAT      O93265   8.837   3.035   1.990
31008WAT     H193266   8.842   3.088   2.075
31008WAT     H293267   8.744   3.001   1.977
31009WAT      O93268   1.571   7.191   3.202
31009WAT     H193269   1.519   7.223   3.281
31009WAT     H293270   1.517   7.125   3.150
31010WAT      O93271   5.961   2.248   6.702
31010WAT     H193272   6.007   2.333   6.679
31010WAT     H293273   5.958   2.189   6.621
31011WAT      O93274   7.481   1.319   2.403
31011WAT     H193275   7.466   1.319   2.502
31011WAT     H293276   7.423   1.389   2.361
31012WAT      O93277   9.765   6.625   8.202
31012WAT     H193278   9.858   6.644   8.169
31012WAT     H293279   9.704   6.699   8.175
31013WAT      O93280   3.097   8.042   8.857
31013WAT     H193281   3.197   8.038   8.861
31013WAT     H293282   3.058   7.968   8.912
31014WAT      O93283   8.381   3.792   7.395
31014WAT     H193284   8.393   3.877   7.343
31014WAT     H293285   8.356   3.813   7.489
31015WAT      O93286   4.241   0.248   1.002
31015WAT     H193287   4.173   0.312   0.966
31015WAT     H293288   4.197   0.186   1.067
31016WAT      O93289   8.980   6.164   1.037
31016WAT     H193290   8.891   6.173   1.081
31016WAT     H293291   9.022   6.078   1.063
31017WAT      O93292   4.984   3.199   8.749
31017WAT     H193293   4.917   3.223   8.819
31017WAT     H293294   5.060   3.264   8.751
31018WAT      O93295   6.668   9.099   1.865
31018WAT     H193296   6.711   9.084   1.776
31018WAT     H293297   6.616   9.018   1.892
31019WAT      O93298   3.482   4.977   6.871
31019WAT     H193299   3.557   5.001   6.809
31019WAT     H293300   3.433   5.059   6.899
31020WAT      O93301   0.522   2.227   6.857
31020WAT     H193302   0.527   2.183   6.768
31020WAT     H293303   0.513   2.326   6.846
31021WAT      O93304   1.041   4.041   4.254
31021WAT     H193305   0.970   3.973   4.268
31021WAT     H293306   1.124   3.996   4.221
31022WAT      O93307   0.638   4.494   0.611
31022WAT     H193308   0.698   4.420   0.641
31022WAT     H293309   0.665   4.524   0.520
31023WAT      O93310   6.653   5.074   4.991
31023WAT     H193311   6.588   5.122   4.931
31023WAT     H293312   6.603   5.013   5.052
31024WAT      O93313   3.439   0.984   6.264
31024WAT     H193314   3.518   0.929   6.237
31024WAT     H293315   3.361   0.960   6.206
31025WAT      O93316   5.740   6.592   2.077
31025WAT     H193317   5.836   6.578   2.054
31025WAT     H293318   5.683   6.576   1.996
31026WAT      O93319   8.476   8.844   8.294
31026WAT     H193320   8.466   8.792   8.378
31026WAT     H293321   8.568   8.830   8.257
31027WAT      O93322   6.591   6.990   4.817
31027WAT     H193323   6.531   7.070   4.819
31027WAT     H293324   6.536   6.907   4.832
31028WAT      O93325   1.891   2.857   5.475
31028WAT     H193326   1.791   2.868   5.478
31028WAT     H293327   1.928   2.863   5.567
31029WAT      O93328   2.432   3.082   9.710
31029WAT     H193329   2.379   3.118   9.787
31029WAT     H293330   2.510   3.141   9.692
31030WAT      O93331   0.648   1.639   5.996
31030WAT     H193332   0.570   1.579   5.978
31030WAT     H293333   0.706   1.598   6.066
31031WAT      O93334   8.262   1.518   7.260
31031WAT     H193335   8.172   1.560   7.257
31031WAT     H293336   8.269   1.459   7.341
31032WAT      O93337   0.563   7.414   1.444
31032WAT     H193338   0.652   7.452   1.420
31032WAT     H293339   0.526   7.362   1.367
31033WAT      O93340   2.875   6.318   1.314
31033WAT     H193341   2.783   6.358   1.310
31033WAT     H293342   2.883   6.262   1.396
31034WAT      O93343   7.943   3.920   8.127
31034WAT     H193344   7.868   3.860   8.153
31034WAT     H293345   7.984   3.887   8.042
31035WAT      O93346   7.913   7.093   6.943
31035WAT     H193347   7.856   7.150   7.003
31035WAT     H293348   7.968   7.030   6.998
31036WAT      O93349   7.302   6.795   6.963
31036WAT     H193350   7.322   6.887   6.927
31036WAT     H293351   7.251   6.804   7.048
31037WAT      O93352   2.204   8.903   0.709
31037WAT     H193353   2.196   8.974   0.638
31037WAT     H293354   2.294   8.861   0.704
31038WAT      O93355   4.544   3.585   7.518
31038WAT     H193356   4.543   3.672   7.567
31038WAT     H293357   4.527   3.510   7.582
31039WAT      O93358   6.403   4.768   8.050
31039WAT     H193359   6.460   4.822   7.990
31039WAT     H293360   6.309   4.765   8.014
31040WAT      O93361   4.303   8.406   7.819
31040WAT     H193362   4.248   8.486   7.795
31040WAT     H293363   4.386   8.405   7.763
31041WAT      O93364   2.060   8.346   1.390
31041WAT     H193365   2.019   8.280   1.453
31041WAT     H293366   2.082   8.430   1.439
31042WAT      O93367   0.139   7.270   1.513
31042WAT     H193368   0.079   7.224   1.578
31042WAT     H293369   0.194   7.340   1.560
31043WAT      O93370   3.377   7.778   4.647
31043WAT     H193371   3.345   7.853   4.589
31043WAT     H293372   3.334   7.692   4.619
31044WAT      O93373   5.000   6.009   2.475
31044WAT     H193374   4.905   5.990   2.451
31044WAT     H293375   5.037   5.933   2.529
31045WAT      O93376   3.538   4.276   7.946
31045WAT     H193377   3.612   4.248   7.885
31045WAT     H293378   3.529   4.210   8.021
31046WAT      O93379   4.825   1.320   2.762
31046WAT     H193380   4.853   1.290   2.853
31046WAT     H293381   4.744   1.379   2.770
31047WAT      O93382   0.592   5.252   4.486
31047WAT     H193383   0.504   5.281   4.449
31047WAT     H293384   0.603   5.291   4.578
31048WAT      O93385   1.584   7.710   4.601
31048WAT     H193386   1.544   7.709   4.693
31048WAT     H293387   1.582   7.804   4.565
31049WAT      O93388   3.087   5.489   8.472
31049WAT     H193389   2.989   5.479   8.454
31049WAT     H293390   3.128   5.399   8.482
31050WAT      O93391   2.480   2.666   7.611
31050WAT     H193392   2.419   2.610   7.668
31050WAT     H293393   2.430   2.699   7.531
31051WAT      O93394   1.042   5.803   6.799
31051WAT     H193395   1.030   5.881   6.737
31051WAT     H293396   0.986   5.816   6.880
31052WAT      O93397   9.514   4.976   3.652
31052WAT     H193398   9.507   4.969   3.751
31052WAT     H293399   9.558   5.063   3.627
31053WAT      O93400   2.956   9.138   2.668
31053WAT     H193401   2.964   9.068   2.739
31053WAT     H293402   2.872   9.121   2.615
31054WAT      O93403   0.855   5.085   0.384
31054WAT     H193404   0.877   5.120   0.475
31054WAT     H293405   0.939   5.050   0.340
31055WAT      O93406   0.955   8.091   8.085
31055WAT     H193407   0.998   8.010   8.046
31055WAT     H293408   0.972   8.170   8.025
31056WAT      O93409   2.686   2.790   4.742
31056WAT     H193410   2.786   2.792   4.731
31056WAT     H293411   2.664   2.732   4.821
31057WAT      O93412   8.751   7.723   8.919
31057WAT     H193413   8.704   7.731   9.007
31057WAT     H293414   8.685   7.734   8.845
31058WAT      O93415   9.123   4.521   9.741
31058WAT     H193416   9.131   4.521   9.642
31058WAT     H293417   9.105   4.427   9.773
31059WAT      O93418   1.409   7.921   8.606
31059WAT     H193419   1.311   7.919   8.586
31059WAT     H293420   1.458   7.963   8.530
31060WAT      O93421   3.339   9.044   5.044
31060WAT     H193422   3.325   9.133   5.087
31060WAT     H293423   3.269   8.980   5.077
31061WAT      O93424   9.833   4.896   0.829
31061WAT     H193425   9.883   4.862   0.909
31061WAT     H293426   9.786   4.819   0.785
31062WAT      O93427   2.501   9.772   8.084
31062WAT     H193428   2.469   9.864   8.061
31062WAT     H293429   2.506   9.717   8.001
31063WAT      O93430   5.312   0.292   2.464
31063WAT     H193431   5.219   0.299   2.500
31063WAT     H293432   5.323   0.354   2.387
31064WAT      O93433   2.316   6.514   7.206
31064WAT     H193434   2.344   6.597   7.159
31064WAT     H293435   2.227   6.528   7.249
31065WAT      O93436   9.687   5.341   4.080
31065WAT     H193437   9.630   5.417   4.050
31065WAT     H293438   9.685   5.269   4.010
31066WAT      O93439   5.729   2.137   5.913
31066WAT     H193440   5.728   2.144   5.813
31066WAT     H293441   5.800   2.195   5.950
31067WAT      O93442   8.830   5.893   0.525
31067WAT     H193443   8.730   5.894   0.528
31067WAT     H293444   8.866   5.947   0.602
31068WAT      O93445   7.837   8.363   4.626
31068WAT     H193446   7.862   8.277   4.582
31068WAT     H293447   7.845   8.353   4.725
31069WAT      O93448   0.242   0.628   8.562
31069WAT     H193449   0.153   0.660   8.595
31069WAT     H293450   0.305   0.705   8.555
31070WAT      O93451   6.079   1.615   6.334
31070WAT     H193452   6.110   1.655   6.247
31070WAT     H293453   6.112   1.521   6.341
31071WAT      O93454   2.198   1.574   0.967
31071WAT     H193455   2.119   1.520   0.937
31071WAT     H293456   2.223   1.548   1.061
31072WAT      O93457   1.978   9.617   7.244
31072WAT     H193458   2.029   9.580   7.167
31072WAT     H293459   1.980   9.717   7.241
31073WAT      O93460   3.170   9.725   2.320
31073WAT     H193461   3.181   9.626   2.310
31073WAT     H293462   3.124   9.744   2.407
31074WAT      O93463   3.715   6.822   1.051
31074WAT     H193464   3.746   6.901   0.998
31074WAT     H293465   3.630   6.787   1.012
31075WAT      O93466   4.920   7.988   6.886
31075WAT     H193467   4.911   7.901   6.935
31075WAT     H293468   5.002   8.035   6.917
31076WAT      O93469   2.768   5.620   6.762
31076WAT     H193470   2.821   5.540   6.732
31076WAT     H293471   2.716   5.657   6.685
31077WAT      O93472   5.431   9.455   9.464
31077WAT     H193473   5.458   9.425   9.555
31077WAT     H293474   5.370   9.387   9.423
31078WAT      O93475   4.457   5.149   9.232
31078WAT     H193476   4.369   5.112   9.264
31078WAT     H293477   4.459   5.247   9.248
31079WAT      O93478   9.607   0.767   2.458
31079WAT     H193479   9.659   0.722   2.385
31079WAT     H293480   9.618   0.716   2.543
31080WAT      O93481   1.653   6.160   4.268
31080WAT     H193482   1.679   6.256   4.274
31080WAT     H293483   1.683   6.112   4.350
31081WAT      O93484   2.271   8.510   7.203
31081WAT     H193485   2.307   8.603   7.211
31081WAT     H293486   2.194   8.498   7.264
31082WAT      O93487   7.910   1.965   8.099
31082WAT     H193488   7.906   1.908   8.017
31082WAT     H293489   7.845   2.040   8.091
31083WAT      O93490   6.595   1.217   6.952
31083WAT     H193491   6.568   1.232   7.048
31083WAT     H293492   6.526   1.160   6.907
31084WAT      O93493   9.290   7.277   8.959
31084WAT     H193494   9.261   7.200   8.902
31084WAT     H293495   9.372   7.252   9.009
31085WAT      O93496   1.905   3.539   7.533
31085WAT     H193497   1.808   3.551   7.510
31085WAT     H293498   1.961   3.588   7.467
31086WAT      O93499   9.258   5.087   1.919
31086WAT     H193500   9.204   5.144   1.982
31086WAT     H293501   9.272   5.137   1.834
31087WAT      O93502   1.949   6.588   3.309
31087WAT     H193503   1.851   6.583   3.289
31087WAT     H293504   1.970   6.532   3.389
31088WAT      O93505   0.491   4.751   1.618
31088WAT     H193506   0.427   4.813   1.573
31088WAT     H293507   0.505   4.780   1.712
31089WAT      O93508   3.393   0.030   2.395
31089WAT     H193509   3.470  -0.028   2.422
31089WAT     H293510   3.312  -0.027   2.381
31090WAT      O93511   8.535   9.142   8.080
31090WAT     H193512   8.593   9.060   8.084
31090WAT     H293513   8.578   9.210   8.021
31091WAT      O93514   8.727   2.010   2.076
31091WAT     H193515   8.768   2.085   2.127
31091WAT     H293516   8.628   2.024   2.068
31092WAT      O93517   4.032   2.338   7.990
31092WAT     H193518   4.041   2.423   7.938
31092WAT     H293519   4.038   2.358   8.088
31093WAT      O93520   4.845   0.912   0.094
31093WAT     H193521   4.826   0.825   0.049
31093WAT     H293522   4.942   0.920   0.113
31094WAT      O93523   4.338   6.153   3.771
31094WAT     H193524   4.333   6.215   3.693
31094WAT     H293525   4.359   6.206   3.854
31095WAT      O93526   3.351   3.394   0.962
31095WAT     H193527   3.416   3.358   1.029
31095WAT     H293528   3.383   3.484   0.929
31096WAT      O93529   7.220   0.478   1.322
31096WAT     H193530   7.160   0.557   1.338
31096WAT     H293531   7.177   0.416   1.257
31097WAT      O93532   6.323   5.768   2.376
31097WAT     H193533   6.368   5.697   2.322
31097WAT     H293534   6.387   5.806   2.442
31098WAT      O93535   0.814   0.650   9.354
31098WAT     H193536   0.761   0.632   9.437
31098WAT     H293537   0.769   0.607   9.275
31099WAT      O93538   4.551   7.289   5.134
31099WAT     H193539   4.629   7.259   5.189
31099WAT     H293540   4.565   7.261   5.039
31100WAT      O93541   3.375   2.802   0.568
31100WAT     H193542   3.335   2.804   0.659
31100WAT     H293543   3.329   2.732   0.513
31101WAT      O93544   3.753   3.413   8.133
31101WAT     H193545   3.683   3.342   8.133
31101WAT     H293546   3.809   3.405   8.215
31102WAT      O93547   9.316   6.074   3.074
31102WAT     H193548   9.286   6.100   3.166
31102WAT     H293549   9.276   6.137   3.007
31103WAT      O93550   0.992   7.031   0.685
31103WAT     H193551   0.976   6.990   0.595
31103WAT     H293552   0.986   7.130   0.678
31104WAT      O93553   4.609   3.406   3.090
31104WAT     H193554   4.637   3.478   3.027
31104WAT     H293555   4.510   3.411   3.105
31105WAT      O93556   9.879   5.926   1.582
31105WAT     H193557   9.937   5.900   1.659
31105WAT     H293558   9.863   5.847   1.524
31106WAT      O93559   6.661   1.564   2.176
31106WAT     H193560   6.758   1.582   2.188
31106WAT     H293561   6.609   1.647   2.198
31107WAT      O93562   5.555   7.545   5.947
31107WAT     H193563   5.513   7.471   5.894
31107WAT     H293564   5.523   7.633   5.912
31108WAT      O93565   7.846   6.317   7.305
31108WAT     H193566   7.918   6.372   7.263
31108WAT     H293567   7.882   6.270   7.385
31109WAT      O93568   4.825   8.747   8.634
31109WAT     H193569   4.739   8.792   8.661
31109WAT     H293570   4.884   8.813   8.588
31110WAT      O93571   2.483   8.149   1.376
31110WAT     H193572   2.567   8.132   1.429
31110WAT     H293573   2.447   8.240   1.397
31111WAT      O93574   8.508   4.987   6.556
31111WAT     H193575   8.446   4.997   6.478
31111WAT     H293576   8.541   5.077   6.584
31112WAT      O93577   1.299   8.781   0.916
31112WAT     H193578   1.395   8.756   0.933
31112WAT     H293579   1.267   8.735   0.833
31113WAT      O93580   0.358   0.502   7.830
31113WAT     H193581   0.362   0.497   7.731
31113WAT     H293582   0.451   0.503   7.868
31114WAT      O93583   5.252   0.449   7.592
31114WAT     H193584   5.195   0.452   7.510
31114WAT     H293585   5.331   0.509   7.580
31115WAT      O93586   2.327   0.665   1.379
31115WAT     H193587   2.273   0.613   1.312
31115WAT     H293588   2.265   0.710   1.444
31116WAT      O93589   5.952   8.595   8.300
31116WAT     H193590   6.006   8.550   8.372
31116WAT     H293591   5.862   8.620   8.336
31117WAT      O93592   2.820   2.482   7.822
31117WAT     H193593   2.852   2.392   7.792
31117WAT     H293594   2.726   2.475   7.855
31118WAT      O93595   1.196   0.574   9.143
31118WAT     H193596   1.130   0.558   9.070
31118WAT     H293597   1.171   0.657   9.193
31119WAT      O93598   3.602   8.638   6.004
31119WAT     H193599   3.600   8.736   5.983
31119WAT     H293600   3.697   8.608   6.013
31120WAT      O93601   6.740   3.565   3.292
31120WAT     H193602   6.652   3.604   3.266
31120WAT     H293603   6.748   3.473   3.252
31121WAT      O93604   7.598   0.761   8.687
31121WAT     H193605   7.688   0.757   8.644
31121WAT     H293606   7.602   0.718   8.777
31122WAT      O93607   0.485   0.340   5.240
31122WAT     H193608   0.543   0.421   5.224
31122WAT     H293609   0.442   0.312   5.154
31123WAT      O93610   7.366   8.336   9.713
31123WAT     H193611   7.324   8.318   9.801
31123WAT     H293612   7.328   8.420   9.674
31124WAT      O93613   6.949   0.743   5.144
31124WAT     H193614   6.911   0.717   5.055
31124WAT     H293615   6.989   0.662   5.187
31125WAT      O93616   5.460   5.284   6.720
31125WAT     H193617   5.366   5.302   6.691
31125WAT     H293618   5.523   5.305   6.646
31126WAT      O93619   6.137   6.624   6.410
31126WAT     H193620   6.227   6.600   6.373
31126WAT     H293621   6.128   6.585   6.501
31127WAT      O93622   3.169   9.269   3.434
31127WAT     H193623   3.228   9.345   3.408
31127WAT     H293624   3.169   9.200   3.361
31128WAT      O93625   3.730   0.129   0.022
31128WAT     H193626   3.758   0.222   0.045
31128WAT     H293627   3.631   0.126   0.006
31129WAT      O93628   0.009   0.263   5.566
31129WAT     H193629   0.091   0.319   5.581
31129WAT     H293630  -0.070   0.323   5.555
31130WAT      O93631   0.648   2.659   0.120
31130WAT     H193632   0.682   2.565   0.126
31130WAT     H293633   0.558   2.665   0.163
31131WAT      O93634   4.167   8.956   4.470
31131WAT     H193635   4.250   8.988   4.423
31131WAT     H293636   4.182   8.862   4.503
31132WAT      O93637   7.423   5.715   8.204
31132WAT     H193638   7.326   5.692   8.199
31132WAT     H293639   7.438   5.805   8.162
31133WAT      O93640   7.044   6.128   1.319
31133WAT     H193641   7.039   6.212   1.265
31133WAT     H293642   6.957   6.080   1.313
31134WAT      O93643   9.726   1.908   3.796
31134WAT     H193644   9.716   2.007   3.798
31134WAT     H293645   9.669   1.867   3.867
31135WAT      O93646   2.372   8.759   7.258
31135WAT     H193647   2.339   8.850   7.236
31135WAT     H293648   2.427   8.762   7.342
31136WAT      O93649   0.083   6.421   4.579
31136WAT     H193650   0.013   6.449   4.645
31136WAT     H293651   0.146   6.357   4.623
31137WAT      O93652   1.284   8.289   2.135
31137WAT     H193653   1.324   8.378   2.111
31137WAT     H293654   1.284   8.230   2.054
31138WAT      O93655   6.486   4.509   7.906
31138WAT     H193656   6.564   4.548   7.955
31138WAT     H293657   6.404   4.563   7.927
31139WAT      O93658   0.724   8.783   7.621
31139WAT     H193659   0.721   8.810   7.525
31139WAT     H293660   0.772   8.853   7.674
31140WAT      O93661   8.597   5.919   9.734
31140WAT     H193662   8.572   5.857   9.809
31140WAT     H293663   8.579   5.875   9.646
31141WAT      O93664   5.966   9.806   5.919
31141WAT     H193665   5.943   9.855   5.835
31141WAT     H293666   5.989   9.711   5.897
31142WAT      O93667   5.029   7.742   4.387
31142WAT     H193668   5.071   7.653   4.407
31142WAT     H293669   5.097   7.814   4.400
31143WAT      O93670   7.404   2.527   3.092
31143WAT     H193671   7.345   2.477   3.029
31143WAT     H293672   7.362   2.615   3.115
31144WAT      O93673   9.324   9.079   4.093
31144WAT     H193674   9.238   9.102   4.139
31144WAT     H293675   9.347   8.984   4.110
31145WAT      O93676   2.107   1.623   8.131
31145WAT     H193677   2.070   1.687   8.197
31145WAT     H293678   2.137   1.540   8.177
31146WAT      O93679   1.427   5.288   5.289
31146WAT     H193680   1.410   5.198   5.329
31146WAT     H293681   1.357   5.352   5.321
31147WAT      O93682   8.816   7.769   6.413
31147WAT     H193683   8.830   7.677   6.448
31147WAT     H293684   8.827   7.769   6.313
31148WAT      O93685   2.598   8.682   4.490
31148WAT     H193686   2.651   8.753   4.444
31148WAT     H293687   2.546   8.631   4.422
31149WAT      O93688   3.124   2.025   2.364
31149WAT     H193689   3.105   2.123   2.365
31149WAT     H293690   3.122   1.990   2.458
31150WAT      O93691   0.536   5.524   6.777
31150WAT     H193692   0.565   5.506   6.871
31150WAT     H293693   0.597   5.592   6.736
31151WAT      O93694   3.280   2.563   3.050
31151WAT     H193695   3.341   2.642   3.050
31151WAT     H293696   3.243   2.549   3.142
31152WAT      O93697   8.850   6.728   3.383
31152WAT     H193698   8.792   6.799   3.423
31152WAT     H293699   8.853   6.740   3.283
31153WAT      O93700   6.631   9.711   6.834
31153WAT     H193701   6.718   9.759   6.837
31153WAT     H293702   6.623   9.662   6.747
31154WAT      O93703   8.044   7.032   0.867
31154WAT     H193704   8.026   7.048   0.964
31154WAT     H293705   7.963   6.993   0.824
31155WAT      O93706   9.188   1.923   5.609
31155WAT     H193707   9.202   1.890   5.516
31155WAT     H293708   9.129   2.004   5.608
31156WAT      O93709   8.451   9.654   3.986
31156WAT     H193710   8.407   9.587   4.045
31156WAT     H293711   8.459   9.617   3.894
31157WAT      O93712   8.156   0.541   4.445
31157WAT     H193713   8.056   0.542   4.458
31157WAT     H293714   8.198   0.483   4.515
31158WAT      O93715   5.672   9.606   5.021
31158WAT     H193716   5.637   9.513   5.035
31158WAT     H293717   5.760   9.616   5.066
31159WAT      O93718   6.646   3.192   9.873
31159WAT     H193719   6.581   3.267   9.878
31159WAT     H293720   6.731   3.224   9.830
31160WAT      O93721   5.872   5.414   6.496
31160WAT     H193722   5.910   5.367   6.417
31160WAT     H293723   5.773   5.400   6.499
31161WAT      O93724   7.405   1.193   0.359
31161WAT     H193725   7.326   1.177   0.301
31161WAT     H293726   7.441   1.285   0.343
31162WAT      O93727   7.020   6.763   5.942
31162WAT     H193728   7.023   6.850   5.893
31162WAT     H293729   7.056   6.775   6.034
31163WAT      O93730   8.827   2.562   1.525
31163WAT     H193731   8.809   2.638   1.587
31163WAT     H293732   8.789   2.584   1.435
31164WAT      O93733   6.251   9.379   0.645
31164WAT     H193734   6.296   9.304   0.597
31164WAT     H293735   6.302   9.464   0.630
31165WAT      O93736   7.203   7.646   5.129
31165WAT     H193737   7.207   7.741   5.097
31165WAT     H293738   7.270   7.591   5.080
31166WAT      O93739   8.903   9.396   8.827
31166WAT     H193740   8.883   9.340   8.747
31166WAT     H293741   8.970   9.348   8.885
31167WAT      O93742   9.428   9.833   7.020
31167WAT     H193743   9.449   9.846   6.923
31167WAT     H293744   9.460   9.743   7.049
31168WAT      O93745   4.444   3.234   0.593
31168WAT     H193746   4.487   3.316   0.556
31168WAT     H293747   4.464   3.157   0.533
31169WAT      O93748   1.891   3.508   3.848
31169WAT     H193749   1.922   3.475   3.759
31169WAT     H293750   1.804   3.464   3.871
31170WAT      O93751   9.674   4.560   4.714
31170WAT     H193752   9.772   4.579   4.706
31170WAT     H293753   9.623   4.644   4.693
31171WAT      O93754   0.659   2.013   0.913
31171WAT     H193755   0.604   2.091   0.884
31171WAT     H293756   0.733   2.044   0.972
31172WAT      O93757   1.885   9.812   6.897
31172WAT     H193758   1.846   9.841   6.810
31172WAT     H293759   1.921   9.891   6.947
31173WAT      O93760   5.105   2.524   2.572
31173WAT     H193761   5.136   2.468   2.649
31173WAT     H293762   5.051   2.467   2.509
31174WAT      O93763   6.130   3.839   5.022
31174WAT     H193764   6.076   3.841   4.938
31174WAT     H293765   6.127   3.929   5.065
31175WAT      O93766   9.434   0.039   2.796
31175WAT     H193767   9.475   0.096   2.868
31175WAT     H293768   9.461  -0.056   2.809
31176WAT      O93769   1.983   6.729   0.801
31176WAT     H193770   1.950   6.640   0.832
31176WAT     H293771   2.031   6.718   0.714
31177WAT      O93772   1.388   2.181   4.303
31177WAT     H193773   1.400   2.089   4.266
31177WAT     H293774   1.478   2.222   4.320
31178WAT      O93775   0.063   4.823   5.539
31178WAT     H193776   0.093   4.914   5.568
31178WAT     H293777  -0.036   4.814   5.555
31179WAT      O93778   0.001   2.799   1.822
31179WAT     H193779   0.094   2.809   1.787
31179WAT     H293780   0.005   2.777   1.920
31180WAT      O93781   6.545   2.754   1.316
31180WAT     H193782   6.580   2.722   1.404
31180WAT     H293783   6.449   2.728   1.307
31181WAT      O93784   5.185   1.353   6.537
31181WAT     H193785   5.104   1.353   6.596
31181WAT     H293786   5.266   1.370   6.593
31182WAT      O93787   1.415   1.602   5.231
31182WAT     H193788   1.331   1.637   5.274
31182WAT     H293789   1.481   1.677   5.224
31183WAT      O93790   5.825   0.242   8.353
31183WAT     H193791   5.893   0.310   8.325
31183WAT     H293792   5.734   0.284   8.354
31184WAT      O93793   4.343   5.853   4.816
31184WAT     H193794   4.361   5.872   4.720
31184WAT     H293795   4.276   5.918   4.851
31185WAT      O93796   6.599   4.874   5.666
31185WAT     H193797   6.517   4.868   5.610
31185WAT     H293798   6.664   4.937   5.624
31186WAT      O93799   8.915   1.876   5.357
31186WAT     H193800   8.882   1.882   5.451
31186WAT     H293801   9.007   1.914   5.352
31187WAT      O93802   9.213   0.452   0.996
31187WAT     H193803   9.159   0.530   0.963
31187WAT     H293804   9.252   0.474   1.086
31188WAT      O93805   1.754   7.105   7.977
31188WAT     H193806   1.668   7.149   8.002
31188WAT     H293807   1.745   7.006   7.988
31189WAT      O93808   0.557   0.291   8.591
31189WAT     H193809   0.548   0.195   8.564
31189WAT     H293810   0.634   0.332   8.543
31190WAT      O93811   3.296   7.409   1.543
31190WAT     H193812   3.294   7.360   1.456
31190WAT     H293813   3.209   7.394   1.591
31191WAT      O93814   6.812   5.325   0.026
31191WAT     H193815   6.894   5.268   0.034
31191WAT     H293816   6.780   5.326  -0.068
31192WAT      O93817   5.122   0.097   7.517
31192WAT     H193818   5.145   0.027   7.585
31192WAT     H293819   5.108   0.053   7.429
31193WAT      O93820   3.129   4.597   1.268
31193WAT     H193821   3.115   4.604   1.169
31193WAT     H293822   3.171   4.509   1.289
31194WAT      O93823   4.215   4.278   2.587
31194WAT     H193824   4.206   4.191   2.636
31194WAT     H293825   4.306   4.317   2.605
31195WAT      O93826   5.414   5.238   0.920
31195WAT     H193827   5.404   5.174   0.844
31195WAT     H293828   5.327   5.285   0.936
31196WAT      O93829   8.933   3.453   0.411
31196WAT     H193830   8.887   3.479   0.496
31196WAT     H293831   8.978   3.364   0.423
31197WAT      O93832   3.521   8.554   4.424
31197WAT     H193833   3.568   8.485   4.369
31197WAT     H293834   3.433   8.576   4.382
31198WAT      O93835   1.085   0.509   5.717
31198WAT     H193836   1.002   0.555   5.748
31198WAT     H293837   1.063   0.448   5.641
31199WAT      O93838   4.632   9.111   4.376
31199WAT     H193839   4.659   9.162   4.457
31199WAT     H293840   4.712   9.068   4.334
31200WAT      O93841   6.419   1.565   2.389
31200WAT     H193842   6.510   1.535   2.358
31200WAT     H293843   6.357   1.486   2.389
31201WAT      O93844   6.557   1.899   3.868
31201WAT     H193845   6.555   1.802   3.844
31201WAT     H293846   6.464   1.929   3.891
31202WAT      O93847   9.549   5.440   2.303
31202WAT     H193848   9.576   5.489   2.221
31202WAT     H293849   9.627   5.389   2.339
31203WAT      O93850   4.819   6.682   8.042
31203WAT     H193851   4.816   6.582   8.041
31203WAT     H293852   4.729   6.718   8.017
31204WAT      O93853   6.322   4.035   3.364
31204WAT     H193854   6.257   3.964   3.339
31204WAT     H293855   6.331   4.038   3.463
31205WAT      O93856   6.342   4.596   3.202
31205WAT     H193857   6.338   4.566   3.107
31205WAT     H293858   6.435   4.625   3.224
31206WAT      O93859   5.379   1.197   5.504
31206WAT     H193860   5.313   1.140   5.554
31206WAT     H293861   5.338   1.284   5.480
31207WAT      O93862   2.933   8.960   1.559
31207WAT     H193863   2.850   9.014   1.545
31207WAT     H293864   2.914   8.864   1.537
31208WAT      O93865   9.149   6.784   9.808
31208WAT     H193866   9.236   6.792   9.856
31208WAT     H293867   9.156   6.714   9.736
31209WAT      O93868   4.725   2.720   3.073
31209WAT     H193869   4.804   2.685   3.124
31209WAT     H293870   4.708   2.815   3.100
31210WAT      O93871   2.955   9.631   7.523
31210WAT     H193872   2.858   9.636   7.501
31210WAT     H293873   2.967   9.585   7.611
31211WAT      O93874   0.499   0.587   6.102
31211WAT     H193875   0.514   0.598   6.004
31211WAT     H293876   0.522   0.672   6.149
31212WAT      O93877   3.522   4.645   5.978
31212WAT     H193878   3.476   4.702   5.909
31212WAT     H293879   3.500   4.549   5.963
31213WAT      O93880   7.302   5.375   9.372
31213WAT     H193881   7.318   5.460   9.322
31213WAT     H293882   7.388   5.322   9.375
31214WAT      O93883   9.234   8.759   7.175
31214WAT     H193884   9.218   8.680   7.116
31214WAT     H293885   9.214   8.734   7.270
31215WAT      O93886   5.730   5.228   7.932
31215WAT     H193887   5.696   5.143   7.893
31215WAT     H293888   5.800   5.208   8.000
31216WAT      O93889   0.049   1.507   3.638
31216WAT     H193890   0.088   1.589   3.680
31216WAT     H293891   0.122   1.443   3.616
31217WAT      O93892   9.366   8.060   8.293
31217WAT     H193893   9.348   8.010   8.379
31217WAT     H293894   9.464   8.057   8.273
31218WAT      O93895   7.017   8.117   6.016
31218WAT     H193896   7.056   8.029   6.045
31218WAT     H293897   6.938   8.100   5.957
31219WAT      O93898   1.706   0.935   4.373
31219WAT     H193899   1.671   1.024   4.344
31219WAT     H293900   1.670   0.914   4.464
31220WAT      O93901   3.664   8.319   8.680
31220WAT     H193902   3.618   8.240   8.720
31220WAT     H293903   3.761   8.316   8.704
31221WAT      O93904   1.230   6.992   8.008
31221WAT     H193905   1.218   7.014   8.105
31221WAT     H293906   1.325   7.008   7.982
31222WAT      O93907   9.052   5.006   5.555
31222WAT     H193908   9.106   5.011   5.639
31222WAT     H293909   9.049   4.911   5.524
31223WAT      O93910   7.210   8.120   1.018
31223WAT     H193911   7.165   8.143   0.932
31223WAT     H293912   7.180   8.183   1.089
31224WAT      O93913   6.132   0.355   3.038
31224WAT     H193914   6.108   0.258   3.043
31224WAT     H293915   6.088   0.396   2.958
31225WAT      O93916   1.351   1.276   8.557
31225WAT     H193917   1.358   1.176   8.562
31225WAT     H293918   1.380   1.306   8.466
31226WAT      O93919   2.796   3.752   0.352
31226WAT     H193920   2.728   3.762   0.279
31226WAT     H293921   2.811   3.841   0.394
31227WAT      O93922   2.799   3.184   1.974
31227WAT     H193923   2.749   3.124   1.912
31227WAT     H293924   2.776   3.280   1.953
31228WAT      O93925   9.676   1.434   2.091
31228WAT     H193926   9.582   1.400   2.098
31228WAT     H293927   9.697   1.454   1.995
31229WAT      O93928   7.857   9.517   1.105
31229WAT     H193929   7.805   9.603   1.105
31229WAT     H293930   7.816   9.453   1.041
31230WAT      O93931   4.282   0.548   1.238
31230WAT     H193932   4.187   0.518   1.252
31230WAT     H293933   4.320   0.578   1.325
31231WAT      O93934   8.998   7.267   9.784
31231WAT     H193935   8.958   7.331   9.718
31231WAT     H293936   8.925   7.216   9.829
31232WAT      O93937   2.444   6.932   2.774
31232WAT     H193938   2.455   7.022   2.730
31232WAT     H293939   2.349   6.902   2.766
31233WAT      O93940   3.537   2.636   8.148
31233WAT     H193941   3.444   2.619   8.117
31233WAT     H293942   3.589   2.550   8.148
31234WAT      O93943   0.800   5.863   1.699
31234WAT     H193944   0.782   5.872   1.601
31234WAT     H293945   0.850   5.778   1.716
31235WAT      O93946   6.903   8.281   2.284
31235WAT     H193947   6.975   8.249   2.345
31235WAT     H293948   6.944   8.323   2.203
31236WAT      O93949   1.554   5.175   3.462
31236WAT     H193950   1.509   5.262   3.445
31236WAT     H293951   1.653   5.187   3.459
31237WAT      O93952   6.565   8.516   1.341
31237WAT     H193953   6.610   8.449   1.400
31237WAT     H293954   6.569   8.485   1.246
31238WAT      O93955   2.764   9.256   8.077
31238WAT     H193956   2.846   9.231   8.025
31238WAT     H293957   2.786   9.331   8.140
31239WAT      O93958   8.912   1.093   7.429
31239WAT     H193959   8.845   1.124   7.362
31239WAT     H293960   8.951   1.172   7.477
31240WAT      O93961   4.520   5.620   5.232
31240WAT     H193962   4.449   5.580   5.289
31240WAT     H293963   4.511   5.587   5.138
31241WAT      O93964   6.994   6.600   6.324
31241WAT     H193965   6.911   6.584   6.270
31241WAT     H293966   7.039   6.683   6.291
31242WAT      O93967   9.780   3.874   3.782
31242WAT     H193968   9.746   3.917   3.866
31242WAT     H293969   9.868   3.915   3.758
31243WAT      O93970   0.942   4.475   3.726
31243WAT     H193971   0.907   4.397   3.674
31243WAT     H293972   0.901   4.559   3.692
31244WAT      O93973   7.199   7.410   1.145
31244WAT     H193974   7.177   7.468   1.224
31244WAT     H293975   7.284   7.442   1.104
31245WAT      O93976   8.404   4.963   3.712
31245WAT     H193977   8.386   4.876   3.665
31245WAT     H293978   8.490   5.002   3.679
31246WAT      O93979   0.884   1.009   6.407
31246WAT     H193980   0.967   1.042   6.452
31246WAT     H293981   0.806   1.024   6.468
31247WAT      O93982   8.484   2.467   8.479
31247WAT     H193983   8.553   2.456   8.407
31247WAT     H293984   8.437   2.381   8.494
31248WAT      O93985   9.008   5.876   7.704
31248WAT     H193986   9.014   5.967   7.663
31248WAT     H293987   9.099   5.844   7.730
31249WAT      O93988   4.069   2.392   7.448
31249WAT     H193989   4.092   2.484   7.481
31249WAT     H293990   4.059   2.330   7.525
31250WAT      O93991   7.345   0.447   1.560
31250WAT     H193992   7.390   0.528   1.596
31250WAT     H293993   7.307   0.467   1.469
31251WAT      O93994   5.407   4.361   1.551
31251WAT     H193995   5.359   4.440   1.588
31251WAT     H293996   5.412   4.368   1.451
31252WAT      O93997   7.055   6.371   4.675
31252WAT     H193998   7.031   6.426   4.595
31252WAT     H293999   7.008   6.407   4.756
31253WAT      O94000   7.886   5.093   2.535
31253WAT     H194001   7.788   5.084   2.519
31253WAT     H294002   7.933   5.010   2.502
31254WAT      O94003   2.497   6.750   5.912
31254WAT     H194004   2.411   6.757   5.861
31254WAT     H294005   2.573   6.744   5.847
31255WAT      O94006   4.655   8.242   7.655
31255WAT     H194007   4.742   8.196   7.673
31255WAT     H294008   4.622   8.216   7.565
31256WAT      O94009   7.578   8.835   6.620
31256WAT     H194010   7.602   8.896   6.696
31256WAT     H294011   7.495   8.868   6.576
31257WAT      O94012   2.982   0.864   9.465
31257WAT     H194013   3.057   0.917   9.425
31257WAT     H294014   2.922   0.831   9.392
31258WAT      O94015   3.889   8.703   1.104
31258WAT     H194016   3.923   8.674   1.014
31258WAT     H294017   3.790   8.710   1.102
31259WAT      O94018   6.591   6.553   3.337
31259WAT     H194019   6.678   6.506   3.354
31259WAT     H294020   6.530   6.539   3.415
31260WAT      O94021   6.938   0.099   0.474
31260WAT     H194022   7.013   0.160   0.497
31260WAT     H294023   6.871   0.148   0.418
31261WAT      O94024   7.121   2.072   2.384
31261WAT     H194025   7.217   2.099   2.370
31261WAT     H294026   7.070   2.151   2.419
31262WAT      O94027   5.254   8.463   4.602
31262WAT     H194028   5.181   8.402   4.572
31262WAT     H294029   5.307   8.418   4.674
31263WAT      O94030   1.519   4.445   3.909
31263WAT     H194031   1.514   4.431   3.810
31263WAT     H294032   1.602   4.401   3.944
31264WAT      O94033   0.485   5.015   8.314
31264WAT     H194034   0.557   5.039   8.249
31264WAT     H294035   0.499   4.921   8.346
31265WAT      O94036   9.083   1.914   7.190
31265WAT     H194037   9.172   1.956   7.207
31265WAT     H294038   9.023   1.979   7.144
31266WAT      O94039   8.923   9.141   0.627
31266WAT     H194040   8.945   9.059   0.680
31266WAT     H294041   8.939   9.122   0.530
31267WAT      O94042   5.409   1.133   8.203
31267WAT     H194043   5.483   1.119   8.269
31267WAT     H294044   5.359   1.047   8.191
31268WAT      O94045   9.583   8.541   2.151
31268WAT     H194046   9.584   8.444   2.175
31268WAT     H294047   9.660   8.587   2.195
31269WAT      O94048   5.151   5.039   9.636
31269WAT     H194049   5.197   5.104   9.696
31269WAT     H294050   5.166   4.946   9.669
31270WAT      O94051   0.315   3.390   1.932
31270WAT     H194052   0.354   3.355   1.846
31270WAT     H294053   0.267   3.316   1.979
31271WAT      O94054   4.189   6.729   5.314
31271WAT     H194055   4.280   6.770   5.325
31271WAT     H294056   4.137   6.740   5.398
31272WAT      O94057   4.806   4.472   3.864
31272WAT     H194058   4.889   4.505   3.817
31272WAT     H294059   4.728   4.526   3.835
31273WAT      O94060   5.540   2.522   3.331
31273WAT     H194061   5.573   2.433   3.360
31273WAT     H294062   5.615   2.588   3.335
31274WAT      O94063   7.388   5.488   6.561
31274WAT     H194064   7.425   5.507   6.470
31274WAT     H294065   7.455   5.435   6.613
31275WAT      O94066   9.811   3.398   2.483
31275WAT     H194067   9.776   3.346   2.561
31275WAT     H294068   9.737   3.415   2.418
31276WAT      O94069   7.384   4.800   2.682
31276WAT     H194070   7.459   4.749   2.640
31276WAT     H294071   7.298   4.775   2.639
31277WAT      O94072   2.486   3.026   8.681
31277WAT     H194073   2.427   3.077   8.744
31277WAT     H294074   2.466   3.055   8.587
31278WAT      O94075   5.477   1.281   4.720
31278WAT     H194076   5.398   1.335   4.749
31278WAT     H294077   5.525   1.246   4.800
31279WAT      O94078   6.232   8.430   2.740
31279WAT     H194079   6.193   8.518   2.712
31279WAT     H294080   6.166   8.357   2.724
31280WAT      O94081   1.267   8.165   5.182
31280WAT     H194082   1.305   8.257   5.189
31280WAT     H294083   1.290   8.113   5.265
31281WAT      O94084   0.462   9.706   8.088
31281WAT     H194085   0.449   9.608   8.072
31281WAT     H294086   0.537   9.720   8.153
31282WAT      O94087   3.075   5.747   7.054
31282WAT     H194088   3.172   5.733   7.076
31282WAT     H294089   3.050   5.841   7.077
31283WAT      O94090   5.458   9.740   6.319
31283WAT     H194091   5.515   9.761   6.239
31283WAT     H294092   5.502   9.668   6.373
31284WAT      O94093   0.689   3.291   7.508
31284WAT     H194094   0.615   3.293   7.441
31284WAT     H294095   0.656   3.324   7.596
31285WAT      O94096   1.769   3.263   7.411
31285WAT     H194097   1.697   3.251   7.479
31285WAT     H294098   1.851   3.299   7.455
31286WAT      O94099   7.217   3.061   6.164
31286WAT     H194100   7.181   2.973   6.135
31286WAT     H294101   7.151   3.106   6.225
31287WAT      O94102   9.647   0.729   8.860
31287WAT     H194103   9.678   0.639   8.829
31287WAT     H294104   9.707   0.762   8.933
31288WAT      O94105   9.003   0.472   8.677
31288WAT     H194106   8.929   0.472   8.745
31288WAT     H294107   8.984   0.403   8.607
31289WAT      O94108   8.937   1.267   9.155
31289WAT     H194109   8.864   1.335   9.157
31289WAT     H294110   9.017   1.306   9.109
31290WAT      O94111   9.346   0.800   6.366
31290WAT     H194112   9.418   0.773   6.431
31290WAT     H294113   9.298   0.880   6.402
31291WAT      O94114   8.738   0.693   6.611
31291WAT     H194115   8.716   0.790   6.622
31291WAT     H294116   8.654   0.639   6.607
31292WAT      O94117   8.281   0.882   6.566
31292WAT     H194118   8.333   0.925   6.492
31292WAT     H294119   8.242   0.954   6.624
31293WAT      O94120   1.301   7.286   7.352
31293WAT     H194121   1.343   7.202   7.317
31293WAT     H294122   1.208   7.267   7.382
31294WAT      O94123   1.353   5.443   7.448
31294WAT     H194124   1.292   5.520   7.467
31294WAT     H294125   1.427   5.443   7.515
31295WAT      O94126   5.686   9.333   0.061
31295WAT     H194127   5.698   9.335  -0.038
31295WAT     H294128   5.772   9.355   0.106
31296WAT      O94129   4.365   4.818   3.551
31296WAT     H194130   4.384   4.793   3.646
31296WAT     H294131   4.267   4.808   3.532
31297WAT      O94132   1.190   9.595   0.834
31297WAT     H194133   1.115   9.661   0.829
31297WAT     H294134   1.220   9.587   0.929
31298WAT      O94135   7.641   2.125   0.888
31298WAT     H194136   7.608   2.180   0.811
31298WAT     H294137   7.741   2.127   0.890
31299WAT      O94138   6.307   2.588   2.760
31299WAT     H194139   6.247   2.641   2.820
31299WAT     H294140   6.395   2.574   2.805
31300WAT      O94141   6.097   3.418   3.636
31300WAT     H194142   6.169   3.365   3.593
31300WAT     H294143   6.013   3.412   3.582
31301WAT      O94144   7.923   1.405   4.716
31301WAT     H194145   7.857   1.476   4.691
31301WAT     H294146   7.881   1.343   4.782
31302WAT      O94147   1.937   2.987   9.743
31302WAT     H194148   1.850   2.948   9.772
31302WAT     H294149   2.012   2.938   9.788
31303WAT      O94150   0.731   2.060   6.926
31303WAT     H194151   0.699   1.967   6.908
31303WAT     H294152   0.665   2.126   6.892
31304WAT      O94153   8.588   0.656   9.480
31304WAT     H194154   8.509   0.656   9.542
31304WAT     H294155   8.595   0.567   9.435
31305WAT      O94156   2.232   3.588   5.120
31305WAT     H194157   2.234   3.517   5.050
31305WAT     H294158   2.287   3.666   5.089
31306WAT      O94159   9.271   4.392   5.794
31306WAT     H194160   9.332   4.316   5.815
31306WAT     H294161   9.228   4.425   5.878
31307WAT      O94162   0.253   8.821   1.007
31307WAT     H194163   0.241   8.878   1.089
31307WAT     H294164   0.331   8.853   0.955
31308WAT      O94165   6.560   5.975   2.066
31308WAT     H194166   6.581   6.024   2.150
31308WAT     H294167   6.549   6.040   1.990
31309WAT      O94168   0.143   7.059   7.116
31309WAT     H194169   0.136   6.965   7.148
31309WAT     H294170   0.168   7.059   7.019
31310WAT      O94171   5.202   8.090   6.657
31310WAT     H194172   5.175   8.101   6.752
31310WAT     H294173   5.170   8.170   6.604
31311WAT      O94174   1.626   0.773   1.456
31311WAT     H194175   1.628   0.865   1.497
31311WAT     H294176   1.565   0.715   1.510
31312WAT      O94177   8.916   7.953   1.412
31312WAT     H194178   8.820   7.928   1.422
31312WAT     H294179   8.943   8.010   1.490
31313WAT      O94180   4.112   1.504   3.024
31313WAT     H194181   4.093   1.426   3.084
31313WAT     H294182   4.029   1.530   2.975
31314WAT      O94183   7.315   2.151   8.990
31314WAT     H194184   7.388   2.217   9.009
31314WAT     H294185   7.326   2.116   8.897
31315WAT      O94186   2.344   2.627   1.312
31315WAT     H194187   2.253   2.596   1.284
31315WAT     H294188   2.400   2.548   1.338
31316WAT      O94189   8.160   7.743   3.473
31316WAT     H194190   8.142   7.783   3.383
31316WAT     H294191   8.257   7.752   3.495
31317WAT      O94192   4.401   2.660   4.655
31317WAT     H194193   4.357   2.604   4.725
31317WAT     H294194   4.386   2.619   4.565
31318WAT      O94195   3.178   6.255   8.924
31318WAT     H194196   3.232   6.328   8.964
31318WAT     H294197   3.088   6.251   8.968
31319WAT      O94198   2.035   2.803   1.597
31319WAT     H194199   2.070   2.852   1.677
31319WAT     H294200   1.991   2.868   1.535
31320WAT      O94201   7.219   4.604   1.892
31320WAT     H194202   7.201   4.521   1.944
31320WAT     H294203   7.172   4.599   1.804
31321WAT      O94204   2.188   3.801   0.980
31321WAT     H194205   2.093   3.816   0.952
31321WAT     H294206   2.249   3.848   0.917
31322WAT      O94207   1.481   7.722   1.318
31322WAT     H194208   1.508   7.793   1.253
31322WAT     H294209   1.443   7.764   1.400
31323WAT      O94210   3.210   5.494   4.657
31323WAT     H194211   3.231   5.441   4.739
31323WAT     H294212   3.286   5.488   4.593
31324WAT      O94213   2.934   5.397   6.955
31324WAT     H194214   3.006   5.373   6.889
31324WAT     H294215   2.874   5.318   6.969
31325WAT      O94216   6.126   5.841   6.767
31325WAT     H194217   6.197   5.783   6.729
31325WAT     H294218   6.129   5.837   6.867
31326WAT      O94219   3.668   4.037   4.573
31326WAT     H194220   3.702   4.016   4.482
31326WAT     H294221   3.630   3.955   4.615
31327WAT      O94222   7.669   6.085   0.914
31327WAT     H194223   7.577   6.118   0.893
31327WAT     H294224   7.663   5.995   0.958
31328WAT      O94225   6.270   1.808   6.544
31328WAT     H194226   6.175   1.785   6.567
31328WAT     H294227   6.323   1.817   6.628
31329WAT      O94228   4.878   1.882   1.620
31329WAT     H194229   4.930   1.810   1.575
31329WAT     H294230   4.781   1.856   1.624
31330WAT      O94231   3.073   3.997   1.635
31330WAT     H194232   3.031   4.077   1.591
31330WAT     H294233   3.074   3.921   1.571
31331WAT      O94234   6.981   0.949   2.014
31331WAT     H194235   7.064   0.947   1.959
31331WAT     H294236   7.005   0.956   2.111
31332WAT      O94237   9.552   8.123   6.113
31332WAT     H194238   9.460   8.156   6.134
31332WAT     H294239   9.568   8.126   6.015
31333WAT      O94240   0.830   1.807   4.088
31333WAT     H194241   0.880   1.882   4.132
31333WAT     H294242   0.815   1.733   4.153
31334WAT      O94243   3.325   7.957   1.132
31334WAT     H194244   3.231   7.924   1.136
31334WAT     H294245   3.363   7.959   1.224
31335WAT      O94246   9.886   4.678   6.495
31335WAT     H194247   9.788   4.697   6.484
31335WAT     H294248   9.939   4.757   6.463
31336WAT      O94249   0.978   8.717   1.069
31336WAT     H194250   1.063   8.766   1.051
31336WAT     H294251   0.996   8.636   1.124
31337WAT      O94252   4.404   3.768   6.322
31337WAT     H194253   4.389   3.709   6.242
31337WAT     H294254   4.441   3.712   6.397
31338WAT      O94255   1.662   8.614   6.258
31338WAT     H194256   1.727   8.673   6.306
31338WAT     H294257   1.671   8.628   6.159
31339WAT      O94258   5.055   0.122   3.077
31339WAT     H194259   5.070   0.216   3.106
31339WAT     H294260   5.122   0.062   3.122
31340WAT      O94261   0.508   0.874   3.873
31340WAT     H194262   0.442   0.802   3.892
31340WAT     H294263   0.549   0.905   3.959
31341WAT      O94264   5.028   8.736   1.574
31341WAT     H194265   5.029   8.765   1.478
31341WAT     H294266   4.939   8.756   1.614
31342WAT      O94267   0.694   6.985   4.856
31342WAT     H194268   0.737   7.064   4.899
31342WAT     H294269   0.615   7.016   4.803
31343WAT      O94270   6.478   4.583   9.005
31343WAT     H194271   6.556   4.608   9.063
31343WAT     H294272   6.393   4.596   9.056
31344WAT      O94273   7.725   9.783   6.056
31344WAT     H194274   7.741   9.798   5.958
31344WAT     H294275   7.762   9.861   6.107
31345WAT      O94276   9.569   9.635   8.764
31345WAT     H194277   9.509   9.561   8.793
31345WAT     H294278   9.657   9.627   8.811
31346WAT      O94279   6.766   5.564   3.752
31346WAT     H194280   6.835   5.629   3.784
31346WAT     H294281   6.811   5.483   3.715
31347WAT      O94282   5.288   5.661   7.160
31347WAT     H194283   5.237   5.584   7.122
31347WAT     H294284   5.367   5.681   7.102
31348WAT      O94285   2.893   6.170   4.730
31348WAT     H194286   2.861   6.167   4.825
31348WAT     H294287   2.976   6.116   4.720
31349WAT      O94288   0.889   7.183   4.574
31349WAT     H194289   0.922   7.139   4.490
31349WAT     H294290   0.903   7.121   4.651
31350WAT      O94291   6.496   4.803   6.289
31350WAT     H194292   6.434   4.782   6.214
31350WAT     H294293   6.488   4.900   6.313
31351WAT      O94294   5.561   2.373   8.626
31351WAT     H194295   5.614   2.443   8.673
31351WAT     H294296   5.501   2.327   8.691
31352WAT      O94297   0.191   8.413   1.805
31352WAT     H194298   0.197   8.315   1.822
31352WAT     H294299   0.107   8.449   1.845
31353WAT      O94300   5.689   4.665   3.686
31353WAT     H194301   5.610   4.658   3.626
31353WAT     H294302   5.660   4.651   3.781
31354WAT      O94303   0.143   0.144   1.045
31354WAT     H194304   0.161   0.046   1.038
31354WAT     H294305   0.210   0.194   0.989
31355WAT      O94306   6.201   3.227   7.862
31355WAT     H194307   6.276   3.222   7.797
31355WAT     H294308   6.154   3.315   7.853
31356WAT      O94309   3.866   1.684   2.111
31356WAT     H194310   3.792   1.747   2.134
31356WAT     H294311   3.885   1.626   2.190
31357WAT      O94312   9.873   1.774   3.127
31357WAT     H194313   9.895   1.707   3.056
31357WAT     H294314   9.901   1.739   3.216
31358WAT      O94315   5.201   8.094   2.095
31358WAT     H194316   5.157   8.061   2.011
31358WAT     H294317   5.147   8.066   2.174
31359WAT      O94318   9.829   5.735   7.044
31359WAT     H194319   9.739   5.726   7.086
31359WAT     H294320   9.895   5.679   7.093
31360WAT      O94321   3.415   1.239   3.995
31360WAT     H194322   3.376   1.202   3.910
31360WAT     H294323   3.496   1.293   3.974
31361WAT      O94324   3.132   4.952   8.608
31361WAT     H194325   3.045   4.907   8.628
31361WAT     H294326   3.151   4.945   8.510
31362WAT      O94327   1.705   9.676   9.371
31362WAT     H194328   1.740   9.584   9.356
31362WAT     H294329   1.671   9.713   9.284
31363WAT      O94330   7.381   2.775   0.784
31363WAT     H194331   7.452   2.769   0.853
31363WAT     H294332   7.399   2.852   0.723
31364WAT      O94333   6.015   4.088   4.136
31364WAT     H194334   6.114   4.069   4.137
31364WAT     H294335   5.977   4.057   4.049
31365WAT      O94336   1.747   9.050   5.997
31365WAT     H194337   1.791   8.972   5.953
31365WAT     H294338   1.650   9.029   6.011
31366WAT      O94339   2.592   2.376   5.050
31366WAT     H194340   2.685   2.345   5.070
31366WAT     H294341   2.550   2.411   5.133
31367WAT      O94342   1.340   3.766   0.980
31367WAT     H194343   1.252   3.720   0.982
31367WAT     H294344   1.331   3.858   1.019
31368WAT      O94345   8.990   3.807   6.613
31368WAT     H194346   9.014   3.720   6.655
31368WAT     H294347   8.995   3.879   6.682
31369WAT      O94348   2.118   4.505   3.991
31369WAT     H194349   2.158   4.487   3.901
31369WAT     H294350   2.172   4.458   4.061
31370WAT      O94351   8.284   3.317   9.580
31370WAT     H194352   8.321   3.253   9.647
31370WAT     H294353   8.290   3.410   9.615
31371WAT      O94354   7.926   2.023   0.351
31371WAT     H194355   8.012   2.074   0.344
31371WAT     H294356   7.869   2.062   0.423
31372WAT      O94357   6.803   6.783   9.615
31372WAT     H194358   6.839   6.833   9.536
31372WAT     H294359   6.730   6.836   9.658
31373WAT      O94360   6.925   4.811   8.170
31373WAT     H194361   6.936   4.725   8.219
31373WAT     H294362   7.006   4.868   8.184
31374WAT      O94363   7.012   3.893   3.929
31374WAT     H194364   7.035   3.961   3.859
31374WAT     H294365   7.078   3.818   3.924
31375WAT      O94366   4.001   3.728   2.381
31375WAT     H194367   3.991   3.794   2.307
31375WAT     H294368   3.947   3.646   2.360
31376WAT      O94369   7.674   2.181   1.397
31376WAT     H194370   7.667   2.082   1.410
31376WAT     H294371   7.760   2.203   1.352
31377WAT      O94372   2.513   2.387   1.320
31377WAT     H194373   2.463   2.302   1.301
31377WAT     H294374   2.556   2.420   1.236
31378WAT      O94375   2.236   8.491   3.566
31378WAT     H194376   2.205   8.585   3.581
31378WAT     H294377   2.227   8.468   3.469
31379WAT      O94378   0.163   4.741   3.195
31379WAT     H194379   0.249   4.789   3.177
31379WAT     H294380   0.180   4.644   3.207
31380WAT      O94381   0.058   5.928   8.159
31380WAT     H194382   0.140   5.945   8.105
31380WAT     H294383   0.032   5.831   8.151
31381WAT      O94384   2.988   8.793   1.842
31381WAT     H194385   2.944   8.865   1.788
31381WAT     H294386   2.927   8.714   1.848
31382WAT      O94387   5.937   1.877   6.226
31382WAT     H194388   5.859   1.897   6.167
31382WAT     H294389   5.910   1.884   6.322
31383WAT      O94390   3.135   0.715   9.169
31383WAT     H194391   3.136   0.631   9.223
31383WAT     H294392   3.113   0.693   9.074
31384WAT      O94393   6.932   9.547   6.890
31384WAT     H194394   6.899   9.638   6.865
31384WAT     H294395   6.891   9.519   6.977
31385WAT      O94396   7.356   3.481   3.567
31385WAT     H194397   7.345   3.559   3.629
31385WAT     H294398   7.444   3.490   3.519
31386WAT      O94399   5.437   3.386   0.833
31386WAT     H194400   5.439   3.328   0.751
31386WAT     H294401   5.347   3.427   0.843
31387WAT      O94402   3.736   5.308   0.742
31387WAT     H194403   3.649   5.270   0.709
31387WAT     H294404   3.726   5.406   0.759
31388WAT      O94405   0.296   8.217   4.563
31388WAT     H194406   0.341   8.138   4.604
31388WAT     H294407   0.328   8.301   4.606
31389WAT      O94408   7.321   6.083   7.458
31389WAT     H194409   7.281   6.055   7.371
31389WAT     H294410   7.248   6.103   7.523
31390WAT      O94411   7.039   5.016   7.651
31390WAT     H194412   7.004   4.963   7.728
31390WAT     H294413   6.983   4.997   7.570
31391WAT      O94414   9.592   6.255   8.527
31391WAT     H194415   9.666   6.302   8.479
31391WAT     H294416   9.615   6.248   8.624
31392WAT      O94417   6.684   0.230   7.803
31392WAT     H194418   6.668   0.133   7.823
31392WAT     H294419   6.652   0.250   7.710
31393WAT      O94420   8.309   4.668   6.724
31393WAT     H194421   8.356   4.755   6.740
31393WAT     H294422   8.232   4.682   6.662
31394WAT      O94423   4.960   6.351   4.196
31394WAT     H194424   5.026   6.426   4.195
31394WAT     H294425   5.003   6.268   4.161
31395WAT      O94426   5.750   0.510   8.660
31395WAT     H194427   5.788   0.421   8.686
31395WAT     H294428   5.654   0.514   8.687
31396WAT      O94429   1.303   9.757   3.197
31396WAT     H194430   1.247   9.727   3.120
31396WAT     H294431   1.284   9.853   3.216
31397WAT      O94432   4.346   6.695   0.165
31397WAT     H194433   4.394   6.607   0.170
31397WAT     H294434   4.251   6.682   0.192
31398WAT      O94435   1.485   7.004   1.679
31398WAT     H194436   1.406   7.064   1.664
31398WAT     H294437   1.507   7.002   1.776
31399WAT      O94438   5.671   2.740   6.805
31399WAT     H194439   5.748   2.799   6.830
31399WAT     H294440   5.693   2.691   6.721
31400WAT      O94441   3.785   2.747   7.465
31400WAT     H194442   3.774   2.649   7.485
31400WAT     H294443   3.703   2.796   7.495
31401WAT      O94444   0.078   9.152   4.006
31401WAT     H194445   0.100   9.181   3.913
31401WAT     H294446   0.162   9.146   4.060
31402WAT      O94447   6.326   6.293   3.671
31402WAT     H194448   6.240   6.245   3.652
31402WAT     H294449   6.336   6.306   3.770
31403WAT      O94450   5.619   0.856   5.685
31403WAT     H194451   5.642   0.843   5.781
31403WAT     H294452   5.570   0.776   5.651
31404WAT      O94453   7.210   6.981   6.643
31404WAT     H194454   7.264   7.010   6.722
31404WAT     H294455   7.191   6.883   6.650
31405WAT      O94456   2.190   3.216   9.410
31405WAT     H194457   2.287   3.237   9.401
31405WAT     H294458   2.164   3.212   9.507
31406WAT      O94459   1.846   7.964   9.642
31406WAT     H194460   1.884   7.880   9.604
31406WAT     H294461   1.759   7.945   9.687
31407WAT      O94462   5.223   9.566   6.670
31407WAT     H194463   5.288   9.582   6.745
31407WAT     H294464   5.133   9.600   6.697
31408WAT      O94465   2.775   5.866   9.581
31408WAT     H194466   2.747   5.928   9.508
31408WAT     H294467   2.734   5.896   9.667
31409WAT      O94468   7.666   4.385   1.196
31409WAT     H194469   7.723   4.412   1.118
31409WAT     H294470   7.641   4.289   1.187
31410WAT      O94471   3.096   2.496   2.427
31410WAT     H194472   3.184   2.544   2.435
31410WAT     H294473   3.058   2.512   2.336
31411WAT      O94474   6.683   6.625   1.784
31411WAT     H194475   6.658   6.716   1.750
31411WAT     H294476   6.782   6.618   1.791
31412WAT      O94477   5.422   7.740   5.287
31412WAT     H194478   5.450   7.644   5.291
31412WAT     H294479   5.382   7.767   5.375
31413WAT      O94480   6.035   7.473   5.059
31413WAT     H194481   5.985   7.544   5.109
31413WAT     H294482   6.106   7.517   5.004
31414WAT      O94483   7.809   6.557   5.432
31414WAT     H194484   7.805   6.469   5.385
31414WAT     H294485   7.814   6.631   5.364
31415WAT      O94486   2.571   4.379   3.452
31415WAT     H194487   2.474   4.374   3.474
31415WAT     H294488   2.608   4.286   3.445
31416WAT      O94489   6.752   7.498   2.536
31416WAT     H194490   6.720   7.518   2.628
31416WAT     H294491   6.695   7.547   2.470
31417WAT      O94492   0.645   3.398   2.545
31417WAT     H194493   0.648   3.320   2.482
31417WAT     H294494   0.678   3.480   2.497
31418WAT      O94495   8.690   4.820   0.184
31418WAT     H194496   8.775   4.768   0.185
31418WAT     H294497   8.633   4.793   0.261
31419WAT      O94498   7.327   6.269   4.531
31419WAT     H194499   7.422   6.261   4.500
31419WAT     H294500   7.323   6.251   4.630
31420WAT      O94501   6.298   3.739   5.315
31420WAT     H194502   6.204   3.720   5.289
31420WAT     H294503   6.300   3.788   5.402
31421WAT      O94504   3.723   7.324   3.934
31421WAT     H194505   3.685   7.296   4.022
31421WAT     H294506   3.761   7.416   3.941
31422WAT      O94507   7.994   5.305   5.308
31422WAT     H194508   7.905   5.281   5.270
31422WAT     H294509   7.985   5.324   5.405
31423WAT      O94510   1.290   1.106   1.359
31423WAT     H194511   1.254   1.043   1.428
31423WAT     H294512   1.215   1.158   1.318
31424WAT      O94513   9.054   8.517   6.420
31424WAT     H194514   9.038   8.615   6.417
31424WAT     H294515   9.144   8.496   6.382
31425WAT      O94516   0.816   1.415   8.923
31425WAT     H194517   0.893   1.383   8.978
31425WAT     H294518   0.828   1.384   8.829
31426WAT      O94519   6.658   0.940   6.710
31426WAT     H194520   6.740   0.965   6.761
31426WAT     H294521   6.581   0.994   6.743
31427WAT      O94522   0.625   8.297   2.710
31427WAT     H194523   0.693   8.249   2.655
31427WAT     H294524   0.573   8.232   2.765
31428WAT      O94525   1.229   9.729   2.374
31428WAT     H194526   1.248   9.786   2.454
31428WAT     H294527   1.299   9.744   2.304
31429WAT      O94528   1.913   5.708   2.070
31429WAT     H194529   1.878   5.616   2.087
31429WAT     H294530   2.004   5.717   2.111
31430WAT      O94531   9.062   7.472   5.100
31430WAT     H194532   9.019   7.550   5.145
31430WAT     H294533   9.066   7.395   5.164
31431WAT      O94534   3.093   4.585   9.023
31431WAT     H194535   3.006   4.600   9.070
31431WAT     H294536   3.077   4.585   8.924
31432WAT      O94537   0.850   9.537   1.343
31432WAT     H194538   0.776   9.479   1.310
31432WAT     H294539   0.854   9.621   1.289
31433WAT      O94540   2.833   6.118   6.495
31433WAT     H194541   2.820   6.023   6.469
31433WAT     H294542   2.905   6.159   6.439
31434WAT      O94543   5.899   9.345   2.542
31434WAT     H194544   5.974   9.410   2.555
31434WAT     H294545   5.875   9.341   2.445
31435WAT      O94546   2.534   8.566   7.729
31435WAT     H194547   2.442   8.537   7.755
31435WAT     H294548   2.531   8.611   7.640
31436WAT      O94549   7.159   8.301   8.028
31436WAT     H194550   7.198   8.393   8.026
31436WAT     H294551   7.233   8.233   8.030
31437WAT      O94552   8.249   5.046   1.964
31437WAT     H194553   8.304   4.999   1.896
31437WAT     H294554   8.295   5.042   2.053
31438WAT      O94555   8.633   7.394   7.947
31438WAT     H194556   8.684   7.358   7.869
31438WAT     H294557   8.678   7.477   7.980
31439WAT      O94558   3.442   7.375   3.885
31439WAT     H194559   3.540   7.357   3.891
31439WAT     H294560   3.426   7.474   3.895
31440WAT      O94561   2.311   4.544   6.758
31440WAT     H194562   2.395   4.539   6.813
31440WAT     H294563   2.319   4.482   6.680
31441WAT      O94564   2.363   5.016   6.248
31441WAT     H194565   2.364   5.046   6.344
31441WAT     H294566   2.300   5.075   6.197
31442WAT      O94567   4.535   6.839   2.717
31442WAT     H194568   4.580   6.914   2.670
31442WAT     H294569   4.477   6.789   2.653
31443WAT      O94570   9.714   0.550   3.096
31443WAT     H194571   9.775   0.627   3.076
31443WAT     H294572   9.626   0.564   3.052
31444WAT      O94573   6.801   9.728   5.406
31444WAT     H194574   6.732   9.763   5.343
31444WAT     H294575   6.891   9.736   5.364
31445WAT      O94576   1.505   8.456   2.819
31445WAT     H194577   1.477   8.444   2.724
31445WAT     H294578   1.427   8.443   2.879
31446WAT      O94579   0.183   5.434   6.146
31446WAT     H194580   0.276   5.461   6.170
31446WAT     H294581   0.121   5.456   6.222
31447WAT      O94582   5.822   5.898   1.972
31447WAT     H194583   5.800   5.994   1.956
31447WAT     H294584   5.777   5.841   1.902
31448WAT      O94585   1.141   7.156   7.052
31448WAT     H194586   1.161   7.087   6.982
31448WAT     H294587   1.192   7.240   7.031
31449WAT      O94588   0.728   7.108   2.438
31449WAT     H194589   0.784   7.027   2.459
31449WAT     H294590   0.744   7.135   2.343
31450WAT      O94591   8.867   6.969   2.034
31450WAT     H194592   8.964   6.987   2.053
31450WAT     H294593   8.816   6.969   2.120
31451WAT      O94594   0.835   6.449   7.792
31451WAT     H194595   0.821   6.536   7.840
31451WAT     H294596   0.923   6.410   7.817
31452WAT      O94597   2.634   1.151   7.515
31452WAT     H194598   2.550   1.157   7.571
31452WAT     H294599   2.610   1.121   7.423
31453WAT      O94600   0.981   0.990   2.528
31453WAT     H194601   0.903   0.940   2.489
31453WAT     H294602   1.066   0.945   2.501
31454WAT      O94603   2.858   0.115   1.657
31454WAT     H194604   2.799   0.159   1.725
31454WAT     H294605   2.813   0.115   1.568
31455WAT      O94606   3.903   9.575   5.239
31455WAT     H194607   3.906   9.482   5.200
31455WAT     H294608   3.993   9.617   5.231
31456WAT      O94609   7.841   1.643   6.768
31456WAT     H194610   7.779   1.657   6.845
31456WAT     H294611   7.879   1.550   6.772
31457WAT      O94612   2.208   3.455   3.029
31457WAT     H194613   2.185   3.366   3.069
31457WAT     H294614   2.294   3.488   3.070
31458WAT      O94615   2.765   5.449   9.039
31458WAT     H194616   2.855   5.460   8.998
31458WAT     H294617   2.725   5.362   9.010
31459WAT      O94618   5.298   0.803   6.555
31459WAT     H194619   5.318   0.756   6.470
31459WAT     H294620   5.231   0.876   6.538
31460WAT      O94621   0.879   6.057   4.998
31460WAT     H194622   0.858   6.036   4.902
31460WAT     H294623   0.848   5.982   5.056
31461WAT      O94624   3.993   7.688   5.923
31461WAT     H194625   4.024   7.650   6.010
31461WAT     H294626   4.011   7.786   5.922
31462WAT      O94627   7.102   0.257   0.578
31462WAT     H194628   7.195   0.286   0.603
31462WAT     H294629   7.044   0.258   0.660
31463WAT      O94630   7.039   9.423   0.920
31463WAT     H194631   6.970   9.356   0.947
31463WAT     H294632   7.042   9.497   0.988
31464WAT      O94633   7.906   4.542   5.767
31464WAT     H194634   7.953   4.621   5.728
31464WAT     H294635   7.949   4.518   5.855
31465WAT      O94636   0.189   9.007   8.731
31465WAT     H194637   0.232   8.983   8.644
31465WAT     H294638   0.157   8.924   8.776
31466WAT      O94639   9.374   5.224   5.770
31466WAT     H194640   9.365   5.286   5.848
31466WAT     H294641   9.330   5.264   5.690
31467WAT      O94642   8.167   2.217   3.116
31467WAT     H194643   8.092   2.163   3.154
31467WAT     H294644   8.245   2.215   3.179
31468WAT      O94645   3.464   5.772   7.338
31468WAT     H194646   3.384   5.832   7.332
31468WAT     H294647   3.478   5.744   7.432
31469WAT      O94648   7.459   5.953   8.096
31469WAT     H194649   7.471   5.955   7.997
31469WAT     H294650   7.407   6.034   8.125
31470WAT      O94651   4.259   8.107   8.452
31470WAT     H194652   4.307   8.193   8.436
31470WAT     H294653   4.199   8.087   8.375
31471WAT      O94654   9.419   3.876   2.413
31471WAT     H194655   9.331   3.920   2.395
31471WAT     H294656   9.490   3.921   2.359
31472WAT      O94657   8.904   7.584   5.708
31472WAT     H194658   8.842   7.662   5.709
31472WAT     H294659   8.911   7.546   5.801
31473WAT      O94660   1.098   6.784   3.304
31473WAT     H194661   1.181   6.836   3.283
31473WAT     H294662   1.023   6.815   3.246
31474WAT      O94663   7.238   9.212   4.315
31474WAT     H194664   7.138   9.202   4.320
31474WAT     H294665   7.281   9.124   4.330
31475WAT      O94666   9.712   1.954   0.921
31475WAT     H194667   9.621   1.926   0.951
31475WAT     H294668   9.721   2.053   0.927
31476WAT      O94669   4.637   8.174   9.500
31476WAT     H194670   4.550   8.128   9.515
31476WAT     H294671   4.622   8.273   9.495
31477WAT      O94672   8.791   8.767   2.360
31477WAT     H194673   8.797   8.751   2.458
31477WAT     H294674   8.717   8.832   2.342
31478WAT      O94675   5.831   3.763   1.382
31478WAT     H194676   5.795   3.752   1.290
31478WAT     H294677   5.784   3.839   1.427
31479WAT      O94678   9.311   8.006   1.334
31479WAT     H194679   9.354   8.027   1.422
31479WAT     H294680   9.238   7.939   1.347
31480WAT      O94681   1.405   7.922   0.068
31480WAT     H194682   1.399   8.013   0.107
31480WAT     H294683   1.400   7.854   0.142
31481WAT      O94684   7.092   8.651   3.181
31481WAT     H194685   7.015   8.715   3.187
31481WAT     H294686   7.068   8.566   3.228
31482WAT      O94687   4.621   8.251   7.147
31482WAT     H194688   4.626   8.259   7.047
31482WAT     H294689   4.580   8.335   7.184
31483WAT      O94690   0.975   1.128   3.368
31483WAT     H194691   0.981   1.204   3.302
31483WAT     H294692   0.880   1.109   3.388
31484WAT      O94693   9.716   8.949   7.437
31484WAT     H194694   9.757   8.918   7.523
31484WAT     H294695   9.715   9.049   7.435
31485WAT      O94696   0.930   5.751   4.160
31485WAT     H194697   0.970   5.777   4.072
31485WAT     H294698   0.993   5.776   4.234
31486WAT      O94699   2.868   5.874   5.210
31486WAT     H194700   2.924   5.934   5.268
31486WAT     H294701   2.777   5.913   5.198
31487WAT      O94702   6.944   7.486   2.092
31487WAT     H194703   6.954   7.575   2.137
31487WAT     H294704   6.888   7.497   2.009
31488WAT      O94705   5.372   6.490   3.444
31488WAT     H194706   5.306   6.478   3.519
31488WAT     H294707   5.461   6.517   3.482
31489WAT      O94708   2.526   2.191   3.723
31489WAT     H194709   2.498   2.150   3.636
31489WAT     H294710   2.540   2.289   3.710
31490WAT      O94711   8.796   8.534   8.358
31490WAT     H194712   8.785   8.451   8.413
31490WAT     H294713   8.892   8.545   8.333
31491WAT      O94714   9.271   8.380   6.265
31491WAT     H194715   9.321   8.457   6.224
31491WAT     H294716   9.327   8.338   6.336
31492WAT      O94717   1.879   0.394   2.319
31492WAT     H194718   1.782   0.384   2.299
31492WAT     H294719   1.926   0.308   2.298
31493WAT      O94720   7.229   8.531   4.114
31493WAT     H194721   7.300   8.481   4.064
31493WAT     H294722   7.179   8.468   4.173
31494WAT      O94723   0.980   7.900   3.344
31494WAT     H194724   0.947   7.872   3.254
31494WAT     H294725   0.960   7.997   3.358
31495WAT      O94726   1.463   3.723   4.855
31495WAT     H194727   1.384   3.769   4.813
31495WAT     H294728   1.517   3.790   4.906
31496WAT      O94729   6.254   4.066   1.183
31496WAT     H194730   6.319   3.998   1.151
31496WAT     H294731   6.303   4.139   1.231
31497WAT      O94732   6.613   0.630   0.360
31497WAT     H194733   6.663   0.688   0.296
31497WAT     H294734   6.529   0.596   0.317
31498WAT      O94735   1.877   3.921   1.646
31498WAT     H194736   1.894   3.925   1.744
31498WAT     H294737   1.870   4.014   1.609
31499WAT      O94738   8.758   5.163   2.953
31499WAT     H194739   8.796   5.253   2.930
31499WAT     H294740   8.819   5.092   2.920
31500WAT      O94741   3.216   4.343   3.456
31500WAT     H194742   3.186   4.363   3.549
31500WAT     H294743   3.273   4.260   3.457
31501WAT      O94744   5.431   2.058   4.091
31501WAT     H194745   5.352   2.000   4.113
31501WAT     H294746   5.469   2.095   4.175
31502WAT      O94747   9.877   2.212   1.902
31502WAT     H194748   9.794   2.201   1.848
31502WAT     H294749   9.870   2.158   1.986
31503WAT      O94750   1.176   6.947   2.598
31503WAT     H194751   1.108   6.959   2.671
31503WAT     H294752   1.247   6.885   2.629
31504WAT      O94753   9.680   4.196   7.275
31504WAT     H194754   9.640   4.285   7.297
31504WAT     H294755   9.608   4.126   7.278
31505WAT      O94756   4.495   8.180   0.035
31505WAT     H194757   4.412   8.131   0.008
31505WAT     H294758   4.498   8.187   0.135
31506WAT      O94759   9.216   7.140   5.839
31506WAT     H194760   9.242   7.115   5.932
31506WAT     H294761   9.117   7.132   5.827
31507WAT      O94762   1.676   6.575   5.733
31507WAT     H194763   1.645   6.523   5.654
31507WAT     H294764   1.765   6.540   5.763
31508WAT      O94765   1.152   4.796   2.363
31508WAT     H194766   1.170   4.894   2.356
31508WAT     H294767   1.070   4.782   2.419
31509WAT      O94768   9.599   1.413   1.344
31509WAT     H194769   9.534   1.411   1.421
31509WAT     H294770   9.633   1.321   1.327
31510WAT      O94771   6.167   0.864   5.258
31510WAT     H194772   6.088   0.829   5.209
31510WAT     H294773   6.239   0.795   5.258
31511WAT      O94774   1.218   7.544   2.867
31511WAT     H194775   1.261   7.571   2.781
31511WAT     H294776   1.140   7.604   2.886
31512WAT      O94777   9.475   5.837   9.539
31512WAT     H194778   9.518   5.754   9.576
31512WAT     H294779   9.498   5.847   9.443
31513WAT      O94780   9.829   3.187   7.737
31513WAT     H194781   9.842   3.207   7.834
31513WAT     H294782   9.917   3.164   7.695
31514WAT      O94783   6.054   6.449   8.467
31514WAT     H194784   6.137   6.493   8.502
31514WAT     H294785   6.067   6.428   8.370
31515WAT      O94786   9.573   1.691   3.459
31515WAT     H194787   9.560   1.687   3.360
31515WAT     H294788   9.606   1.603   3.492
31516WAT      O94789   2.690   5.941   2.277
31516WAT     H194790   2.669   5.858   2.328
31516WAT     H294791   2.695   6.019   2.340
31517WAT      O94792   3.192   3.207   9.843
31517WAT     H194793   3.252   3.136   9.806
31517WAT     H294794   3.176   3.276   9.773
31518WAT      O94795   6.969   2.731   6.711
31518WAT     H194796   6.939   2.719   6.805
31518WAT     H294797   7.006   2.645   6.676
31519WAT      O94798   6.361   3.860   6.152
31519WAT     H194799   6.393   3.839   6.244
31519WAT     H294800   6.278   3.808   6.132
31520WAT      O94801   5.011   5.112   7.983
31520WAT     H194802   5.020   5.096   8.081
31520WAT     H294803   5.046   5.203   7.961
31521WAT      O94804   2.889   4.540   1.824
31521WAT     H194805   2.794   4.519   1.845
31521WAT     H294806   2.898   4.564   1.728
31522WAT      O94807   7.365   7.046   6.864
31522WAT     H194808   7.311   7.127   6.886
31522WAT     H294809   7.429   7.028   6.938
31523WAT      O94810   8.116   5.274   1.536
31523WAT     H194811   8.169   5.237   1.459
31523WAT     H294812   8.166   5.258   1.621
31524WAT      O94813   5.441   0.264   8.637
31524WAT     H194814   5.368   0.206   8.673
31524WAT     H294815   5.439   0.263   8.537
31525WAT      O94816   4.885   3.943   2.799
31525WAT     H194817   4.832   3.973   2.719
31525WAT     H294818   4.921   4.022   2.847
31526WAT      O94819   0.836   3.867   3.511
31526WAT     H194820   0.890   3.875   3.595
31526WAT     H294821   0.866   3.937   3.446
31527WAT      O94822   7.725   8.621   3.433
31527WAT     H194823   7.751   8.708   3.391
31527WAT     H294824   7.627   8.605   3.418
31528WAT      O94825   3.228   7.299   2.138
31528WAT     H194826   3.156   7.366   2.123
31528WAT     H294827   3.211   7.219   2.080
31529WAT      O94828   8.009   9.174   0.681
31529WAT     H194829   8.004   9.075   0.664
31529WAT     H294830   8.038   9.191   0.775
31530WAT      O94831   9.823   6.160   3.026
31530WAT     H194832   9.811   6.258   3.015
31530WAT     H294833   9.888   6.126   2.957
31531WAT      O94834   7.786   4.134   7.880
31531WAT     H194835   7.777   4.093   7.789
31531WAT     H294836   7.728   4.086   7.945
31532WAT      O94837   0.074   7.456   6.010
31532WAT     H194838   0.129   7.528   6.052
31532WAT     H294839   0.031   7.491   5.926
31533WAT      O94840   2.316   0.818   3.366
31533WAT     H194841   2.399   0.873   3.354
31533WAT     H294842   2.326   0.732   3.316
31534WAT      O94843   6.070   0.766   6.730
31534WAT     H194844   5.995   0.771   6.795
31534WAT     H294845   6.034   0.743   6.639
31535WAT      O94846   0.897   2.742   9.267
31535WAT     H194847   0.862   2.807   9.200
31535WAT     H294848   0.820   2.694   9.310
31536WAT      O94849   7.590   2.686   0.975
31536WAT     H194850   7.600   2.587   0.968
31536WAT     H294851   7.680   2.729   0.970
31537WAT      O94852   4.262   1.151   1.457
31537WAT     H194853   4.347   1.097   1.453
31537WAT     H294854   4.273   1.234   1.403
31538WAT      O94855   1.724   4.738   9.053
31538WAT     H194856   1.716   4.667   9.123
31538WAT     H294857   1.818   4.772   9.052
31539WAT      O94858   4.953   0.536   4.406
31539WAT     H194859   4.955   0.621   4.354
31539WAT     H294860   5.032   0.531   4.466
31540WAT      O94861   0.578   0.247   4.605
31540WAT     H194862   0.516   0.211   4.534
31540WAT     H294863   0.582   0.181   4.681
31541WAT      O94864   4.332   8.527   7.005
31541WAT     H194865   4.354   8.513   6.908
31541WAT     H294866   4.239   8.561   7.013
31542WAT      O94867   8.135   2.466   0.012
31542WAT     H194868   8.092   2.494  -0.073
31542WAT     H294869   8.074   2.487   0.089
31543WAT      O94870   3.282   5.819   0.171
31543WAT     H194871   3.272   5.725   0.203
31543WAT     H294872   3.379   5.840   0.156
31544WAT      O94873   9.571   0.296   7.563
31544WAT     H194874   9.553   0.197   7.557
31544WAT     H294875   9.608   0.317   7.654
31545WAT      O94876   2.254   8.678   9.061
31545WAT     H194877   2.325   8.629   9.012
31545WAT     H294878   2.249   8.644   9.155
31546WAT      O94879   2.847   8.810   3.634
31546WAT     H194880   2.850   8.822   3.535
31546WAT     H294881   2.910   8.875   3.677
31547WAT      O94882   8.503   7.757   8.142
31547WAT     H194883   8.450   7.680   8.105
31547WAT     H294884   8.440   7.825   8.180
31548WAT      O94885   9.833   7.094   7.746
31548WAT     H194886   9.815   7.153   7.824
31548WAT     H294887   9.766   7.111   7.674
31549WAT      O94888   9.436   3.949   0.187
31549WAT     H194889   9.432   3.996   0.275
31549WAT     H294890   9.359   3.887   0.178
31550WAT      O94891   3.753   6.315   5.728
31550WAT     H194892   3.824   6.329   5.659
31550WAT     H294893   3.765   6.225   5.770
31551WAT      O94894   1.249   7.711   5.813
31551WAT     H194895   1.155   7.722   5.780
31551WAT     H294896   1.260   7.763   5.898
31552WAT      O94897   7.547   2.053   7.069
31552WAT     H194898   7.600   2.131   7.102
31552WAT     H294899   7.515   2.070   6.976
31553WAT      O94900   2.782   8.751   8.373
31553WAT     H194901   2.870   8.788   8.340
31553WAT     H294902   2.707   8.805   8.334
31554WAT      O94903   9.100   3.657   2.319
31554WAT     H194904   9.197   3.659   2.294
31554WAT     H294905   9.089   3.607   2.405
31555WAT      O94906   9.355   4.780   5.869
31555WAT     H194907   9.391   4.737   5.786
31555WAT     H294908   9.337   4.711   5.938
31556WAT      O94909   6.287   5.218   1.660
31556WAT     H194910   6.265   5.264   1.746
31556WAT     H294911   6.318   5.286   1.593
31557WAT      O94912   5.838   1.506   7.830
31557WAT     H194913   5.806   1.434   7.769
31557WAT     H294914   5.858   1.467   7.920
31558WAT      O94915   0.124   5.702   3.285
31558WAT     H194916   0.046   5.723   3.226
31558WAT     H294917   0.200   5.668   3.229
31559WAT      O94918   8.978   7.849   1.760
31559WAT     H194919   9.018   7.782   1.697
31559WAT     H294920   8.892   7.813   1.797
31560WAT      O94921   5.994   7.811   4.953
31560WAT     H194922   5.955   7.736   5.006
31560WAT     H294923   5.964   7.898   4.991
31561WAT      O94924   2.696   5.731   3.017
31561WAT     H194925   2.614   5.696   3.062
31561WAT     H294926   2.684   5.828   2.997
31562WAT      O94927   7.801   3.366   7.384
31562WAT     H194928   7.885   3.412   7.414
31562WAT     H294929   7.798   3.274   7.423
31563WAT      O94930   5.346   8.027   6.407
31563WAT     H194931   5.290   8.028   6.490
31563WAT     H294932   5.433   8.073   6.426
31564WAT      O94933   8.343   4.882   3.185
31564WAT     H194934   8.303   4.835   3.264
31564WAT     H294935   8.298   4.971   3.173
31565WAT      O94936   2.583   7.552   2.767
31565WAT     H194937   2.661   7.544   2.706
31565WAT     H294938   2.560   7.649   2.779
31566WAT      O94939   7.631   4.977   2.496
31566WAT     H194940   7.540   5.006   2.524
31566WAT     H294941   7.645   4.881   2.523
31567WAT      O94942   0.400   7.430   9.077
31567WAT     H194943   0.470   7.365   9.107
31567WAT     H294944   0.343   7.455   9.155
31568WAT      O94945   4.589   6.388   4.961
31568WAT     H194946   4.609   6.455   4.890
31568WAT     H294947   4.656   6.396   5.035
31569WAT      O94948   7.640   5.751   2.243
31569WAT     H194949   7.558   5.705   2.210
31569WAT     H294950   7.657   5.833   2.188
31570WAT      O94951   3.366   5.237   3.599
31570WAT     H194952   3.447   5.236   3.539
31570WAT     H294953   3.295   5.180   3.559
31571WAT      O94954   7.240   6.968   1.717
31571WAT     H194955   7.253   6.982   1.619
31571WAT     H294956   7.269   7.049   1.767
31572WAT      O94957   0.744   3.626   2.394
31572WAT     H194958   0.762   3.653   2.300
31572WAT     H294959   0.775   3.699   2.456
31573WAT      O94960   7.138   0.910   0.365
31573WAT     H194961   7.134   1.008   0.350
31573WAT     H294962   7.070   0.884   0.434
31574WAT      O94963   3.493   6.653   7.954
31574WAT     H194964   3.481   6.595   8.035
31574WAT     H294965   3.550   6.732   7.978
31575WAT      O94966   9.487   3.337   2.916
31575WAT     H194967   9.554   3.272   2.880
31575WAT     H294968   9.528   3.387   2.993
31576WAT      O94969   7.628   7.131   9.113
31576WAT     H194970   7.603   7.131   9.210
31576WAT     H294971   7.640   7.037   9.082
31577WAT      O94972   4.208   7.534   8.237
31577WAT     H194973   4.222   7.625   8.276
31577WAT     H294974   4.279   7.472   8.271
31578WAT      O94975   4.095   7.562   1.783
31578WAT     H194976   4.194   7.565   1.769
31578WAT     H294977   4.051   7.628   1.722
31579WAT      O94978   0.640   4.776   4.962
31579WAT     H194979   0.630   4.791   4.864
31579WAT     H294980   0.587   4.844   5.012
31580WAT      O94981   4.326   7.241   7.767
31580WAT     H194982   4.326   7.341   7.776
31580WAT     H294983   4.256   7.213   7.701
31581WAT      O94984   6.827   8.403   2.666
31581WAT     H194985   6.779   8.415   2.579
31581WAT     H294986   6.894   8.476   2.679
31582WAT      O94987   8.915   7.502   6.728
31582WAT     H194988   9.004   7.523   6.688
31582WAT     H294989   8.849   7.486   6.655
31583WAT      O94990   2.624   4.554   1.454
31583WAT     H194991   2.539   4.519   1.413
31583WAT     H294992   2.690   4.572   1.382
31584WAT      O94993   1.677   4.476   6.214
31584WAT     H194994   1.625   4.392   6.229
31584WAT     H294995   1.680   4.529   6.299
31585WAT      O94996   0.757   0.007   5.819
31585WAT     H194997   0.715  -0.082   5.800
31585WAT     H294998   0.757   0.062   5.736
31586WAT      O94999   7.915   0.860   6.850
31586WAT     H195000   7.852   0.935   6.834
31586WAT     H295001   7.941   0.858   6.946
31587WAT      O95002   6.257   5.007   3.150
31587WAT     H195003   6.192   4.947   3.196
31587WAT     H295004   6.281   4.968   3.061
31588WAT      O95005   5.389   8.447   5.884
31588WAT     H195006   5.389   8.393   5.801
31588WAT     H295007   5.340   8.533   5.869
31589WAT      O95008   7.658   8.199   9.748
31589WAT     H195009   7.654   8.254   9.831
31589WAT     H295010   7.598   8.120   9.757
31590WAT      O95011   4.315   7.038   8.244
31590WAT     H195012   4.266   6.952   8.232
31590WAT     H295013   4.281   7.085   8.325
31591WAT      O95014   3.866   2.852   6.457
31591WAT     H195015   3.834   2.914   6.528
31591WAT     H295016   3.949   2.889   6.415
31592WAT      O95017   3.899   5.460   8.136
31592WAT     H195018   3.814   5.487   8.181
31592WAT     H295019   3.946   5.541   8.102
31593WAT      O95020   8.965   9.622   2.063
31593WAT     H195021   9.008   9.624   1.973
31593WAT     H295022   9.036   9.614   2.133
31594WAT      O95023   4.546   4.059   1.201
31594WAT     H195024   4.622   4.096   1.149
31594WAT     H295025   4.556   4.083   1.298
31595WAT      O95026   0.753   8.853   3.784
31595WAT     H195027   0.677   8.870   3.721
31595WAT     H295028   0.825   8.802   3.737
31596WAT      O95029   2.520   4.930   4.311
31596WAT     H195030   2.565   4.931   4.401
31596WAT     H295031   2.573   4.876   4.247
31597WAT      O95032   7.478   6.278   2.910
31597WAT     H195033   7.495   6.241   3.001
31597WAT     H295034   7.563   6.314   2.872
31598WAT      O95035   4.987   4.505   9.841
31598WAT     H195036   4.988   4.432   9.772
31598WAT     H295037   4.997   4.594   9.795
31599WAT      O95038   4.344   4.291   1.452
31599WAT     H195039   4.334   4.366   1.518
31599WAT     H295040   4.427   4.304   1.399
31600WAT      O95041   2.787   7.544   0.026
31600WAT     H195042   2.876   7.552  -0.018
31600WAT     H295043   2.786   7.600   0.109
31601WAT      O95044   0.290   0.336   4.767
31601WAT     H195045   0.205   0.290   4.744
31601WAT     H295046   0.307   0.409   4.700
31602WAT      O95047   6.579   9.700   4.585
31602WAT     H195048   6.610   9.781   4.634
31602WAT     H295049   6.653   9.664   4.528
31603WAT      O95050   0.729   2.222   7.812
31603WAT     H195051   0.733   2.177   7.723
31603WAT     H295052   0.793   2.298   7.814
31604WAT      O95053   7.323   7.278   6.272
31604WAT     H195054   7.327   7.377   6.255
31604WAT     H295055   7.412   7.237   6.251
31605WAT      O95056   4.940   0.201   1.546
31605WAT     H195057   4.939   0.301   1.545
31605WAT     H295058   4.978   0.169   1.633
31606WAT      O95059   9.245   7.991   8.595
31606WAT     H195060   9.321   7.972   8.657
31606WAT     H295061   9.232   8.090   8.586
31607WAT      O95062   8.871   2.985   5.025
31607WAT     H195063   8.964   3.017   5.042
31607WAT     H295064   8.807   3.061   5.030
31608WAT      O95065   0.652   5.653   3.826
31608WAT     H195066   0.668   5.555   3.816
31608WAT     H295067   0.645   5.677   3.922
31609WAT      O95068   0.018   2.613   7.198
31609WAT     H195069   0.075   2.661   7.132
31609WAT     H295070  -0.079   2.626   7.175
31610WAT      O95071   3.969   3.235   1.200
31610WAT     H195072   4.059   3.263   1.234
31610WAT     H295073   3.924   3.313   1.158
31611WAT      O95074   8.019   3.897   4.335
31611WAT     H195075   8.053   3.803   4.336
31611WAT     H295076   7.922   3.898   4.361
31612WAT      O95077   6.732   2.623   3.180
31612WAT     H195078   6.708   2.717   3.207
31612WAT     H295079   6.807   2.625   3.115
31613WAT      O95080   6.413   3.517   6.726
31613WAT     H195081   6.431   3.613   6.747
31613WAT     H295082   6.388   3.468   6.809
31614WAT      O95083   9.871   9.375   9.768
31614WAT     H195084   9.872   9.384   9.669
31614WAT     H295085   9.826   9.454   9.808
31615WAT      O95086   0.003   3.289   0.212
31615WAT     H195087   0.054   3.339   0.143
31615WAT     H295088   0.052   3.204   0.235
31616WAT      O95089   2.815   1.069   8.275
31616WAT     H195090   2.868   1.149   8.247
31616WAT     H295091   2.862   1.022   8.351
31617WAT      O95092   9.111   0.627   5.662
31617WAT     H195093   9.171   0.627   5.582
31617WAT     H295094   9.134   0.704   5.721
31618WAT      O95095   2.580   8.416   0.371
31618WAT     H195096   2.621   8.472   0.300
31618WAT     H295097   2.540   8.334   0.331
31619WAT      O95098   9.523   2.135   7.503
31619WAT     H195099   9.569   2.218   7.471
31619WAT     H295100   9.579   2.092   7.574
31620WAT      O95101   3.271   0.229   4.625
31620WAT     H195102   3.281   0.184   4.537
31620WAT     H295103   3.212   0.174   4.684
31621WAT      O95104   3.177   7.100   9.331
31621WAT     H195105   3.275   7.122   9.334
31621WAT     H295106   3.156   7.054   9.245
31622WAT      O95107   1.856   4.693   1.021
31622WAT     H195108   1.875   4.702   1.119
31622WAT     H295109   1.927   4.740   0.969
31623WAT      O95110   2.454   1.142   2.430
31623WAT     H195111   2.517   1.073   2.466
31623WAT     H295112   2.428   1.205   2.503
31624WAT      O95113   8.849   7.477   6.980
31624WAT     H195114   8.870   7.514   6.889
31624WAT     H295115   8.759   7.432   6.977
31625WAT      O95116   8.123   6.320   8.813
31625WAT     H195117   8.185   6.282   8.744
31625WAT     H295118   8.036   6.343   8.769
31626WAT      O95119   6.589   2.871   6.302
31626WAT     H195120   6.656   2.797   6.309
31626WAT     H295121   6.520   2.847   6.234
31627WAT      O95122   2.561   3.808   2.567
31627WAT     H195123   2.636   3.860   2.527
31627WAT     H295124   2.539   3.731   2.508
31628WAT      O95125   7.855   6.385   3.043
31628WAT     H195126   7.949   6.352   3.038
31628WAT     H295127   7.855   6.479   3.079
31629WAT      O95128   0.267   2.313   7.422
31629WAT     H195129   0.291   2.392   7.365
31629WAT     H295130   0.350   2.270   7.456
31630WAT      O95131   1.137   8.652   1.655
31630WAT     H195132   1.222   8.656   1.602
31630WAT     H295133   1.082   8.574   1.625
31631WAT      O95134   0.467   3.617   4.344
31631WAT     H195135   0.512   3.661   4.421
31631WAT     H295136   0.535   3.586   4.278
31632WAT      O95137   7.365   1.375   7.117
31632WAT     H195138   7.312   1.444   7.164
31632WAT     H295139   7.375   1.400   7.020
31633WAT      O95140   6.858   8.250   4.192
31633WAT     H195141   6.943   8.304   4.200
31633WAT     H295142   6.840   8.231   4.096
31634WAT      O95143   5.686   0.412   0.158
31634WAT     H195144   5.710   0.379   0.250
31634WAT     H295145   5.599   0.461   0.162
31635WAT      O95146   3.620   1.155   5.300
31635WAT     H195147   3.612   1.138   5.202
31635WAT     H295148   3.537   1.200   5.333
31636WAT      O95149   5.769   6.633   6.612
31636WAT     H195150   5.794   6.541   6.582
31636WAT     H295151   5.835   6.665   6.680
31637WAT      O95152   8.843   1.795   9.343
31637WAT     H195153   8.766   1.813   9.282
31637WAT     H295154   8.917   1.860   9.322
31638WAT      O95155   5.750   3.427   5.443
31638WAT     H195156   5.690   3.405   5.520
31638WAT     H295157   5.713   3.507   5.395
31639WAT      O95158   9.882   6.024   4.263
31639WAT     H195159   9.945   6.055   4.192
31639WAT     H295160   9.836   6.103   4.304
31640WAT      O95161   9.717   6.765   8.951
31640WAT     H195162   9.791   6.832   8.949
31640WAT     H295163   9.669   6.764   8.863
31641WAT      O95164   3.890   5.172   9.473
31641WAT     H195165   3.962   5.213   9.417
31641WAT     H295166   3.881   5.224   9.558
31642WAT      O95167   3.057   1.222   7.207
31642WAT     H195168   3.124   1.175   7.265
31642WAT     H295169   3.102   1.258   7.126
31643WAT      O95170   9.860   4.493   5.110
31643WAT     H195171   9.827   4.399   5.121
31643WAT     H295172   9.894   4.506   5.017
31644WAT      O95173   6.621   5.062   5.898
31644WAT     H195174   6.587   4.981   5.850
31644WAT     H295175   6.563   5.140   5.877
31645WAT      O95176   7.857   3.804   3.432
31645WAT     H195177   7.935   3.851   3.474
31645WAT     H295178   7.888   3.752   3.353
31646WAT      O95179   1.818   0.458   9.698
31646WAT     H195180   1.878   0.489   9.623
31646WAT     H295181   1.835   0.514   9.779
31647WAT      O95182   7.543   7.534   5.651
31647WAT     H195183   7.485   7.523   5.732
31647WAT     H295184   7.638   7.540   5.680
31648WAT      O95185   1.130   1.402   1.026
31648WAT     H195186   1.173   1.491   1.015
31648WAT     H295187   1.148   1.345   0.945
31649WAT      O95188   1.171   2.202   8.923
31649WAT     H195189   1.094   2.149   8.889
31649WAT     H295190   1.184   2.186   9.020
31650WAT      O95191   7.572   8.226   2.710
31650WAT     H195192   7.483   8.183   2.694
31650WAT     H295193   7.588   8.297   2.641
31651WAT      O95194   0.500   6.270   6.286
31651WAT     H195195   0.403   6.256   6.268
31651WAT     H295196   0.515   6.365   6.314
31652WAT      O95197   2.885   7.415   5.501
31652WAT     H195198   2.892   7.509   5.469
31652WAT     H295199   2.975   7.383   5.530
31653WAT      O95200   7.550   2.968   4.204
31653WAT     H195201   7.609   2.892   4.178
31653WAT     H295202   7.604   3.039   4.248
31654WAT      O95203   5.586   6.785   7.330
31654WAT     H195204   5.493   6.777   7.296
31654WAT     H295205   5.624   6.694   7.345
31655WAT      O95206   4.046   3.664   1.068
31655WAT     H195207   4.057   3.683   0.970
31655WAT     H295208   4.136   3.646   1.108
31656WAT      O95209   1.740   8.772   5.622
31656WAT     H195210   1.796   8.799   5.700
31656WAT     H295211   1.790   8.708   5.564
31657WAT      O95212   4.635   9.329   6.235
31657WAT     H195213   4.724   9.360   6.268
31657WAT     H295214   4.604   9.389   6.162
31658WAT      O95215   2.065   0.931   7.829
31658WAT     H195216   2.149   0.942   7.883
31658WAT     H295217   2.083   0.869   7.752
31659WAT      O95218   6.021   8.309   3.230
31659WAT     H195219   6.072   8.224   3.230
31659WAT     H295220   6.085   8.386   3.227
31660WAT      O95221   0.636   4.206   3.762
31660WAT     H195222   0.569   4.280   3.756
31660WAT     H295223   0.590   4.119   3.746
31661WAT      O95224   2.558   9.130   9.862
31661WAT     H195225   2.578   9.139   9.765
31661WAT     H295226   2.536   9.034   9.883
31662WAT      O95227   4.833   7.521   1.117
31662WAT     H195228   4.927   7.501   1.089
31662WAT     H295229   4.793   7.588   1.055
31663WAT      O95230   7.349   3.934   0.528
31663WAT     H195231   7.346   3.890   0.437
31663WAT     H295232   7.307   4.024   0.523
31664WAT      O95233   2.190   6.735   3.331
31664WAT     H195234   2.256   6.661   3.345
31664WAT     H295235   2.099   6.696   3.318
31665WAT      O95236   3.248   6.946   7.290
31665WAT     H195237   3.265   6.974   7.385
31665WAT     H295238   3.210   6.854   7.289
31666WAT      O95239   8.363   7.119   8.886
31666WAT     H195240   8.427   7.124   8.962
31666WAT     H295241   8.351   7.023   8.859
31667WAT      O95242   5.150   6.186   2.252
31667WAT     H195243   5.113   6.254   2.187
31667WAT     H295244   5.109   6.201   2.342
31668WAT      O95245   1.386   8.369   1.828
31668WAT     H195246   1.382   8.270   1.838
31668WAT     H295247   1.420   8.393   1.737
31669WAT      O95248   9.386   3.746   1.395
31669WAT     H195249   9.331   3.715   1.318
31669WAT     H295250   9.470   3.789   1.361
31670WAT      O95251   2.969   6.087   3.133
31670WAT     H195252   2.945   6.151   3.206
31670WAT     H295253   2.887   6.057   3.085
31671WAT      O95254   5.578   7.142   5.361
31671WAT     H195255   5.602   7.164   5.267
31671WAT     H295256   5.478   7.144   5.371
31672WAT      O95257   0.147   0.193   8.569
31672WAT     H195258   0.206   0.266   8.604
31672WAT     H295259   0.145   0.196   8.469
31673WAT      O95260   7.216   7.148   4.055
31673WAT     H195261   7.281   7.072   4.051
31673WAT     H295262   7.214   7.195   3.967
31674WAT      O95263   1.806   8.786   6.386
31674WAT     H195264   1.745   8.836   6.449
31674WAT     H295265   1.897   8.826   6.390
31675WAT      O95266   9.308   9.359   9.149
31675WAT     H195267   9.306   9.429   9.221
31675WAT     H295268   9.376   9.289   9.173
31676WAT      O95269   7.068   5.511   5.768
31676WAT     H195270   7.099   5.440   5.705
31676WAT     H295271   7.001   5.569   5.723
31677WAT      O95272   7.346   3.925   4.644
31677WAT     H195273   7.254   3.964   4.641
31677WAT     H295274   7.370   3.888   4.555
31678WAT      O95275   9.886   9.476   8.322
31678WAT     H195276   9.806   9.421   8.296
31678WAT     H295277   9.911   9.535   8.245
31679WAT      O95278   7.500   7.280   3.827
31679WAT     H195279   7.491   7.197   3.883
31679WAT     H295280   7.513   7.254   3.731
31680WAT      O95281   7.306   3.380   4.276
31680WAT     H195282   7.367   3.304   4.303
31680WAT     H295283   7.239   3.395   4.348
31681WAT      O95284   4.025   0.533   1.302
31681WAT     H195285   3.966   0.545   1.382
31681WAT     H295286   3.995   0.596   1.230
31682WAT      O95287   7.483   0.577   5.708
31682WAT     H195288   7.439   0.519   5.640
31682WAT     H295289   7.442   0.668   5.706
31683WAT      O95290   7.332   4.777   6.206
31683WAT     H195291   7.432   4.777   6.210
31683WAT     H295292   7.302   4.792   6.111
31684WAT      O95293   0.633   2.625   3.798
31684WAT     H195294   0.666   2.691   3.731
31684WAT     H295295   0.654   2.532   3.767
31685WAT      O95296   9.514   8.434   1.511
31685WAT     H195297   9.606   8.469   1.526
31685WAT     H295298   9.448   8.493   1.557
31686WAT      O95299   0.189   4.792   3.486
31686WAT     H195300   0.250   4.871   3.482
31686WAT     H295301   0.169   4.760   3.393
31687WAT      O95302   3.428   3.184   5.584
31687WAT     H195303   3.439   3.271   5.634
31687WAT     H295304   3.417   3.110   5.650
31688WAT      O95305   6.907   9.825   8.207
31688WAT     H195306   7.006   9.837   8.208
31688WAT     H295307   6.864   9.902   8.160
31689WAT      O95308   4.331   3.287   4.997
31689WAT     H195309   4.428   3.305   5.013
31689WAT     H295310   4.297   3.348   4.925
31690WAT      O95311   9.438   2.804   9.069
31690WAT     H195312   9.492   2.885   9.050
31690WAT     H295313   9.361   2.799   9.005
31691WAT      O95314   0.944   6.561   1.423
31691WAT     H195315   0.959   6.512   1.337
31691WAT     H295316   1.020   6.625   1.438
31692WAT      O95317   9.087   3.592   9.478
31692WAT     H195318   9.055   3.500   9.497
31692WAT     H295319   9.173   3.588   9.426
31693WAT      O95320   7.642   0.630   1.035
31693WAT     H195321   7.652   0.534   1.010
31693WAT     H295322   7.576   0.638   1.110
31694WAT      O95323   2.903   3.090   2.234
31694WAT     H195324   2.988   3.142   2.247
31694WAT     H295325   2.857   3.122   2.151
31695WAT      O95326   3.449   3.161   0.260
31695WAT     H195327   3.482   3.086   0.203
31695WAT     H295328   3.408   3.125   0.344
31696WAT      O95329   8.455   6.121   8.386
31696WAT     H195330   8.395   6.051   8.426
31696WAT     H295331   8.509   6.080   8.313
31697WAT      O95332   8.247   4.915   5.772
31697WAT     H195333   8.283   4.980   5.705
31697WAT     H295334   8.315   4.898   5.843
31698WAT      O95335   7.346   9.223   7.362
31698WAT     H195336   7.292   9.168   7.426
31698WAT     H295337   7.327   9.194   7.268
31699WAT      O95338   0.483   9.461   5.415
31699WAT     H195339   0.495   9.559   5.400
31699WAT     H295340   0.416   9.426   5.350
31700WAT      O95341   5.730   0.903   6.551
31700WAT     H195342   5.692   0.871   6.638
31700WAT     H295343   5.723   0.831   6.483
31701WAT      O95344   3.673   8.885   1.507
31701WAT     H195345   3.578   8.915   1.501
31701WAT     H295346   3.677   8.785   1.509
31702WAT      O95347   5.236   1.938   2.700
31702WAT     H195348   5.137   1.953   2.700
31702WAT     H295349   5.277   1.986   2.778
31703WAT      O95350   5.077   9.067   5.492
31703WAT     H195351   5.026   8.993   5.449
31703WAT     H295352   5.028   9.153   5.480
31704WAT      O95353   2.497   4.727   2.785
31704WAT     H195354   2.595   4.741   2.801
31704WAT     H295355   2.484   4.656   2.716
31705WAT      O95356   4.268   8.393   2.994
31705WAT     H195357   4.280   8.462   2.924
31705WAT     H295358   4.203   8.323   2.961
31706WAT      O95359   7.373   1.770   8.335
31706WAT     H195360   7.396   1.673   8.349
31706WAT     H295361   7.438   1.811   8.272
31707WAT      O95362   1.672   7.309   2.009
31707WAT     H195363   1.762   7.332   1.972
31707WAT     H295364   1.647   7.375   2.080
31708WAT      O95365   7.892   3.266   4.795
31708WAT     H195366   7.921   3.318   4.875
31708WAT     H295367   7.818   3.203   4.821
31709WAT      O95368   9.281   5.032   9.851
31709WAT     H195369   9.357   4.968   9.839
31709WAT     H295370   9.315   5.115   9.897
31710WAT      O95371   5.565   1.866   3.504
31710WAT     H195372   5.553   1.795   3.573
31710WAT     H295373   5.496   1.938   3.517
31711WAT      O95374   9.115   0.865   4.016
31711WAT     H195375   9.144   0.910   3.931
31711WAT     H295376   9.024   0.899   4.042
31712WAT      O95377   4.125   6.208   2.355
31712WAT     H195378   4.172   6.217   2.267
31712WAT     H295379   4.029   6.233   2.345
31713WAT      O95380   7.817   5.199   1.931
31713WAT     H195381   7.820   5.297   1.915
31713WAT     H295382   7.896   5.155   1.888
31714WAT      O95383   8.348   3.494   5.355
31714WAT     H195384   8.341   3.436   5.436
31714WAT     H295385   8.268   3.553   5.350
31715WAT      O95386   2.421   0.604   9.764
31715WAT     H195387   2.458   0.573   9.677
31715WAT     H295388   2.381   0.695   9.752
31716WAT      O95389   5.379   7.343   6.207
31716WAT     H195390   5.450   7.285   6.168
31716WAT     H295391   5.319   7.287   6.265
31717WAT      O95392   5.383   3.161   9.265
31717WAT     H195393   5.448   3.200   9.331
31717WAT     H295394   5.295   3.207   9.273
31718WAT      O95395   0.760   7.148   4.154
31718WAT     H195396   0.813   7.229   4.183
31718WAT     H295397   0.760   7.143   4.054
31719WAT      O95398   8.543   3.265   7.260
31719WAT     H195399   8.596   3.335   7.212
31719WAT     H295400   8.532   3.185   7.201
31720WAT      O95401   3.300   2.851   5.572
31720WAT     H195402   3.242   2.883   5.498
31720WAT     H295403   3.314   2.924   5.639
31721WAT      O95404   1.391   9.253   6.846
31721WAT     H195405   1.301   9.211   6.833
31721WAT     H295406   1.395   9.296   6.936
31722WAT      O95407   0.028   2.340   2.970
31722WAT     H195408  -0.047   2.398   2.938
31722WAT     H295409   0.011   2.246   2.942
31723WAT      O95410   4.965   0.706   9.204
31723WAT     H195411   4.922   0.713   9.294
31723WAT     H295412   4.895   0.691   9.134
31724WAT      O95413   6.506   6.877   0.170
31724WAT     H195414   6.489   6.939   0.093
31724WAT     H295415   6.602   6.882   0.196
31725WAT      O95416   5.521   9.404   5.356
31725WAT     H195417   5.558   9.421   5.448
31725WAT     H295418   5.443   9.341   5.363
31726WAT      O95419   0.335   3.835   1.657
31726WAT     H195420   0.406   3.808   1.722
31726WAT     H295421   0.285   3.913   1.693
31727WAT      O95422   4.356   2.178   3.129
31727WAT     H195423   4.374   2.228   3.214
31727WAT     H295424   4.421   2.209   3.058
31728WAT      O95425   7.367   1.310   1.088
31728WAT     H195426   7.353   1.336   0.992
31728WAT     H295427   7.431   1.233   1.093
31729WAT      O95428   6.359   5.227   2.915
31729WAT     H195429   6.279   5.231   2.974
31729WAT     H295430   6.432   5.176   2.960
31730WAT      O95431   1.997   9.110   0.300
31730WAT     H195432   1.938   9.044   0.255
31730WAT     H295433   2.088   9.107   0.259
31731WAT      O95434   8.151   8.909   9.061
31731WAT     H195435   8.072   8.943   9.011
31731WAT     H295436   8.125   8.889   9.156
31732WAT      O95437   0.766   2.088   3.350
31732WAT     H195438   0.723   2.045   3.429
31732WAT     H295439   0.857   2.049   3.335
31733WAT      O95440   6.779   7.972   9.471
31733WAT     H195441   6.723   7.890   9.456
31733WAT     H295442   6.876   7.948   9.462
31734WAT      O95443   0.867   8.745   1.388
31734WAT     H195444   0.921   8.661   1.388
31734WAT     H295445   0.919   8.818   1.345
31735WAT      O95446   7.795   9.020   1.664
31735WAT     H195447   7.835   9.061   1.746
31735WAT     H295448   7.850   8.941   1.636
31736WAT      O95449   6.177   2.833   0.252
31736WAT     H195450   6.266   2.793   0.276
31736WAT     H295451   6.104   2.781   0.296
31737WAT      O95452   6.181   9.670   0.633
31737WAT     H195453   6.143   9.748   0.582
31737WAT     H295454   6.106   9.610   0.661
31738WAT      O95455   4.046   6.759   7.234
31738WAT     H195456   4.044   6.859   7.234
31738WAT     H295457   4.138   6.728   7.211
31739WAT      O95458   2.258   3.560   9.684
31739WAT     H195459   2.306   3.604   9.607
31739WAT     H295460   2.159   3.564   9.667
31740WAT      O95461   2.798   7.598   0.517
31740WAT     H195462   2.890   7.558   0.525
31740WAT     H295463   2.749   7.584   0.603
31741WAT      O95464   8.779   3.530   4.047
31741WAT     H195465   8.704   3.466   4.029
31741WAT     H295466   8.758   3.582   4.130
31742WAT      O95467   8.919   5.331   7.215
31742WAT     H195468   8.822   5.314   7.197
31742WAT     H295469   8.960   5.248   7.255
31743WAT      O95470   3.293   6.532   2.674
31743WAT     H195471   3.276   6.598   2.601
31743WAT     H295472   3.306   6.441   2.634
31744WAT      O95473   1.042   7.307   0.800
31744WAT     H195474   1.135   7.308   0.762
31744WAT     H295475   1.047   7.311   0.899
31745WAT      O95476   9.420   3.188   5.577
31745WAT     H195477   9.489   3.193   5.505
31745WAT     H295478   9.333   3.222   5.542
31746WAT      O95479   1.382   8.486   9.332
31746WAT     H195480   1.338   8.430   9.402
31746WAT     H295481   1.479   8.499   9.355
31747WAT      O95482   0.950   1.243   2.448
31747WAT     H195483   0.872   1.283   2.496
31747WAT     H295484   0.966   1.150   2.480
31748WAT      O95485   1.557   9.387   5.261
31748WAT     H195486   1.563   9.340   5.349
31748WAT     H295487   1.494   9.464   5.269
31749WAT      O95488   9.631   6.685   7.062
31749WAT     H195489   9.670   6.606   7.108
31749WAT     H295490   9.561   6.726   7.121
31750WAT      O95491   5.081   7.683   9.238
31750WAT     H195492   5.024   7.761   9.210
31750WAT     H295493   5.093   7.622   9.160
31751WAT      O95494   9.881   9.646   3.783
31751WAT     H195495   9.954   9.608   3.842
31751WAT     H295496   9.842   9.573   3.727
31752WAT      O95497   1.823   1.564   0.347
31752WAT     H195498   1.881   1.644   0.366
31752WAT     H295499   1.875   1.480   0.365
31753WAT      O95500   5.884   8.015   1.216
31753WAT     H195501   5.979   8.032   1.243
31753WAT     H295502   5.826   8.016   1.298
31754WAT      O95503   2.979   2.736   4.683
31754WAT     H195504   2.983   2.677   4.764
31754WAT     H295505   3.068   2.738   4.638
31755WAT      O95506   6.366   4.683   6.055
31755WAT     H195507   6.431   4.658   5.984
31755WAT     H295508   6.297   4.745   6.017
31756WAT      O95509   4.129   9.809   8.831
31756WAT     H195510   4.192   9.734   8.850
31756WAT     H295511   4.161   9.860   8.751
31757WAT      O95512   4.845   6.096   8.321
31757WAT     H195513   4.861   6.153   8.402
31757WAT     H295514   4.931   6.052   8.294
31758WAT      O95515   9.285   5.370   2.395
31758WAT     H195516   9.365   5.408   2.348
31758WAT     H295517   9.294   5.271   2.401
31759WAT      O95518   0.902   8.916   4.097
31759WAT     H195519   0.945   8.948   4.013
31759WAT     H295520   0.808   8.887   4.076
31760WAT      O95521   3.471   0.230   3.578
31760WAT     H195522   3.523   0.314   3.595
31760WAT     H295523   3.480   0.204   3.482
31761WAT      O95524   7.532   4.065   3.758
31761WAT     H195525   7.589   4.099   3.832
31761WAT     H295526   7.436   4.084   3.779
31762WAT      O95527   2.007   5.231   0.101
31762WAT     H195528   1.976   5.325   0.088
31762WAT     H295529   2.062   5.203   0.022
31763WAT      O95530   0.155   3.771   9.782
31763WAT     H195531   0.217   3.768   9.704
31763WAT     H295532   0.196   3.724   9.860
31764WAT      O95533   1.564   9.809   0.906
31764WAT     H195534   1.621   9.765   0.975
31764WAT     H295535   1.514   9.885   0.947
31765WAT      O95536   1.639   8.450   1.648
31765WAT     H195537   1.698   8.527   1.672
31765WAT     H295538   1.569   8.480   1.584
31766WAT      O95539   2.763   9.526   3.317
31766WAT     H195540   2.741   9.468   3.395
31766WAT     H295541   2.836   9.484   3.264
31767WAT      O95542   4.770   5.985   9.090
31767WAT     H195543   4.835   5.938   9.030
31767WAT     H295544   4.807   5.989   9.183
31768WAT      O95545   5.444   1.762   2.110
31768WAT     H195546   5.346   1.760   2.131
31768WAT     H295547   5.476   1.857   2.113
31769WAT      O95548   1.714   4.592   6.450
31769WAT     H195549   1.753   4.681   6.472
31769WAT     H295550   1.634   4.576   6.508
31770WAT      O95551   1.742   2.539   7.081
31770WAT     H195552   1.838   2.554   7.106
31770WAT     H295553   1.709   2.455   7.124
31771WAT      O95554   4.953   5.479   6.028
31771WAT     H195555   5.042   5.522   6.043
31771WAT     H295556   4.939   5.408   6.097
31772WAT      O95557   6.742   5.580   3.049
31772WAT     H195558   6.787   5.644   2.987
31772WAT     H295559   6.659   5.545   3.006
31773WAT      O95560   4.044   0.961   5.353
31773WAT     H195561   4.060   0.863   5.361
31773WAT     H295562   3.967   0.987   5.411
31774WAT      O95563   8.956   4.016   0.460
31774WAT     H195564   9.002   4.010   0.371
31774WAT     H295565   9.008   3.964   0.528
31775WAT      O95566   2.993   5.137   8.960
31775WAT     H195567   2.976   5.173   9.051
31775WAT     H295568   3.019   5.041   8.966
31776WAT      O95569   8.646   2.375   5.616
31776WAT     H195570   8.738   2.406   5.640
31776WAT     H295571   8.579   2.439   5.652
31777WAT      O95572   1.033   4.359   2.145
31777WAT     H195573   0.979   4.324   2.221
31777WAT     H295574   1.092   4.434   2.177
31778WAT      O95575   0.586   1.201   3.501
31778WAT     H195576   0.582   1.299   3.484
31778WAT     H295577   0.498   1.160   3.476
31779WAT      O95578   5.824   2.455   8.371
31779WAT     H195579   5.826   2.545   8.415
31779WAT     H295580   5.868   2.460   8.281
31780WAT      O95581   3.098   6.673   3.299
31780WAT     H195582   3.075   6.594   3.355
31780WAT     H295583   3.189   6.659   3.258
31781WAT      O95584   9.731   2.870   9.513
31781WAT     H195585   9.820   2.828   9.494
31781WAT     H295586   9.744   2.951   9.570
31782WAT      O95587   1.942   0.801   9.679
31782WAT     H195588   1.892   0.887   9.683
31782WAT     H295589   1.904   0.736   9.745
31783WAT      O95590   5.555   8.195   1.989
31783WAT     H195591   5.460   8.222   2.006
31783WAT     H295592   5.580   8.122   2.054
31784WAT      O95593   4.265   3.020   9.186
31784WAT     H195594   4.225   2.988   9.100
31784WAT     H295595   4.349   3.072   9.167
31785WAT      O95596   4.344   3.167   8.920
31785WAT     H195597   4.402   3.110   8.978
31785WAT     H295598   4.362   3.263   8.939
31786WAT      O95599   1.348   0.844   6.483
31786WAT     H195600   1.282   0.909   6.519
31786WAT     H295601   1.349   0.849   6.383
31787WAT      O95602   0.002   7.355   2.526
31787WAT     H195603   0.091   7.365   2.484
31787WAT     H295604   0.012   7.348   2.626
31788WAT      O95605   4.696   6.021   6.550
31788WAT     H195606   4.644   5.953   6.602
31788WAT     H295607   4.777   5.979   6.511
31789WAT      O95608   0.059   3.326   3.502
31789WAT     H195609   0.053   3.304   3.599
31789WAT     H295610   0.022   3.251   3.448
31790WAT      O95611   7.123   3.003   4.527
31790WAT     H195612   7.194   3.064   4.561
31790WAT     H295613   7.078   2.958   4.604
31791WAT      O95614   3.825   8.297   7.707
31791WAT     H195615   3.857   8.360   7.778
31791WAT     H295616   3.775   8.349   7.638
31792WAT      O95617   6.279   6.010   9.301
31792WAT     H195618   6.277   5.934   9.366
31792WAT     H295619   6.227   6.087   9.339
31793WAT      O95620   9.177   9.326   9.807
31793WAT     H195621   9.203   9.315   9.903
31793WAT     H295622   9.166   9.236   9.765
31794WAT      O95623   5.652   4.566   0.622
31794WAT     H195624   5.731   4.610   0.665
31794WAT     H295625   5.586   4.540   0.693
31795WAT      O95626   7.773   8.612   4.522
31795WAT     H195627   7.674   8.624   4.515
31795WAT     H295628   7.793   8.529   4.574
31796WAT      O95629   7.131   2.388   4.026
31796WAT     H195630   7.084   2.350   4.106
31796WAT     H295631   7.186   2.467   4.054
31797WAT      O95632   2.055   3.052   6.641
31797WAT     H195633   2.149   3.018   6.642
31797WAT     H295634   1.996   2.989   6.692
31798WAT      O95635   4.760   5.089   0.277
31798WAT     H195636   4.739   5.183   0.253
31798WAT     H295637   4.802   5.042   0.199
31799WAT      O95638   4.060   6.295   0.726
31799WAT     H195639   4.053   6.366   0.797
31799WAT     H295640   3.968   6.264   0.700
31800WAT      O95641   0.438   2.662   5.197
31800WAT     H195642   0.373   2.736   5.212
31800WAT     H295643   0.529   2.691   5.228
31801WAT      O95644   8.416   1.105   1.498
31801WAT     H195645   8.333   1.060   1.465
31801WAT     H295646   8.496   1.061   1.457
31802WAT      O95647   7.120   1.377   6.553
31802WAT     H195648   7.096   1.472   6.572
31802WAT     H295649   7.158   1.369   6.461
31803WAT      O95650   8.325   5.876   8.026
31803WAT     H195651   8.262   5.932   8.080
31803WAT     H295652   8.356   5.928   7.946
31804WAT      O95653   7.691   9.333   3.662
31804WAT     H195654   7.709   9.344   3.760
31804WAT     H295655   7.602   9.290   3.650
31805WAT      O95656   2.602   2.095   5.360
31805WAT     H195657   2.557   2.028   5.420
31805WAT     H295658   2.695   2.065   5.342
31806WAT      O95659   4.747   4.404   1.726
31806WAT     H195660   4.772   4.434   1.634
31806WAT     H295661   4.651   4.376   1.726
31807WAT      O95662   1.974   7.322   2.901
31807WAT     H195663   1.982   7.238   2.846
31807WAT     H295664   2.060   7.339   2.949
31808WAT      O95665   0.199   1.983   1.662
31808WAT     H195666   0.284   1.937   1.634
31808WAT     H295667   0.177   2.055   1.596
31809WAT      O95668   1.296   6.635   8.426
31809WAT     H195669   1.285   6.640   8.525
31809WAT     H295670   1.375   6.689   8.398
31810WAT      O95671   1.999   9.574   2.690
31810WAT     H195672   1.944   9.499   2.654
31810WAT     H295673   1.968   9.660   2.648
31811WAT      O95674   4.514   2.091   1.048
31811WAT     H195675   4.575   2.171   1.057
31811WAT     H295676   4.494   2.054   1.138
31812WAT      O95677   4.311   1.882   3.124
31812WAT     H195678   4.304   1.981   3.129
31812WAT     H295679   4.274   1.841   3.208
31813WAT      O95680   4.376   2.711   0.922
31813WAT     H195681   4.303   2.643   0.926
31813WAT     H295682   4.359   2.782   0.990
31814WAT      O95683   2.636   6.123   8.203
31814WAT     H195684   2.700   6.073   8.144
31814WAT     H295685   2.673   6.126   8.296
31815WAT      O95686   6.243   5.799   4.035
31815WAT     H195687   6.207   5.827   4.123
31815WAT     H295688   6.171   5.805   3.966
31816WAT      O95689   6.084   3.092   9.828
31816WAT     H195690   6.091   3.189   9.806
31816WAT     H295691   6.097   3.037   9.745
31817WAT      O95692   8.936   8.872   0.157
31817WAT     H195693   8.838   8.855   0.148
31817WAT     H295694   8.952   8.947   0.221
31818WAT      O95695   8.138   7.721   6.784
31818WAT     H195696   8.204   7.795   6.769
31818WAT     H295697   8.139   7.693   6.880
31819WAT      O95698   9.758   0.737   1.747
31819WAT     H195699   9.730   0.652   1.702
31819WAT     H295700   9.703   0.752   1.829
31820WAT      O95701   4.785   2.802   4.736
31820WAT     H195702   4.741   2.848   4.813
31820WAT     H295703   4.727   2.727   4.705
31821WAT      O95704   1.401   1.959   0.709
31821WAT     H195705   1.360   1.871   0.733
31821WAT     H295706   1.334   2.032   0.721
31822WAT      O95707   3.772   4.489   6.858
31822WAT     H195708   3.766   4.394   6.889
31822WAT     H295709   3.849   4.498   6.794
31823WAT      O95710   2.110   9.332   4.756
31823WAT     H195711   2.203   9.296   4.755
31823WAT     H295712   2.086   9.363   4.664
31824WAT      O95713   0.522   9.465   3.578
31824WAT     H195714   0.502   9.461   3.480
31824WAT     H295715   0.601   9.525   3.593
31825WAT      O95716   7.189   5.348   9.768
31825WAT     H195717   7.148   5.287   9.836
31825WAT     H295718   7.141   5.436   9.769
31826WAT      O95719   6.085   2.654   0.029
31826WAT     H195720   6.083   2.683   0.125
31826WAT     H295721   5.992   2.641  -0.004
31827WAT      O95722   7.136   8.864   1.561
31827WAT     H195723   7.042   8.830   1.561
31827WAT     H295724   7.198   8.790   1.533
31828WAT      O95725   7.506   7.242   2.071
31828WAT     H195726   7.467   7.322   2.116
31828WAT     H295727   7.604   7.257   2.056
31829WAT      O95728   6.705   3.628   8.475
31829WAT     H195729   6.612   3.642   8.439
31829WAT     H295730   6.707   3.658   8.571
31830WAT      O95731   9.185   8.172   2.166
31830WAT     H195732   9.126   8.237   2.215
31830WAT     H295733   9.204   8.206   2.075
31831WAT      O95734   0.198   8.797   7.583
31831WAT     H195735   0.234   8.888   7.563
31831WAT     H295736   0.268   8.728   7.563
31832WAT      O95737   3.491   1.606   1.022
31832WAT     H195738   3.533   1.685   1.066
31832WAT     H295739   3.461   1.541   1.093
31833WAT      O95740   7.229   2.390   2.210
31833WAT     H195741   7.312   2.340   2.185
31833WAT     H295742   7.161   2.381   2.137
31834WAT      O95743   4.200   0.175   9.118
31834WAT     H195744   4.111   0.135   9.092
31834WAT     H295745   4.258   0.103   9.157
31835WAT      O95746   8.236   4.470   2.076
31835WAT     H195747   8.137   4.472   2.088
31835WAT     H295748   8.273   4.563   2.082
31836WAT      O95749   5.743   2.484   0.349
31836WAT     H195750   5.667   2.494   0.414
31836WAT     H295751   5.738   2.557   0.281
31837WAT      O95752   0.658   5.006   8.042
31837WAT     H195753   0.581   4.975   7.985
31837WAT     H295754   0.648   5.104   8.059
31838WAT      O95755   0.012   4.049   4.081
31838WAT     H195756  -0.082   4.028   4.053
31838WAT     H295757   0.032   4.002   4.167
31839WAT      O95758   2.278   6.221   3.342
31839WAT     H195759   2.352   6.216   3.409
31839WAT     H295760   2.268   6.132   3.298
31840WAT      O95761   4.233   6.285   2.110
31840WAT     H195762   4.172   6.288   2.031
31840WAT     H295763   4.323   6.252   2.081
31841WAT      O95764   1.278   6.412   4.229
31841WAT     H195765   1.203   6.424   4.294
31841WAT     H295766   1.299   6.315   4.220
31842WAT      O95767   5.673   5.358   6.212
31842WAT     H195768   5.727   5.352   6.128
31842WAT     H295769   5.690   5.277   6.269
31843WAT      O95770   2.715   7.880   5.411
31843WAT     H195771   2.646   7.892   5.482
31843WAT     H295772   2.674   7.902   5.322
31844WAT      O95773   3.326   4.252   2.476
31844WAT     H195774   3.357   4.168   2.522
31844WAT     H295775   3.399   4.319   2.475
31845WAT      O95776   1.524   4.105   7.189
31845WAT     H195777   1.596   4.138   7.126
31845WAT     H295778   1.480   4.025   7.150
31846WAT      O95779   7.809   9.445   2.941
31846WAT     H195780   7.760   9.532   2.937
31846WAT     H295781   7.890   9.451   2.883
31847WAT      O95782   3.519   8.033   3.048
31847WAT     H195783   3.501   7.956   3.109
31847WAT     H295784   3.612   8.067   3.063
31848WAT      O95785   1.259   0.229   1.072
31848WAT     H195786   1.245   0.313   1.018
31848WAT     H295787   1.357   0.210   1.079
31849WAT      O95788   3.336   2.514   0.673
31849WAT     H195789   3.413   2.550   0.727
31849WAT     H295790   3.266   2.478   0.734
31850WAT      O95791   6.172   1.415   9.371
31850WAT     H195792   6.215   1.500   9.340
31850WAT     H295793   6.226   1.375   9.445
31851WAT      O95794   6.858   2.061   3.281
31851WAT     H195795   6.831   2.133   3.345
31851WAT     H295796   6.954   2.072   3.257
31852WAT      O95797   8.325   5.321   9.066
31852WAT     H195798   8.416   5.360   9.075
31852WAT     H295799   8.310   5.253   9.138
31853WAT      O95800   0.545   3.173   9.613
31853WAT     H195801   0.564   3.150   9.518
31853WAT     H295802   0.466   3.121   9.645
31854WAT      O95803   3.394   4.008   9.655
31854WAT     H195804   3.478   3.954   9.663
31854WAT     H295805   3.337   3.969   9.583
31855WAT      O95806   8.899   8.541   4.657
31855WAT     H195807   8.816   8.488   4.676
31855WAT     H295808   8.976   8.500   4.706
31856WAT      O95809   8.479   2.917   8.550
31856WAT     H195810   8.440   2.946   8.637
31856WAT     H295811   8.457   2.985   8.479
31857WAT      O95812   4.771   0.356   9.189
31857WAT     H195813   4.736   0.355   9.283
31857WAT     H295814   4.730   0.433   9.139
31858WAT      O95815   0.675   7.828   9.453
31858WAT     H195816   0.702   7.772   9.374
31858WAT     H295817   0.732   7.910   9.456
31859WAT      O95818   7.899   9.209   6.802
31859WAT     H195819   7.858   9.299   6.784
31859WAT     H295820   7.846   9.139   6.755
31860WAT      O95821   6.657   5.542   4.277
31860WAT     H195822   6.726   5.571   4.210
31860WAT     H295823   6.632   5.620   4.335
31861WAT      O95824   5.785   8.074   5.545
31861WAT     H195825   5.797   8.171   5.527
31861WAT     H295826   5.825   8.021   5.470
31862WAT      O95827   3.866   6.746   3.037
31862WAT     H195828   3.826   6.706   2.955
31862WAT     H295829   3.915   6.675   3.088
31863WAT      O95830   2.074   3.138   2.766
31863WAT     H195831   2.042   3.230   2.744
31863WAT     H295832   2.049   3.117   2.861
31864WAT      O95833   2.608   6.561   7.980
31864WAT     H195834   2.563   6.632   7.927
31864WAT     H295835   2.541   6.514   8.037
31865WAT      O95836   2.285   8.942   9.681
31865WAT     H195837   2.303   8.941   9.779
31865WAT     H295838   2.267   9.035   9.650
31866WAT      O95839   8.366   2.100   9.401
31866WAT     H195840   8.332   2.133   9.489
31866WAT     H295841   8.397   2.006   9.409
31867WAT      O95842   1.610   8.892   3.522
31867WAT     H195843   1.688   8.951   3.502
31867WAT     H295844   1.525   8.939   3.497
31868WAT      O95845   3.351   5.163   4.616
31868WAT     H195846   3.380   5.095   4.683
31868WAT     H295847   3.261   5.137   4.581
31869WAT      O95848   2.670   0.838   0.118
31869WAT     H195849   2.654   0.749   0.160
31869WAT     H295850   2.733   0.828   0.041
31870WAT      O95851   0.437   4.411   7.187
31870WAT     H195852   0.532   4.388   7.168
31870WAT     H295853   0.432   4.466   7.271
31871WAT      O95854   4.684   2.830   8.980
31871WAT     H195855   4.639   2.740   8.981
31871WAT     H295856   4.765   2.827   9.038
31872WAT      O95857   0.063   7.372   2.794
31872WAT     H195858   0.101   7.289   2.834
31872WAT     H295859   0.047   7.439   2.865
31873WAT      O95860   7.434   6.644   4.263
31873WAT     H195861   7.373   6.568   4.285
31873WAT     H295862   7.438   6.707   4.340
31874WAT      O95863   5.916   0.813   5.143
31874WAT     H195864   5.928   0.722   5.183
31874WAT     H295865   5.819   0.837   5.144
31875WAT      O95866   0.930   4.976   7.725
31875WAT     H195867   0.931   4.877   7.740
31875WAT     H295868   0.850   5.000   7.670
31876WAT      O95869   9.048   1.379   5.545
31876WAT     H195870   9.021   1.459   5.599
31876WAT     H295871   9.148   1.372   5.544
31877WAT      O95872   9.135   5.712   9.113
31877WAT     H195873   9.168   5.719   9.207
31877WAT     H295874   9.169   5.629   9.071
31878WAT      O95875   1.002   7.104   3.470
31878WAT     H195876   1.011   7.159   3.552
31878WAT     H295877   0.943   7.025   3.489
31879WAT      O95878   4.632   7.900   0.298
31879WAT     H195879   4.622   7.911   0.397
31879WAT     H295880   4.684   7.977   0.261
31880WAT      O95881   6.701   9.019   4.165
31880WAT     H195882   6.608   8.983   4.175
31880WAT     H295883   6.767   8.945   4.176
31881WAT      O95884   5.714   6.069   4.309
31881WAT     H195885   5.698   6.096   4.404
31881WAT     H295886   5.757   6.144   4.260
31882WAT      O95887   4.255   0.643   4.959
31882WAT     H195888   4.268   0.726   4.905
31882WAT     H295889   4.296   0.565   4.911
31883WAT      O95890   0.826   2.308   3.522
31883WAT     H195891   0.824   2.237   3.453
31883WAT     H295892   0.788   2.393   3.485
31884WAT      O95893   5.374   7.400   1.611
31884WAT     H195894   5.332   7.440   1.530
31884WAT     H295895   5.327   7.432   1.693
31885WAT      O95896   3.670   7.015   8.979
31885WAT     H195897   3.599   6.950   8.951
31885WAT     H295898   3.720   6.978   9.057
31886WAT      O95899   0.809   8.612   1.709
31886WAT     H195900   0.849   8.522   1.697
31886WAT     H295901   0.845   8.674   1.639
31887WAT      O95902   1.412   6.435   1.578
31887WAT     H195903   1.375   6.526   1.595
31887WAT     H295904   1.338   6.371   1.561
31888WAT      O95905   9.336   6.132   1.508
31888WAT     H195906   9.406   6.061   1.518
31888WAT     H295907   9.279   6.112   1.429
31889WAT      O95908   0.084   0.028   2.211
31889WAT     H195909   0.182   0.046   2.205
31889WAT     H295910   0.068  -0.070   2.198
31890WAT      O95911   6.247   5.728   9.167
31890WAT     H195912   6.221   5.814   9.123
31890WAT     H295913   6.168   5.692   9.218
31891WAT      O95914   2.276   3.970   2.050
31891WAT     H195915   2.231   3.985   2.139
31891WAT     H295916   2.276   3.872   2.029
31892WAT      O95917   2.180   8.891   5.311
31892WAT     H195918   2.151   8.797   5.324
31892WAT     H295919   2.236   8.899   5.229
31893WAT      O95920   3.751   8.602   9.310
31893WAT     H195921   3.655   8.626   9.322
31893WAT     H295922   3.802   8.681   9.277
31894WAT      O95923   5.887   2.248   6.959
31894WAT     H195924   5.790   2.228   6.941
31894WAT     H295925   5.938   2.243   6.874
31895WAT      O95926   2.123   8.834   0.223
31895WAT     H195927   2.210   8.802   0.261
31895WAT     H295928   2.048   8.782   0.263
31896WAT      O95929   7.401   6.442   0.928
31896WAT     H195930   7.307   6.473   0.935
31896WAT     H295931   7.462   6.509   0.971
31897WAT      O95932   2.686   1.418   2.097
31897WAT     H195933   2.696   1.328   2.054
31897WAT     H295934   2.595   1.427   2.137
31898WAT      O95935   7.945   7.919   5.481
31898WAT     H195936   7.854   7.915   5.523
31898WAT     H295937   8.005   7.854   5.526
31899WAT      O95938   8.578   0.221   4.915
31899WAT     H195939   8.565   0.289   4.987
31899WAT     H295940   8.489   0.182   4.889
   9.88928    9.84380    9.89279 
